                               Psi4 1.4a3.dev225

  ==> Input File <==

--------------------------------------------------------------------------
#psi4
#
memory 32 gb

molecule  {
-1 1
  O       -2.4775990    -1.4732410    -0.5357720
  O       -2.5836320     0.8103810    -0.7086120
  C        0.1769840    -0.1996970     0.5360780
  C        0.8528670     0.9715620     0.1268880
  C       -1.2378850    -0.1617980     1.0317040
  C        0.8256870    -1.4354030     0.3918760
  C        2.1654290     0.8711020    -0.3500530
  C        0.1613040     2.3091050     0.2016770
  C        2.1298550    -1.5237740    -0.0958170
  C        2.8103870    -0.3625320    -0.4658790
  C       -2.2184660    -0.2891600    -0.2009230
  H       -1.4126520    -1.0091000     1.7035120
  H       -1.4413430     0.7679950     1.5725290
  H        0.2756770    -2.3364080     0.6567980
  H        2.6838580     1.7794620    -0.6595800
  H       -0.8491240     2.2156170    -0.2099720
  H        0.0695014     2.6725168     1.2866995
  H        0.7245490     3.0640340    -0.3581400
  H        2.6081740    -2.4970700    -0.1982670
  H        3.8302350    -0.4147610    -0.8445580
units angstrom
no_reorient  #important for SAPT in psi4, default
symmetry c1  #important for SAPT in psi4, default
}

set PROPERTIES_ORIGIN ["COM"]
properties('MP2/aug-cc-pvtz', properties = ['dipole'])
--------------------------------------------------------------------------

    Molecular point group: c1
  Charge       = -1
  Multiplicity = 1
  Basis Set: AUG-CC-PVTZ
    Blend: AUG-CC-PVTZ
  Basis Set: (AUG-CC-PVTZ AUX)
    Blend: AUG-CC-PVTZ-JKFIT

    Orbital Energies [Eh]
    ---------------------

    Doubly Occupied:

       1A    -20.309369     2A    -20.309149     3A    -11.157070
       4A    -11.118708     5A    -11.117663     6A    -11.116434
       7A    -11.115132     8A    -11.113065     9A    -11.107190
      10A    -11.098555    11A    -11.073705    12A     -1.179399
      13A     -1.083547    14A     -1.032472    15A     -0.926626
      16A     -0.907759    17A     -0.819642    18A     -0.786495
      19A     -0.689981    20A     -0.663770    21A     -0.562306
      22A     -0.533129    23A     -0.523521    24A     -0.499910
      25A     -0.459485    26A     -0.451690    27A     -0.439855
      28A     -0.428100    29A     -0.422569    30A     -0.413091
      31A     -0.384464    32A     -0.374501    33A     -0.364072
      34A     -0.351892    35A     -0.333055    36A     -0.235310
      37A     -0.225690    38A     -0.211464    39A     -0.207242
      40A     -0.176415

  @DF-RHF Final Energy:  -495.99520294404209

   => Energetics <=

    Nuclear Repulsion Energy =            571.7968552468570351
    One-Electron Energy =               -1822.9371350254496065
    Two-Electron Energy =                 755.1450768345506503
    Total Energy =                       -495.9952029440420347
  Basis Set: (AUG-CC-PVTZ AUX)
    Blend: AUG-CC-PVTZ-RI
    Molecular point group: c1

    Geometry (in Angstrom), charge = -1, multiplicity = 1:

       Center              X                  Y                   Z               Mass
    ------------   -----------------  -----------------  -----------------  -----------------
         O           -2.434526735861    -1.445238583831    -0.516819220437    15.994914619570
         O           -2.540559735861     0.838383416169    -0.689659220437    15.994914619570
         C            0.220056264139    -0.171694583831     0.555030779563    12.000000000000
         C            0.895939264139     0.999564416169     0.145840779563    12.000000000000
         C           -1.194812735861    -0.133795583831     1.050656779563    12.000000000000
         C            0.868759264139    -1.407400583831     0.410828779563    12.000000000000
         C            2.208501264139     0.899104416169    -0.331100220437    12.000000000000
         C            0.204376264139     2.337107416169     0.220629779563    12.000000000000
         C            2.172927264139    -1.495771583831    -0.076864220437    12.000000000000
         C            2.853459264139    -0.334529583831    -0.446926220437    12.000000000000
         C           -2.175393735861    -0.261157583831    -0.181970220437    12.000000000000
         H           -1.369579735861    -0.981097583831     1.722464779563     1.007825032230
         H           -1.398270735861     0.795997416169     1.591481779563     1.007825032230
         H            0.318749264139    -2.308405583831     0.675750779563     1.007825032230
         H            2.726930264139     1.807464416169    -0.640627220437     1.007825032230
         H           -0.806051735861     2.243619416169    -0.191019220437     1.007825032230
         H            0.112573664139     2.700519216169     1.305652279563     1.007825032230
         H            0.767621264139     3.092036416169    -0.339187220437     1.007825032230
         H            2.651246264139    -2.469067583831    -0.179314220437     1.007825032230
         H            3.873307264139    -0.386758583831    -0.825605220437     1.007825032230

  Basis Set: AUG-CC-PVTZ
    Blend: AUG-CC-PVTZ
  Basis Set: (AUG-CC-PVTZ AUX)
    Blend: AUG-CC-PVTZ-JKFIT
	 Reference Energy          =    -495.9952029440420915 [Eh]
	 Singles Energy            =      -0.0000000000000000 [Eh]
	 Same-Spin Energy          =      -0.5330066061614186 [Eh]
	 Opposite-Spin Energy      =      -1.6358240089311824 [Eh]
	 Correlation Energy        =      -2.1688306150926011 [Eh]
	 Total Energy              =    -498.1640335591346798 [Eh]

	 ================> DF-SCS-MP2 Energies <==================
	-----------------------------------------------------------
	 SCS Same-Spin Scale       =       0.3333333333333333 [-]
	 SCS Opposite-Spin Scale   =       1.2000000000000000 [-]
	 SCS Same-Spin Energy      =      -0.1776688687204729 [Eh]
	 SCS Opposite-Spin Energy  =      -1.9629888107174187 [Eh]
	 SCS Correlation Energy    =      -2.1406576794378918 [Eh]
	 SCS Total Energy          =    -498.1358606234799709 [Eh]
	-----------------------------------------------------------

  Dipole Moment: [D]
     X:     8.4924      Y:     1.3591      Z:     2.9367     Total:     9.0881

*** Psi4 exiting successfully. Buy a developer a beer!
