                               Psi4 1.4a3.dev225

  ==> Input File <==

--------------------------------------------------------------------------
#psi4
#
memory 32 gb

molecule  {
-1 1
  O       -2.4775990    -1.4732410    -0.5357720
  O       -2.5836320     0.8103810    -0.7086120
  C        0.1769840    -0.1996970     0.5360780
  C        0.8528670     0.9715620     0.1268880
  C       -1.2378850    -0.1617980     1.0317040
  C        0.8256870    -1.4354030     0.3918760
  C        2.1654290     0.8711020    -0.3500530
  C        0.1613040     2.3091050     0.2016770
  C        2.1298550    -1.5237740    -0.0958170
  C        2.8103870    -0.3625320    -0.4658790
  C       -2.2184660    -0.2891600    -0.2009230
  H       -1.4126520    -1.0091000     1.7035120
  H       -1.4413430     0.7679950     1.5725290
  H        0.2756770    -2.3364080     0.6567980
  H        2.5887971     1.6129021    -0.6028241
  H       -0.8491240     2.2156170    -0.2099720
  H        0.0735000     2.6566880     1.2394400
  H        0.7245490     3.0640340    -0.3581400
  H        2.6081740    -2.4970700    -0.1982670
  H        3.8302350    -0.4147610    -0.8445580
units angstrom
no_reorient  #important for SAPT in psi4, default
symmetry c1  #important for SAPT in psi4, default
}

set PROPERTIES_ORIGIN ["COM"]
properties('MP2/aug-cc-pvtz', properties = ['dipole'])
--------------------------------------------------------------------------

    Molecular point group: c1
  Charge       = -1
  Multiplicity = 1
  Basis Set: AUG-CC-PVTZ
    Blend: AUG-CC-PVTZ
  Basis Set: (AUG-CC-PVTZ AUX)
    Blend: AUG-CC-PVTZ-JKFIT

    Orbital Energies [Eh]
    ---------------------

    Doubly Occupied:

       1A    -20.308822     2A    -20.308580     3A    -11.156445
       4A    -11.116610     5A    -11.115212     6A    -11.114595
       7A    -11.111092     8A    -11.106138     9A    -11.092384
      10A    -11.089511    11A    -11.072898    12A     -1.178835
      13A     -1.082995    14A     -1.033131    15A     -0.925824
      16A     -0.915289    17A     -0.824583    18A     -0.787832
      19A     -0.708980    20A     -0.663460    21A     -0.573297
      22A     -0.532503    23A     -0.524108    24A     -0.514887
      25A     -0.461802    26A     -0.457103    27A     -0.439350
      28A     -0.428281    29A     -0.427173    30A     -0.414382
      31A     -0.383504    32A     -0.375196    33A     -0.363620
      34A     -0.353355    35A     -0.332269    36A     -0.234409
      37A     -0.225130    38A     -0.210809    39A     -0.206328
      40A     -0.175276

  @DF-RHF Final Energy:  -495.96360868491820

   => Energetics <=

    Nuclear Repulsion Energy =            573.2084672880705511
    One-Electron Energy =               -1825.6521511948933494
    Two-Electron Energy =                 756.4800752219045989
    Total Energy =                       -495.9636086849181993
  Basis Set: (AUG-CC-PVTZ AUX)
    Blend: AUG-CC-PVTZ-RI
    Molecular point group: c1

    Geometry (in Angstrom), charge = -1, multiplicity = 1:

       Center              X                  Y                   Z               Mass
    ------------   -----------------  -----------------  -----------------  -----------------
         O           -2.433911046147    -1.444005418773    -0.516883427423    15.994914619570
         O           -2.539944046147     0.839616581227    -0.689723427423    15.994914619570
         C            0.220671953853    -0.170461418773     0.554966572577    12.000000000000
         C            0.896554953853     1.000797581227     0.145776572577    12.000000000000
         C           -1.194197046147    -0.132562418773     1.050592572577    12.000000000000
         C            0.869374953853    -1.406167418773     0.410764572577    12.000000000000
         C            2.209116953853     0.900337581227    -0.331164427423    12.000000000000
         C            0.204991953853     2.338340581227     0.220565572577    12.000000000000
         C            2.173542953853    -1.494538418773    -0.076928427423    12.000000000000
         C            2.854074953853    -0.333296418773    -0.446990427423    12.000000000000
         C           -2.174778046147    -0.259924418773    -0.182034427423    12.000000000000
         H           -1.368964046147    -0.979864418773     1.722400572577     1.007825032230
         H           -1.397655046147     0.797230581227     1.591417572577     1.007825032230
         H            0.319364953853    -2.307172418773     0.675686572577     1.007825032230
         H            2.632485053853     1.642137681227    -0.583935527423     1.007825032230
         H           -0.805436046147     2.244852581227    -0.191083427423     1.007825032230
         H            0.117187953853     2.685923581227     1.258328572577     1.007825032230
         H            0.768236953853     3.093269581227    -0.339251427423     1.007825032230
         H            2.651861953853    -2.467834418773    -0.179378427423     1.007825032230
         H            3.873922953853    -0.385525418773    -0.825669427423     1.007825032230

  Basis Set: AUG-CC-PVTZ
    Blend: AUG-CC-PVTZ
  Basis Set: (AUG-CC-PVTZ AUX)
    Blend: AUG-CC-PVTZ-JKFIT
	 Reference Energy          =    -495.9636086849181993 [Eh]
	 Singles Energy            =      -0.0000000000000000 [Eh]
	 Same-Spin Energy          =      -0.5327597573488958 [Eh]
	 Opposite-Spin Energy      =      -1.6348821523032560 [Eh]
	 Correlation Energy        =      -2.1676419096521515 [Eh]
	 Total Energy              =    -498.1312505945703606 [Eh]

	 ================> DF-SCS-MP2 Energies <==================
	-----------------------------------------------------------
	 SCS Same-Spin Scale       =       0.3333333333333333 [-]
	 SCS Opposite-Spin Scale   =       1.2000000000000000 [-]
	 SCS Same-Spin Energy      =      -0.1775865857829653 [Eh]
	 SCS Opposite-Spin Energy  =      -1.9618585827639070 [Eh]
	 SCS Correlation Energy    =      -2.1394451685468723 [Eh]
	 SCS Total Energy          =    -498.1030538534650987 [Eh]
	-----------------------------------------------------------

  Dipole Moment: [D]
     X:     8.5480      Y:     1.4807      Z:     2.9421     Total:     9.1606

*** Psi4 exiting successfully. Buy a developer a beer!
