                               Psi4 1.4a3.dev225

  ==> Input File <==

--------------------------------------------------------------------------
#psi4
#
memory 32 gb

molecule  {
-1 1
  O       -2.4775990    -1.4732410    -0.5357720
  O       -2.5836320     0.8103810    -0.7086120
  C        0.1769840    -0.1996970     0.5360780
  C        0.8528670     0.9715620     0.1268880
  C       -1.2378850    -0.1617980     1.0317040
  C        0.8256870    -1.4354030     0.3918760
  C        2.1654290     0.8711020    -0.3500530
  C        0.1613040     2.3091050     0.2016770
  C        2.1298550    -1.5237740    -0.0958170
  C        2.8103870    -0.3625320    -0.4658790
  C       -2.2184660    -0.2891600    -0.2009230
  H       -1.4126520    -1.0091000     1.7035120
  H       -1.4413430     0.7679950     1.5725290
  H        0.2756770    -2.3364080     0.6567980
  H        2.6838580     1.7794620    -0.6595800
  H       -0.8491240     2.2156170    -0.2099720
  H        0.0735000     2.6566880     1.2394400
  H        0.7245490     3.0640340    -0.3581400
  H        2.5862188    -2.4523950    -0.1935645
  H        3.8302350    -0.4147610    -0.8445580
units angstrom
no_reorient  #important for SAPT in psi4, default
symmetry c1  #important for SAPT in psi4, default
}

set PROPERTIES_ORIGIN ["COM"]
properties('MP2/aug-cc-pvtz', properties = ['dipole'])
--------------------------------------------------------------------------

    Molecular point group: c1
  Charge       = -1
  Multiplicity = 1
  Basis Set: AUG-CC-PVTZ
    Blend: AUG-CC-PVTZ
  Basis Set: (AUG-CC-PVTZ AUX)
    Blend: AUG-CC-PVTZ-JKFIT

    Orbital Energies [Eh]
    ---------------------

    Doubly Occupied:

       1A    -20.309057     2A    -20.308892     3A    -11.156775
       4A    -11.117773     5A    -11.116917     6A    -11.114288
       7A    -11.112302     8A    -11.109961     9A    -11.106352
      10A    -11.092024    11A    -11.073470    12A     -1.179119
      13A     -1.083267    14A     -1.032127    15A     -0.927731
      16A     -0.907635    17A     -0.821750    18A     -0.788381
      19A     -0.689775    20A     -0.667406    21A     -0.566149
      22A     -0.532951    23A     -0.522850    24A     -0.501364
      25A     -0.461193    26A     -0.455515    27A     -0.441094
      28A     -0.428180    29A     -0.426000    30A     -0.412183
      31A     -0.384537    32A     -0.374371    33A     -0.364269
      34A     -0.352280    35A     -0.332866    36A     -0.234919
      37A     -0.225434    38A     -0.211162    39A     -0.206861
      40A     -0.175977

  @DF-RHF Final Energy:  -495.99647688517973

   => Energetics <=

    Nuclear Repulsion Energy =            572.2917913594901620
    One-Electron Energy =               -1823.9262187944425477
    Two-Electron Energy =                 755.6379505497726541
    Total Energy =                       -495.9964768851797317
  Basis Set: (AUG-CC-PVTZ AUX)
    Blend: AUG-CC-PVTZ-RI
    Molecular point group: c1

    Geometry (in Angstrom), charge = -1, multiplicity = 1:

       Center              X                  Y                   Z               Mass
    ------------   -----------------  -----------------  -----------------  -----------------
         O           -2.434405327836    -1.445433618534    -0.516531484380    15.994914619570
         O           -2.540438327836     0.838188381466    -0.689371484380    15.994914619570
         C            0.220177672164    -0.171889618534     0.555318515620    12.000000000000
         C            0.896060672164     0.999369381466     0.146128515620    12.000000000000
         C           -1.194691327836    -0.133990618534     1.050944515620    12.000000000000
         C            0.868880672164    -1.407595618534     0.411116515620    12.000000000000
         C            2.208622672164     0.898909381466    -0.330812484380    12.000000000000
         C            0.204497672164     2.336912381466     0.220917515620    12.000000000000
         C            2.173048672164    -1.495966618534    -0.076576484380    12.000000000000
         C            2.853580672164    -0.334724618534    -0.446638484380    12.000000000000
         C           -2.175272327836    -0.261352618534    -0.181682484380    12.000000000000
         H           -1.369458327836    -0.981292618534     1.722752515620     1.007825032230
         H           -1.398149327836     0.795802381466     1.591769515620     1.007825032230
         H            0.318870672164    -2.308600618534     0.676038515620     1.007825032230
         H            2.727051672164     1.807269381466    -0.640339484380     1.007825032230
         H           -0.805930327836     2.243424381466    -0.190731484380     1.007825032230
         H            0.116693672164     2.684495381466     1.258680515620     1.007825032230
         H            0.767742672164     3.091841381466    -0.338899484380     1.007825032230
         H            2.629412472164    -2.424587618534    -0.174323984380     1.007825032230
         H            3.873428672164    -0.386953618534    -0.825317484380     1.007825032230

  Basis Set: AUG-CC-PVTZ
    Blend: AUG-CC-PVTZ
  Basis Set: (AUG-CC-PVTZ AUX)
    Blend: AUG-CC-PVTZ-JKFIT
	 Reference Energy          =    -495.9964768851797317 [Eh]
	 Singles Energy            =      -0.0000000000000000 [Eh]
	 Same-Spin Energy          =      -0.5329411751246966 [Eh]
	 Opposite-Spin Energy      =      -1.6351927195192881 [Eh]
	 Correlation Energy        =      -2.1681338946439848 [Eh]
	 Total Energy              =    -498.1646107798237040 [Eh]

	 ================> DF-SCS-MP2 Energies <==================
	-----------------------------------------------------------
	 SCS Same-Spin Scale       =       0.3333333333333333 [-]
	 SCS Opposite-Spin Scale   =       1.2000000000000000 [-]
	 SCS Same-Spin Energy      =      -0.1776470583748989 [Eh]
	 SCS Opposite-Spin Energy  =      -1.9622312634231456 [Eh]
	 SCS Correlation Energy    =      -2.1398783217980446 [Eh]
	 SCS Total Energy          =    -498.1363552069777825 [Eh]
	-----------------------------------------------------------

  Dipole Moment: [D]
     X:     8.5040      Y:     1.3616      Z:     2.9666     Total:     9.1089

*** Psi4 exiting successfully. Buy a developer a beer!
