                               Psi4 1.4a3.dev225

  ==> Input File <==

--------------------------------------------------------------------------
#psi4
#
memory 32 gb

molecule  {
-1 1
  O       -2.4775990    -1.4732410    -0.5357720
  O       -2.5836320     0.8103810    -0.7086120
  C        0.1769840    -0.1996970     0.5360780
  C        0.8528670     0.9715620     0.1268880
  C       -1.2378850    -0.1617980     1.0317040
  C        0.8256870    -1.4354030     0.3918760
  C        2.1654290     0.8711020    -0.3500530
  C        0.1613040     2.3091050     0.2016770
  C        2.1298550    -1.5237740    -0.0958170
  C        2.8103870    -0.3625320    -0.4658790
  C       -2.1607297    -0.4630081    -0.1206524
  H       -1.4126520    -1.0091000     1.7035120
  H       -1.4413430     0.7679950     1.5725290
  H        0.2756770    -2.3364080     0.6567980
  H        2.6838580     1.7794620    -0.6595800
  H       -0.8491240     2.2156170    -0.2099720
  H        0.0735000     2.6566880     1.2394400
  H        0.7245490     3.0640340    -0.3581400
  H        2.6081740    -2.4970700    -0.1982670
  H        3.8302350    -0.4147610    -0.8445580
units angstrom
no_reorient  #important for SAPT in psi4, default
symmetry c1  #important for SAPT in psi4, default
}

set PROPERTIES_ORIGIN ["COM"]
properties('MP2/aug-cc-pvtz', properties = ['dipole'])
--------------------------------------------------------------------------

    Molecular point group: c1
  Charge       = -1
  Multiplicity = 1
  Basis Set: AUG-CC-PVTZ
    Blend: AUG-CC-PVTZ
  Basis Set: (AUG-CC-PVTZ AUX)
    Blend: AUG-CC-PVTZ-JKFIT

    Orbital Energies [Eh]
    ---------------------

    Doubly Occupied:

       1A    -20.346421     2A    -20.264768     3A    -11.152089
       4A    -11.121918     5A    -11.119849     6A    -11.119412
       7A    -11.117221     8A    -11.116559     9A    -11.112403
      10A    -11.086769    11A    -11.082604    12A     -1.249383
      13A     -1.036910    14A     -0.993000    15A     -0.929399
      16A     -0.912849    17A     -0.829480    18A     -0.793237
      19A     -0.695504    20A     -0.668985    21A     -0.569470
      22A     -0.548012    23A     -0.524669    24A     -0.504910
      25A     -0.476013    26A     -0.459150    27A     -0.448804
      28A     -0.434981    29A     -0.430741    30A     -0.413104
      31A     -0.389142    32A     -0.377994    33A     -0.365948
      34A     -0.352451    35A     -0.346461    36A     -0.227335
      37A     -0.209678    38A     -0.192342    39A     -0.177164
      40A     -0.172504

  @DF-RHF Final Energy:  -495.94575382512892

   => Energetics <=

    Nuclear Repulsion Energy =            572.5177361380090133
    One-Electron Energy =               -1824.1877095790744079
    Two-Electron Energy =                 755.7242196159364767
    Total Energy =                       -495.9457538251289179
  Basis Set: (AUG-CC-PVTZ AUX)
    Blend: AUG-CC-PVTZ-RI
    Molecular point group: c1

    Geometry (in Angstrom), charge = -1, multiplicity = 1:

       Center              X                  Y                   Z               Mass
    ------------   -----------------  -----------------  -----------------  -----------------
         O           -2.439201794892    -1.431136032701    -0.522961822942    15.994914619570
         O           -2.545234794892     0.852485967299    -0.695801822942    15.994914619570
         C            0.215381205108    -0.157592032701     0.548888177058    12.000000000000
         C            0.891264205108     1.013666967299     0.139698177058    12.000000000000
         C           -1.199487794892    -0.119693032701     1.044514177058    12.000000000000
         C            0.864084205108    -1.393298032701     0.404686177058    12.000000000000
         C            2.203826205108     0.913206967299    -0.337242822942    12.000000000000
         C            0.199701205108     2.351209967299     0.214487177058    12.000000000000
         C            2.168252205108    -1.481669032701    -0.083006822942    12.000000000000
         C            2.848784205108    -0.320427032701    -0.453068822942    12.000000000000
         C           -2.122332494892    -0.420903132701    -0.107842222942    12.000000000000
         H           -1.374254794892    -0.966995032701     1.716322177058     1.007825032230
         H           -1.402945794892     0.810099967299     1.585339177058     1.007825032230
         H            0.314074205108    -2.294303032701     0.669608177058     1.007825032230
         H            2.722255205108     1.821566967299    -0.646769822942     1.007825032230
         H           -0.810726794892     2.257721967299    -0.197161822942     1.007825032230
         H            0.111897205108     2.698792967299     1.252250177058     1.007825032230
         H            0.762946205108     3.106138967299    -0.345329822942     1.007825032230
         H            2.646571205108    -2.454965032701    -0.185456822942     1.007825032230
         H            3.868632205108    -0.372656032701    -0.831747822942     1.007825032230

  Basis Set: AUG-CC-PVTZ
    Blend: AUG-CC-PVTZ
  Basis Set: (AUG-CC-PVTZ AUX)
    Blend: AUG-CC-PVTZ-JKFIT
	 Reference Energy          =    -495.9457538251289179 [Eh]
	 Singles Energy            =      -0.0000000000000000 [Eh]
	 Same-Spin Energy          =      -0.5342825169762511 [Eh]
	 Opposite-Spin Energy      =      -1.6388103328544013 [Eh]
	 Correlation Energy        =      -2.1730928498306525 [Eh]
	 Total Energy              =    -498.1188466749595705 [Eh]

	 ================> DF-SCS-MP2 Energies <==================
	-----------------------------------------------------------
	 SCS Same-Spin Scale       =       0.3333333333333333 [-]
	 SCS Opposite-Spin Scale   =       1.2000000000000000 [-]
	 SCS Same-Spin Energy      =      -0.1780941723254170 [Eh]
	 SCS Opposite-Spin Energy  =      -1.9665723994252815 [Eh]
	 SCS Correlation Energy    =      -2.1446665717506983 [Eh]
	 SCS Total Energy          =    -498.0904203968796082 [Eh]
	-----------------------------------------------------------

  Dipole Moment: [D]
     X:     9.0791      Y:    -0.3301      Z:     3.4469     Total:     9.7170

*** Psi4 exiting successfully. Buy a developer a beer!
