                               Psi4 1.4a3.dev225

  ==> Input File <==

--------------------------------------------------------------------------
#psi4
#
memory 32 gb

molecule  {
-1 1
  O       -2.5032377    -1.4577446    -0.5678518
  O       -2.5836320     0.8103810    -0.7086120
  C        0.1769840    -0.1996970     0.5360780
  C        0.8528670     0.9715620     0.1268880
  C       -1.2378850    -0.1617980     1.0317040
  C        0.8256870    -1.4354030     0.3918760
  C        2.1654290     0.8711020    -0.3500530
  C        0.1613040     2.3091050     0.2016770
  C        2.1298550    -1.5237740    -0.0958170
  C        2.8103870    -0.3625320    -0.4658790
  C       -2.2184660    -0.2891600    -0.2009230
  H       -1.4126520    -1.0091000     1.7035120
  H       -1.4413430     0.7679950     1.5725290
  H        0.2756770    -2.3364080     0.6567980
  H        2.6838580     1.7794620    -0.6595800
  H       -0.8491240     2.2156170    -0.2099720
  H        0.0735000     2.6566880     1.2394400
  H        0.7245490     3.0640340    -0.3581400
  H        2.6081740    -2.4970700    -0.1982670
  H        3.8302350    -0.4147610    -0.8445580
units angstrom
no_reorient  #important for SAPT in psi4, default
symmetry c1  #important for SAPT in psi4, default
}

set PROPERTIES_ORIGIN ["COM"]
properties('MP2/aug-cc-pvtz', properties = ['dipole'])
--------------------------------------------------------------------------

    Molecular point group: c1
  Charge       = -1
  Multiplicity = 1
  Basis Set: AUG-CC-PVTZ
    Blend: AUG-CC-PVTZ
  Basis Set: (AUG-CC-PVTZ AUX)
    Blend: AUG-CC-PVTZ-JKFIT

    Orbital Energies [Eh]
    ---------------------

    Doubly Occupied:

       1A    -20.307584     2A    -20.306356     3A    -11.155641
       4A    -11.119167     5A    -11.117950     6A    -11.116782
       7A    -11.115319     8A    -11.113661     9A    -11.107934
      10A    -11.092485    11A    -11.076187    12A     -1.178697
      13A     -1.079530    14A     -1.033027    15A     -0.927742
      16A     -0.908721    17A     -0.822104    18A     -0.788803
      19A     -0.690725    20A     -0.665083    21A     -0.562956
      22A     -0.533121    23A     -0.523963    24A     -0.500443
      25A     -0.461467    26A     -0.454005    27A     -0.440325
      28A     -0.428451    29A     -0.425663    30A     -0.412809
      31A     -0.383750    32A     -0.374711    33A     -0.365281
      34A     -0.352268    35A     -0.333036    36A     -0.235816
      37A     -0.222618    38A     -0.210358    39A     -0.206199
      40A     -0.177779

  @DF-RHF Final Energy:  -495.99732998195361

   => Energetics <=

    Nuclear Repulsion Energy =            571.7299171883397548
    One-Electron Energy =               -1822.7974576630299453
    Two-Electron Energy =                 755.0702104927366918
    Total Energy =                       -495.9973299819536123
  Basis Set: (AUG-CC-PVTZ AUX)
    Blend: AUG-CC-PVTZ-RI
    Molecular point group: c1

    Geometry (in Angstrom), charge = -1, multiplicity = 1:

       Center              X                  Y                   Z               Mass
    ------------   -----------------  -----------------  -----------------  -----------------
         O           -2.457441309771    -1.431298003890    -0.545137166072    15.994914619570
         O           -2.537835609771     0.836827596110    -0.685897366072    15.994914619570
         C            0.222780390229    -0.173250403890     0.558792633928    12.000000000000
         C            0.898663390229     0.998008596110     0.149602633928    12.000000000000
         C           -1.192088609771    -0.135351403890     1.054418633928    12.000000000000
         C            0.871483390229    -1.408956403890     0.414590633928    12.000000000000
         C            2.211225390229     0.897548596110    -0.327338366072    12.000000000000
         C            0.207100390229     2.335551596110     0.224391633928    12.000000000000
         C            2.175651390229    -1.497327403890    -0.073102366072    12.000000000000
         C            2.856183390229    -0.336085403890    -0.443164366072    12.000000000000
         C           -2.172669609771    -0.262713403890    -0.178208366072    12.000000000000
         H           -1.366855609771    -0.982653403890     1.726226633928     1.007825032230
         H           -1.395546609771     0.794441596110     1.595243633928     1.007825032230
         H            0.321473390229    -2.309961403890     0.679512633928     1.007825032230
         H            2.729654390229     1.805908596110    -0.636865366072     1.007825032230
         H           -0.803327609771     2.242063596110    -0.187257366072     1.007825032230
         H            0.119296390229     2.683134596110     1.262154633928     1.007825032230
         H            0.770345390229     3.090480596110    -0.335425366072     1.007825032230
         H            2.653970390229    -2.470623403890    -0.175552366072     1.007825032230
         H            3.876031390229    -0.388314403890    -0.821843366072     1.007825032230

  Basis Set: AUG-CC-PVTZ
    Blend: AUG-CC-PVTZ
  Basis Set: (AUG-CC-PVTZ AUX)
    Blend: AUG-CC-PVTZ-JKFIT
	 Reference Energy          =    -495.9973299819536123 [Eh]
	 Singles Energy            =      -0.0000000000000000 [Eh]
	 Same-Spin Energy          =      -0.5328955659623709 [Eh]
	 Opposite-Spin Energy      =      -1.6353557249031359 [Eh]
	 Correlation Energy        =      -2.1682512908655065 [Eh]
	 Total Energy              =    -498.1655812728191108 [Eh]

	 ================> DF-SCS-MP2 Energies <==================
	-----------------------------------------------------------
	 SCS Same-Spin Scale       =       0.3333333333333333 [-]
	 SCS Opposite-Spin Scale   =       1.2000000000000000 [-]
	 SCS Same-Spin Energy      =      -0.1776318553207903 [Eh]
	 SCS Opposite-Spin Energy  =      -1.9624268698837630 [Eh]
	 SCS Correlation Energy    =      -2.1400587252045531 [Eh]
	 SCS Total Energy          =    -498.1373887071581521 [Eh]
	-----------------------------------------------------------

  Dipole Moment: [D]
     X:     8.5961      Y:     1.3762      Z:     3.0548     Total:     9.2260

*** Psi4 exiting successfully. Buy a developer a beer!
