                               Psi4 1.4a3.dev225

  ==> Input File <==

--------------------------------------------------------------------------
#psi4
#
memory 32 gb

molecule  {
-1 1
  O       -2.4775990    -1.4732410    -0.5357720
  O       -2.5836320     0.8103810    -0.7086120
  C        0.1769840    -0.1996970     0.5360780
  C        0.8528670     0.9715620     0.1268880
  C       -1.2378850    -0.1617980     1.0317040
  C        0.8256870    -1.4354030     0.3918760
  C        2.1654290     0.8711020    -0.3500530
  C        0.1613040     2.3091050     0.2016770
  C        2.1298550    -1.5237740    -0.0958170
  C        2.8103870    -0.3625320    -0.4658790
  C       -2.0943600    -0.2730406    -0.0449171
  H       -1.4126520    -1.0091000     1.7035120
  H       -1.4413430     0.7679950     1.5725290
  H        0.2756770    -2.3364080     0.6567980
  H        2.6838580     1.7794620    -0.6595800
  H       -0.8491240     2.2156170    -0.2099720
  H        0.0735000     2.6566880     1.2394400
  H        0.7245490     3.0640340    -0.3581400
  H        2.6081740    -2.4970700    -0.1982670
  H        3.8302350    -0.4147610    -0.8445580
units angstrom
no_reorient  #important for SAPT in psi4, default
symmetry c1  #important for SAPT in psi4, default
}

set PROPERTIES_ORIGIN ["COM"]
properties('MP2/aug-cc-pvtz', properties = ['dipole'])
--------------------------------------------------------------------------

    Molecular point group: c1
  Charge       = -1
  Multiplicity = 1
  Basis Set: AUG-CC-PVTZ
    Blend: AUG-CC-PVTZ
  Basis Set: (AUG-CC-PVTZ AUX)
    Blend: AUG-CC-PVTZ-JKFIT

    Orbital Energies [Eh]
    ---------------------

    Doubly Occupied:

       1A    -20.300721     2A    -20.300638     3A    -11.160125
       4A    -11.126776     5A    -11.126513     6A    -11.123784
       7A    -11.122285     8A    -11.120864     9A    -11.116583
      10A    -11.095821    11A    -11.086087    12A     -1.128452
      13A     -1.040796    14A     -1.018291    15A     -0.942728
      16A     -0.920285    17A     -0.849777    18A     -0.805505
      19A     -0.701815    20A     -0.678290    21A     -0.578917
      22A     -0.552437    23A     -0.534191    24A     -0.510149
      25A     -0.466489    26A     -0.457317    27A     -0.446610
      28A     -0.440300    29A     -0.422902    30A     -0.415372
      31A     -0.377320    32A     -0.370779    33A     -0.367213
      34A     -0.332207    35A     -0.295666    36A     -0.238543
      37A     -0.216243    38A     -0.201026    39A     -0.193249
      40A     -0.181874

  @DF-RHF Final Energy:  -495.94176559418247

   => Energetics <=

    Nuclear Repulsion Energy =            572.7981001630680566
    One-Electron Energy =               -1824.7498579415591848
    Two-Electron Energy =                 756.0099921843086577
    Total Energy =                       -495.9417655941824705
  Basis Set: (AUG-CC-PVTZ AUX)
    Blend: AUG-CC-PVTZ-RI
    Molecular point group: c1

    Geometry (in Angstrom), charge = -1, multiplicity = 1:

       Center              X                  Y                   Z               Mass
    ------------   -----------------  -----------------  -----------------  -----------------
         O           -2.444544844939    -1.446429244210    -0.529058844599    15.994914619570
         O           -2.550577844939     0.837192755790    -0.701898844599    15.994914619570
         C            0.210038155061    -0.172885244210     0.542791155401    12.000000000000
         C            0.885921155061     0.998373755790     0.133601155401    12.000000000000
         C           -1.204830844939    -0.134986244210     1.038417155401    12.000000000000
         C            0.858741155061    -1.408591244210     0.398589155401    12.000000000000
         C            2.198483155061     0.897913755790    -0.343339844599    12.000000000000
         C            0.194358155061     2.335916755790     0.208390155401    12.000000000000
         C            2.162909155061    -1.496962244210    -0.089103844599    12.000000000000
         C            2.843441155061    -0.335720244210    -0.459165844599    12.000000000000
         C           -2.061305844939    -0.246228844210    -0.038203944599    12.000000000000
         H           -1.379597844939    -0.982288244210     1.710225155401     1.007825032230
         H           -1.408288844939     0.794806755790     1.579242155401     1.007825032230
         H            0.308731155061    -2.309596244210     0.663511155401     1.007825032230
         H            2.716912155061     1.806273755790    -0.652866844599     1.007825032230
         H           -0.816069844939     2.242428755790    -0.203258844599     1.007825032230
         H            0.106554155061     2.683499755790     1.246153155401     1.007825032230
         H            0.757603155061     3.090845755790    -0.351426844599     1.007825032230
         H            2.641228155061    -2.470258244210    -0.191553844599     1.007825032230
         H            3.863289155061    -0.387949244210    -0.837844844599     1.007825032230

  Basis Set: AUG-CC-PVTZ
    Blend: AUG-CC-PVTZ
  Basis Set: (AUG-CC-PVTZ AUX)
    Blend: AUG-CC-PVTZ-JKFIT
	 Reference Energy          =    -495.9417655941824705 [Eh]
	 Singles Energy            =      -0.0000000000000000 [Eh]
	 Same-Spin Energy          =      -0.5378819606951402 [Eh]
	 Opposite-Spin Energy      =      -1.6461898722530797 [Eh]
	 Correlation Energy        =      -2.1840718329482200 [Eh]
	 Total Energy              =    -498.1258374271307048 [Eh]

	 ================> DF-SCS-MP2 Energies <==================
	-----------------------------------------------------------
	 SCS Same-Spin Scale       =       0.3333333333333333 [-]
	 SCS Opposite-Spin Scale   =       1.2000000000000000 [-]
	 SCS Same-Spin Energy      =      -0.1792939868983801 [Eh]
	 SCS Opposite-Spin Energy  =      -1.9754278467036954 [Eh]
	 SCS Correlation Energy    =      -2.1547218336020753 [Eh]
	 SCS Total Energy          =    -498.0964874277845524 [Eh]
	-----------------------------------------------------------

  Dipole Moment: [D]
     X:     9.6340      Y:     1.4960      Z:     3.6694     Total:    10.4171

*** Psi4 exiting successfully. Buy a developer a beer!
