                               Psi4 1.4a3.dev225

  ==> Input File <==

--------------------------------------------------------------------------
#psi4
#
memory 32 gb

molecule  {
-1 1
  O       -2.4775990    -1.4732410    -0.5357720
  O       -2.5836320     0.8103810    -0.7086120
  C        0.1769840    -0.1996970     0.5360780
  C        0.8528670     0.9715620     0.1268880
  C       -1.2378850    -0.1617980     1.0317040
  C        0.8256870    -1.4354030     0.3918760
  C        2.1654290     0.8711020    -0.3500530
  C        0.1613040     2.3091050     0.2016770
  C        2.1298550    -1.5237740    -0.0958170
  C        2.8103870    -0.3625320    -0.4658790
  C       -2.2184660    -0.2891600    -0.2009230
  H       -1.4126520    -1.0091000     1.7035120
  H       -1.4413430     0.7679950     1.5725290
  H        0.2756770    -2.3364080     0.6567980
  H        2.6838580     1.7794620    -0.6595800
  H       -0.8491240     2.2156170    -0.2099720
  H        0.0814971     2.6250303     1.1449210
  H        0.7245490     3.0640340    -0.3581400
  H        2.6081740    -2.4970700    -0.1982670
  H        3.8302350    -0.4147610    -0.8445580
units angstrom
no_reorient  #important for SAPT in psi4, default
symmetry c1  #important for SAPT in psi4, default
}

set PROPERTIES_ORIGIN ["COM"]
properties('MP2/aug-cc-pvtz', properties = ['dipole'])
--------------------------------------------------------------------------

    Molecular point group: c1
  Charge       = -1
  Multiplicity = 1
  Basis Set: AUG-CC-PVTZ
    Blend: AUG-CC-PVTZ
  Basis Set: (AUG-CC-PVTZ AUX)
    Blend: AUG-CC-PVTZ-JKFIT

    Orbital Energies [Eh]
    ---------------------

    Doubly Occupied:

       1A    -20.308939     2A    -20.308842     3A    -11.156727
       4A    -11.118024     5A    -11.116410     6A    -11.115588
       7A    -11.114013     8A    -11.112235     9A    -11.106653
      10A    -11.079164    11A    -11.073786    12A     -1.179053
      13A     -1.083192    14A     -1.031976    15A     -0.928227
      16A     -0.908174    17A     -0.825821    18A     -0.790707
      19A     -0.689942    20A     -0.665810    21A     -0.562827
      22A     -0.533287    23A     -0.522787    24A     -0.499684
      25A     -0.470746    26A     -0.454807    27A     -0.440280
      28A     -0.431456    29A     -0.427196    30A     -0.411331
      31A     -0.384060    32A     -0.375054    33A     -0.365400
      34A     -0.351325    35A     -0.332732    36A     -0.234963
      37A     -0.225416    38A     -0.211212    39A     -0.207024
      40A     -0.176009

  @DF-RHF Final Energy:  -495.99136424707422

   => Energetics <=

    Nuclear Repulsion Energy =            572.5157649904347181
    One-Electron Energy =               -1824.3525044173397873
    Two-Electron Energy =                 755.8453751798308531
    Total Energy =                       -495.9913642470742161
  Basis Set: (AUG-CC-PVTZ AUX)
    Blend: AUG-CC-PVTZ-RI
    Molecular point group: c1

    Geometry (in Angstrom), charge = -1, multiplicity = 1:

       Center              X                  Y                   Z               Mass
    ------------   -----------------  -----------------  -----------------  -----------------
         O           -2.434607841094    -1.444917518477    -0.515860628747    15.994914619570
         O           -2.540640841094     0.838704481523    -0.688700628747    15.994914619570
         C            0.219975158906    -0.171373518477     0.555989371253    12.000000000000
         C            0.895858158906     0.999885481523     0.146799371253    12.000000000000
         C           -1.194893841094    -0.133474518477     1.051615371253    12.000000000000
         C            0.868678158906    -1.407079518477     0.411787371253    12.000000000000
         C            2.208420158906     0.899425481523    -0.330141628747    12.000000000000
         C            0.204295158906     2.337428481523     0.221588371253    12.000000000000
         C            2.172846158906    -1.495450518477    -0.075905628747    12.000000000000
         C            2.853378158906    -0.334208518477    -0.445967628747    12.000000000000
         C           -2.175474841094    -0.260836518477    -0.181011628747    12.000000000000
         H           -1.369660841094    -0.980776518477     1.723423371253     1.007825032230
         H           -1.398351841094     0.796318481523     1.592440371253     1.007825032230
         H            0.318668158906    -2.308084518477     0.676709371253     1.007825032230
         H            2.726849158906     1.807785481523    -0.639668628747     1.007825032230
         H           -0.806132841094     2.243940481523    -0.190060628747     1.007825032230
         H            0.124488258906     2.653353781523     1.164832371253     1.007825032230
         H            0.767540158906     3.092357481523    -0.338228628747     1.007825032230
         H            2.651165158906    -2.468746518477    -0.178355628747     1.007825032230
         H            3.873226158906    -0.386437518477    -0.824646628747     1.007825032230

  Basis Set: AUG-CC-PVTZ
    Blend: AUG-CC-PVTZ
  Basis Set: (AUG-CC-PVTZ AUX)
    Blend: AUG-CC-PVTZ-JKFIT
	 Reference Energy          =    -495.9913642470742161 [Eh]
	 Singles Energy            =      -0.0000000000000000 [Eh]
	 Same-Spin Energy          =      -0.5330387137720958 [Eh]
	 Opposite-Spin Energy      =      -1.6350450226120747 [Eh]
	 Correlation Energy        =      -2.1680837363841707 [Eh]
	 Total Energy              =    -498.1594479834583922 [Eh]

	 ================> DF-SCS-MP2 Energies <==================
	-----------------------------------------------------------
	 SCS Same-Spin Scale       =       0.3333333333333333 [-]
	 SCS Opposite-Spin Scale   =       1.2000000000000000 [-]
	 SCS Same-Spin Energy      =      -0.1776795712573652 [Eh]
	 SCS Opposite-Spin Energy  =      -1.9620540271344895 [Eh]
	 SCS Correlation Energy    =      -2.1397335983918548 [Eh]
	 SCS Total Energy          =    -498.1310978454660585 [Eh]
	-----------------------------------------------------------

  Dipole Moment: [D]
     X:     8.4687      Y:     1.4441      Z:     3.0203     Total:     9.1064

*** Psi4 exiting successfully. Buy a developer a beer!
