                               Psi4 1.4a3.dev225

  ==> Input File <==

--------------------------------------------------------------------------
#psi4
#
memory 32 gb

molecule  {
-1 1
  O       -2.4775990    -1.4732410    -0.5357720
  O       -2.5836320     0.8103810    -0.7086120
  C        0.1769840    -0.1996970     0.5360780
  C        0.9371358     1.0168193     0.1707487
  C       -1.2378850    -0.1617980     1.0317040
  C        0.8256870    -1.4354030     0.3918760
  C        2.1654290     0.8711020    -0.3500530
  C        0.1613040     2.3091050     0.2016770
  C        2.1298550    -1.5237740    -0.0958170
  C        2.8103870    -0.3625320    -0.4658790
  C       -2.2184660    -0.2891600    -0.2009230
  H       -1.4126520    -1.0091000     1.7035120
  H       -1.4413430     0.7679950     1.5725290
  H        0.2756770    -2.3364080     0.6567980
  H        2.6838580     1.7794620    -0.6595800
  H       -0.8491240     2.2156170    -0.2099720
  H        0.0735000     2.6566880     1.2394400
  H        0.7245490     3.0640340    -0.3581400
  H        2.6081740    -2.4970700    -0.1982670
  H        3.8302350    -0.4147610    -0.8445580
units angstrom
no_reorient  #important for SAPT in psi4, default
symmetry c1  #important for SAPT in psi4, default
}

set PROPERTIES_ORIGIN ["COM"]
properties('MP2/aug-cc-pvtz', properties = ['dipole'])
--------------------------------------------------------------------------

    Molecular point group: c1
  Charge       = -1
  Multiplicity = 1
  Basis Set: AUG-CC-PVTZ
    Blend: AUG-CC-PVTZ
  Basis Set: (AUG-CC-PVTZ AUX)
    Blend: AUG-CC-PVTZ-JKFIT

    Orbital Energies [Eh]
    ---------------------

    Doubly Occupied:

       1A    -20.310014     2A    -20.309711     3A    -11.157954
       4A    -11.120895     5A    -11.117942     6A    -11.116991
       7A    -11.116558     8A    -11.108494     9A    -11.103884
      10A    -11.093199    11A    -11.075500    12A     -1.179972
      13A     -1.084124    14A     -1.031886    15A     -0.923830
      16A     -0.912745    17A     -0.822716    18A     -0.788886
      19A     -0.679988    20A     -0.670045    21A     -0.562457
      22A     -0.533622    23A     -0.521811    24A     -0.498945
      25A     -0.461831    26A     -0.455185    27A     -0.437683
      28A     -0.430014    29A     -0.428071    30A     -0.412863
      31A     -0.389333    32A     -0.374309    33A     -0.365657
      34A     -0.341851    35A     -0.334697    36A     -0.233910
      37A     -0.225845    38A     -0.216257    39A     -0.210233
      40A     -0.171875

  @DF-RHF Final Energy:  -495.98926243578711

   => Energetics <=

    Nuclear Repulsion Energy =            571.2405535584025529
    One-Electron Energy =               -1821.7960620228375319
    Two-Electron Energy =                 754.5662460286479245
    Total Energy =                       -495.9892624357870545
  Basis Set: (AUG-CC-PVTZ AUX)
    Blend: AUG-CC-PVTZ-RI
    Molecular point group: c1

    Geometry (in Angstrom), charge = -1, multiplicity = 1:

       Center              X                  Y                   Z               Mass
    ------------   -----------------  -----------------  -----------------  -----------------
         O           -2.441337776754    -1.448774972124    -0.520030667341    15.994914619570
         O           -2.547370776754     0.834847027876    -0.692870667341    15.994914619570
         C            0.213245223246    -0.175230972124     0.551819332659    12.000000000000
         C            0.973397023246     1.041285327876     0.186490032659    12.000000000000
         C           -1.201623776754    -0.137331972124     1.047445332659    12.000000000000
         C            0.861948223246    -1.410936972124     0.407617332659    12.000000000000
         C            2.201690223246     0.895568027876    -0.334311667341    12.000000000000
         C            0.197565223246     2.333571027876     0.217418332659    12.000000000000
         C            2.166116223246    -1.499307972124    -0.080075667341    12.000000000000
         C            2.846648223246    -0.338065972124    -0.450137667341    12.000000000000
         C           -2.182204776754    -0.264693972124    -0.185181667341    12.000000000000
         H           -1.376390776754    -0.984633972124     1.719253332659     1.007825032230
         H           -1.405081776754     0.792461027876     1.588270332659     1.007825032230
         H            0.311938223246    -2.311941972124     0.672539332659     1.007825032230
         H            2.720119223246     1.803928027876    -0.643838667341     1.007825032230
         H           -0.812862776754     2.240083027876    -0.194230667341     1.007825032230
         H            0.109761223246     2.681154027876     1.255181332659     1.007825032230
         H            0.760810223246     3.088500027876    -0.342398667341     1.007825032230
         H            2.644435223246    -2.472603972124    -0.182525667341     1.007825032230
         H            3.866496223246    -0.390294972124    -0.828816667341     1.007825032230

  Basis Set: AUG-CC-PVTZ
    Blend: AUG-CC-PVTZ
  Basis Set: (AUG-CC-PVTZ AUX)
    Blend: AUG-CC-PVTZ-JKFIT
	 Reference Energy          =    -495.9892624357871114 [Eh]
	 Singles Energy            =      -0.0000000000000000 [Eh]
	 Same-Spin Energy          =      -0.5328942090065165 [Eh]
	 Opposite-Spin Energy      =      -1.6358588601414770 [Eh]
	 Correlation Energy        =      -2.1687530691479937 [Eh]
	 Total Energy              =    -498.1580155049351220 [Eh]

	 ================> DF-SCS-MP2 Energies <==================
	-----------------------------------------------------------
	 SCS Same-Spin Scale       =       0.3333333333333333 [-]
	 SCS Opposite-Spin Scale   =       1.2000000000000000 [-]
	 SCS Same-Spin Energy      =      -0.1776314030021722 [Eh]
	 SCS Opposite-Spin Energy  =      -1.9630306321697724 [Eh]
	 SCS Correlation Energy    =      -2.1406620351719443 [Eh]
	 SCS Total Energy          =    -498.1299244709590539 [Eh]
	-----------------------------------------------------------

  Dipole Moment: [D]
     X:     8.4345      Y:     1.3877      Z:     2.9777     Total:     9.0517

*** Psi4 exiting successfully. Buy a developer a beer!
