                               Psi4 1.4a3.dev225

  ==> Input File <==

--------------------------------------------------------------------------
#psi4
#
memory 32 gb

molecule  {
-1 1
  O       -2.4775990    -1.4732410    -0.5357720
  O       -2.5836320     0.8103810    -0.7086120
  C        0.1769840    -0.1996970     0.5360780
  C        0.8528670     0.9715620     0.1268880
  C       -1.2378850    -0.1617980     1.0317040
  C        0.8256870    -1.4354030     0.3918760
  C        2.1654290     0.8711020    -0.3500530
  C        0.1613040     2.3091050     0.2016770
  C        2.1298550    -1.5237740    -0.0958170
  C        2.7314927    -0.3119134    -0.4392972
  C       -2.2184660    -0.2891600    -0.2009230
  H       -1.4126520    -1.0091000     1.7035120
  H       -1.4413430     0.7679950     1.5725290
  H        0.2756770    -2.3364080     0.6567980
  H        2.6838580     1.7794620    -0.6595800
  H       -0.8491240     2.2156170    -0.2099720
  H        0.0735000     2.6566880     1.2394400
  H        0.7245490     3.0640340    -0.3581400
  H        2.6081740    -2.4970700    -0.1982670
  H        3.8302350    -0.4147610    -0.8445580
units angstrom
no_reorient  #important for SAPT in psi4, default
symmetry c1  #important for SAPT in psi4, default
}

set PROPERTIES_ORIGIN ["COM"]
properties('MP2/aug-cc-pvtz', properties = ['dipole'])
--------------------------------------------------------------------------

    Molecular point group: c1
  Charge       = -1
  Multiplicity = 1
  Basis Set: AUG-CC-PVTZ
    Blend: AUG-CC-PVTZ
  Basis Set: (AUG-CC-PVTZ AUX)
    Blend: AUG-CC-PVTZ-JKFIT

    Orbital Energies [Eh]
    ---------------------

    Doubly Occupied:

       1A    -20.308627     2A    -20.308519     3A    -11.156151
       4A    -11.117728     5A    -11.116915     6A    -11.114806
       7A    -11.110098     8A    -11.108039     9A    -11.105652
      10A    -11.092100    11A    -11.072930    12A     -1.178719
      13A     -1.082881    14A     -1.041176    15A     -0.927817
      16A     -0.914071    17A     -0.826583    18A     -0.783734
      19A     -0.690800    20A     -0.661745    21A     -0.563138
      22A     -0.531114    23A     -0.527954    24A     -0.494501
      25A     -0.462497    26A     -0.460767    27A     -0.433034
      28A     -0.427692    29A     -0.425375    30A     -0.411685
      31A     -0.384622    32A     -0.373319    33A     -0.362933
      34A     -0.355525    35A     -0.328985    36A     -0.238326
      37A     -0.225236    38A     -0.212714    39A     -0.208413
      40A     -0.175502

  @DF-RHF Final Energy:  -495.98526164534240

   => Energetics <=

    Nuclear Repulsion Energy =            573.8640278564935215
    One-Electron Energy =               -1827.0537377286386800
    Two-Electron Energy =                 757.2044482268028105
    Total Energy =                       -495.9852616453423479
  Basis Set: (AUG-CC-PVTZ AUX)
    Blend: AUG-CC-PVTZ-RI
    Molecular point group: c1

    Geometry (in Angstrom), charge = -1, multiplicity = 1:

       Center              X                  Y                   Z               Mass
    ------------   -----------------  -----------------  -----------------  -----------------
         O           -2.428202436242    -1.449206580135    -0.518639640600    15.994914619570
         O           -2.534235436242     0.834415419865    -0.691479640600    15.994914619570
         C            0.226380563758    -0.175662580135     0.553210359400    12.000000000000
         C            0.902263563758     0.995596419865     0.144020359400    12.000000000000
         C           -1.188488436242    -0.137763580135     1.048836359400    12.000000000000
         C            0.875083563758    -1.411368580135     0.409008359400    12.000000000000
         C            2.214825563758     0.895136419865    -0.332920640600    12.000000000000
         C            0.210700563758     2.333139419865     0.218809359400    12.000000000000
         C            2.179251563758    -1.499739580135    -0.078684640600    12.000000000000
         C            2.780889263758    -0.287878980135    -0.422164840600    12.000000000000
         C           -2.169069436242    -0.265125580135    -0.183790640600    12.000000000000
         H           -1.363255436242    -0.985065580135     1.720644359400     1.007825032230
         H           -1.391946436242     0.792029419865     1.589661359400     1.007825032230
         H            0.325073563758    -2.312373580135     0.673930359400     1.007825032230
         H            2.733254563758     1.803496419865    -0.642447640600     1.007825032230
         H           -0.799727436242     2.239651419865    -0.192839640600     1.007825032230
         H            0.122896563758     2.680722419865     1.256572359400     1.007825032230
         H            0.773945563758     3.088068419865    -0.341007640600     1.007825032230
         H            2.657570563758    -2.473035580135    -0.181134640600     1.007825032230
         H            3.879631563758    -0.390726580135    -0.827425640600     1.007825032230

  Basis Set: AUG-CC-PVTZ
    Blend: AUG-CC-PVTZ
  Basis Set: (AUG-CC-PVTZ AUX)
    Blend: AUG-CC-PVTZ-JKFIT
	 Reference Energy          =    -495.9852616453424048 [Eh]
	 Singles Energy            =      -0.0000000000000000 [Eh]
	 Same-Spin Energy          =      -0.5331843205520967 [Eh]
	 Opposite-Spin Energy      =      -1.6356414570609306 [Eh]
	 Correlation Energy        =      -2.1688257776130273 [Eh]
	 Total Energy              =    -498.1540874229554561 [Eh]

	 ================> DF-SCS-MP2 Energies <==================
	-----------------------------------------------------------
	 SCS Same-Spin Scale       =       0.3333333333333333 [-]
	 SCS Opposite-Spin Scale   =       1.2000000000000000 [-]
	 SCS Same-Spin Energy      =      -0.1777281068506989 [Eh]
	 SCS Opposite-Spin Energy  =      -1.9627697484731166 [Eh]
	 SCS Correlation Energy    =      -2.1404978553238156 [Eh]
	 SCS Total Energy          =    -498.1257595006662200 [Eh]
	-----------------------------------------------------------

  Dipole Moment: [D]
     X:     8.4503      Y:     1.4002      Z:     2.9961     Total:     9.0744

*** Psi4 exiting successfully. Buy a developer a beer!
