                               Psi4 1.4a3.dev225

  ==> Input File <==

--------------------------------------------------------------------------
#psi4
#
memory 32 gb

molecule  {
-1 1
  O       -2.4775990    -1.4732410    -0.5357720
  O       -2.5836320     0.8103810    -0.7086120
  C        0.1769840    -0.1996970     0.5360780
  C        0.8528670     0.9715620     0.1268880
  C       -1.2378850    -0.1617980     1.0317040
  C        0.8256870    -1.4354030     0.3918760
  C        2.1654290     0.8711020    -0.3500530
  C        0.1613040     2.3091050     0.2016770
  C        2.1298550    -1.5237740    -0.0958170
  C        2.8103870    -0.3625320    -0.4658790
  C       -2.2184660    -0.2891600    -0.2009230
  H       -1.4126520    -1.0091000     1.7035120
  H       -1.4413430     0.7679950     1.5725290
  H        0.2756770    -2.3364080     0.6567980
  H        2.6838580     1.7794620    -0.6595800
  H       -0.8491240     2.2156170    -0.2099720
  H        0.0655029     2.6883457     1.3339590
  H        0.7245490     3.0640340    -0.3581400
  H        2.6081740    -2.4970700    -0.1982670
  H        3.8302350    -0.4147610    -0.8445580
units angstrom
no_reorient  #important for SAPT in psi4, default
symmetry c1  #important for SAPT in psi4, default
}

set PROPERTIES_ORIGIN ["COM"]
properties('MP2/aug-cc-pvtz', properties = ['dipole'])
--------------------------------------------------------------------------

    Molecular point group: c1
  Charge       = -1
  Multiplicity = 1
  Basis Set: AUG-CC-PVTZ
    Blend: AUG-CC-PVTZ
  Basis Set: (AUG-CC-PVTZ AUX)
    Blend: AUG-CC-PVTZ-JKFIT

    Orbital Energies [Eh]
    ---------------------

    Doubly Occupied:

       1A    -20.309561     2A    -20.309294     3A    -11.157230
       4A    -11.119022     5A    -11.118182     6A    -11.116843
       7A    -11.115643     8A    -11.113469     9A    -11.107442
      10A    -11.104718    11A    -11.073707    12A     -1.179559
      13A     -1.083711    14A     -1.032781    15A     -0.926510
      16A     -0.907855    17A     -0.818575    18A     -0.785361
      19A     -0.690173    20A     -0.663380    21A     -0.562372
      22A     -0.533176    23A     -0.523901    24A     -0.500198
      25A     -0.458830    26A     -0.450139    27A     -0.439973
      28A     -0.428193    29A     -0.417947    30A     -0.413799
      31A     -0.384635    32A     -0.374335    33A     -0.363174
      34A     -0.352041    35A     -0.333196    36A     -0.235481
      37A     -0.225824    38A     -0.211597    39A     -0.207367
      40A     -0.176619

  @DF-RHF Final Energy:  -495.99096805112839

   => Energetics <=

    Nuclear Repulsion Energy =            571.5819702765899137
    One-Electron Energy =               -1822.4942452117186349
    Two-Electron Energy =                 754.9213068840001597
    Total Energy =                       -495.9909680511284478
  Basis Set: (AUG-CC-PVTZ AUX)
    Blend: AUG-CC-PVTZ-RI
    Molecular point group: c1

    Geometry (in Angstrom), charge = -1, multiplicity = 1:

       Center              X                  Y                   Z               Mass
    ------------   -----------------  -----------------  -----------------  -----------------
         O           -2.434499701233    -1.445345606066    -0.517138751001    15.994914619570
         O           -2.540532701233     0.838276393934    -0.689978751001    15.994914619570
         C            0.220083298767    -0.171801606066     0.554711248999    12.000000000000
         C            0.895966298767     0.999457393934     0.145521248999    12.000000000000
         C           -1.194785701233    -0.133902606066     1.050337248999    12.000000000000
         C            0.868786298767    -1.407507606066     0.410509248999    12.000000000000
         C            2.208528298767     0.898997393934    -0.331419751001    12.000000000000
         C            0.204403298767     2.337000393934     0.220310248999    12.000000000000
         C            2.172954298767    -1.495878606066    -0.077183751001    12.000000000000
         C            2.853486298767    -0.334636606066    -0.447245751001    12.000000000000
         C           -2.175366701233    -0.261264606066    -0.182289751001    12.000000000000
         H           -1.369552701233    -0.981204606066     1.722145248999     1.007825032230
         H           -1.398243701233     0.795890393934     1.591162248999     1.007825032230
         H            0.318776298767    -2.308512606066     0.675431248999     1.007825032230
         H            2.726957298767     1.807357393934    -0.640946751001     1.007825032230
         H           -0.806024701233     2.243512393934    -0.191338751001     1.007825032230
         H            0.108602198767     2.716241093934     1.352592248999     1.007825032230
         H            0.767648298767     3.091929393934    -0.339506751001     1.007825032230
         H            2.651273298767    -2.469174606066    -0.179633751001     1.007825032230
         H            3.873334298767    -0.386865606066    -0.825924751001     1.007825032230

  Basis Set: AUG-CC-PVTZ
    Blend: AUG-CC-PVTZ
  Basis Set: (AUG-CC-PVTZ AUX)
    Blend: AUG-CC-PVTZ-JKFIT
	 Reference Energy          =    -495.9909680511283909 [Eh]
	 Singles Energy            =      -0.0000000000000000 [Eh]
	 Same-Spin Energy          =      -0.5329975391842749 [Eh]
	 Opposite-Spin Energy      =      -1.6361706347585514 [Eh]
	 Correlation Energy        =      -2.1691681739428263 [Eh]
	 Total Energy              =    -498.1601362250711986 [Eh]

	 ================> DF-SCS-MP2 Energies <==================
	-----------------------------------------------------------
	 SCS Same-Spin Scale       =       0.3333333333333333 [-]
	 SCS Opposite-Spin Scale   =       1.2000000000000000 [-]
	 SCS Same-Spin Energy      =      -0.1776658463947583 [Eh]
	 SCS Opposite-Spin Energy  =      -1.9634047617102617 [Eh]
	 SCS Correlation Energy    =      -2.1410706081050201 [Eh]
	 SCS Total Energy          =    -498.1320386592333875 [Eh]
	-----------------------------------------------------------

  Dipole Moment: [D]
     X:     8.5032      Y:     1.3207      Z:     2.8993     Total:     9.0805

*** Psi4 exiting successfully. Buy a developer a beer!
