                               Psi4 1.4a3.dev225

  ==> Input File <==

--------------------------------------------------------------------------
#psi4
#
memory 32 gb

molecule  {
-1 1
  O       -2.4775990    -1.4732410    -0.5357720
  O       -2.5836320     0.8103810    -0.7086120
  C        0.1769840    -0.1996970     0.5360780
  C        0.8528670     0.9715620     0.1268880
  C       -1.2378850    -0.1617980     1.0317040
  C        0.8256870    -1.4354030     0.3918760
  C        2.1654290     0.8711020    -0.3500530
  C        0.1613040     2.3091050     0.2016770
  C        2.1298550    -1.5237740    -0.0958170
  C        2.8103870    -0.3625320    -0.4658790
  C       -2.2184660    -0.2891600    -0.2009230
  H       -1.4126520    -1.0091000     1.7035120
  H       -1.4413430     0.7679950     1.5725290
  H        0.2756770    -2.3364080     0.6567980
  H        2.6838580     1.7794620    -0.6595800
  H       -0.8491240     2.2156170    -0.2099720
  H        0.0575057     2.7200034     1.4284779
  H        0.7245490     3.0640340    -0.3581400
  H        2.6081740    -2.4970700    -0.1982670
  H        3.8302350    -0.4147610    -0.8445580
units angstrom
no_reorient  #important for SAPT in psi4, default
symmetry c1  #important for SAPT in psi4, default
}

set PROPERTIES_ORIGIN ["COM"]
properties('MP2/aug-cc-pvtz', properties = ['dipole'])
--------------------------------------------------------------------------

    Molecular point group: c1
  Charge       = -1
  Multiplicity = 1
  Basis Set: AUG-CC-PVTZ
    Blend: AUG-CC-PVTZ
  Basis Set: (AUG-CC-PVTZ AUX)
    Blend: AUG-CC-PVTZ-JKFIT

    Orbital Energies [Eh]
    ---------------------

    Doubly Occupied:

       1A    -20.310029     2A    -20.309658     3A    -11.157631
       4A    -11.119813     5A    -11.119389     6A    -11.117867
       7A    -11.116894     8A    -11.116435     9A    -11.114487
      10A    -11.108069    11A    -11.073771    12A     -1.179957
      13A     -1.084115    14A     -1.033612    15A     -0.926717
      16A     -0.908365    17A     -0.817424    18A     -0.783721
      19A     -0.690808    20A     -0.663046    21A     -0.562811
      22A     -0.533404    23A     -0.524868    24A     -0.501008
      25A     -0.458921    26A     -0.448389    27A     -0.440649
      28A     -0.428622    29A     -0.415877    30A     -0.407804
      31A     -0.385012    32A     -0.374154    33A     -0.360383
      34A     -0.351718    35A     -0.333466    36A     -0.235917
      37A     -0.226164    38A     -0.211931    39A     -0.207693
      40A     -0.177136

  @DF-RHF Final Energy:  -495.97804463071378

   => Energetics <=

    Nuclear Repulsion Energy =            571.1815273796487418
    One-Electron Energy =               -1821.6436739805576508
    Two-Electron Energy =                 754.4841019701950700
    Total Energy =                       -495.9780446307138391
  Basis Set: (AUG-CC-PVTZ AUX)
    Blend: AUG-CC-PVTZ-RI
    Molecular point group: c1

    Geometry (in Angstrom), charge = -1, multiplicity = 1:

       Center              X                  Y                   Z               Mass
    ------------   -----------------  -----------------  -----------------  -----------------
         O           -2.434445630627    -1.445559649861    -0.517777811451    15.994914619570
         O           -2.540478630627     0.838062350139    -0.690617811451    15.994914619570
         C            0.220137369373    -0.172015649861     0.554072188549    12.000000000000
         C            0.896020369373     0.999243350139     0.144882188549    12.000000000000
         C           -1.194731630627    -0.134116649861     1.049698188549    12.000000000000
         C            0.868840369373    -1.407721649861     0.409870188549    12.000000000000
         C            2.208582369373     0.898783350139    -0.332058811451    12.000000000000
         C            0.204457369373     2.336786350139     0.219671188549    12.000000000000
         C            2.173008369373    -1.496092649861    -0.077822811451    12.000000000000
         C            2.853540369373    -0.334850649861    -0.447884811451    12.000000000000
         C           -2.175312630627    -0.261478649861    -0.182928811451    12.000000000000
         H           -1.369498630627    -0.981418649861     1.721506188549     1.007825032230
         H           -1.398189630627     0.795676350139     1.590523188549     1.007825032230
         H            0.318830369373    -2.308726649861     0.674792188549     1.007825032230
         H            2.727011369373     1.807143350139    -0.641585811451     1.007825032230
         H           -0.805970630627     2.243298350139    -0.191977811451     1.007825032230
         H            0.100659069373     2.747684750139     1.446472088549     1.007825032230
         H            0.767702369373     3.091715350139    -0.340145811451     1.007825032230
         H            2.651327369373    -2.469388649861    -0.180272811451     1.007825032230
         H            3.873388369373    -0.387079649861    -0.826563811451     1.007825032230

  Basis Set: AUG-CC-PVTZ
    Blend: AUG-CC-PVTZ
  Basis Set: (AUG-CC-PVTZ AUX)
    Blend: AUG-CC-PVTZ-JKFIT
	 Reference Energy          =    -495.9780446307137822 [Eh]
	 Singles Energy            =      -0.0000000000000000 [Eh]
	 Same-Spin Energy          =      -0.5329635875467296 [Eh]
	 Opposite-Spin Energy      =      -1.6369359556787755 [Eh]
	 Correlation Energy        =      -2.1698995432255050 [Eh]
	 Total Energy              =    -498.1479441739392655 [Eh]

	 ================> DF-SCS-MP2 Energies <==================
	-----------------------------------------------------------
	 SCS Same-Spin Scale       =       0.3333333333333333 [-]
	 SCS Opposite-Spin Scale   =       1.2000000000000000 [-]
	 SCS Same-Spin Energy      =      -0.1776545291822432 [Eh]
	 SCS Opposite-Spin Energy  =      -1.9643231468145306 [Eh]
	 SCS Correlation Energy    =      -2.1419776759967739 [Eh]
	 SCS Total Energy          =    -498.1200223067105526 [Eh]
	-----------------------------------------------------------

  Dipole Moment: [D]
     X:     8.5292      Y:     1.2284      Z:     2.8101     Total:     9.0638

*** Psi4 exiting successfully. Buy a developer a beer!
