                               Psi4 1.4a3.dev225

  ==> Input File <==

--------------------------------------------------------------------------
#psi4
#
memory 32 gb

molecule  {
-1 1
  O       -2.4775990    -1.4732410    -0.5357720
  O       -2.5836320     0.8103810    -0.7086120
  C        0.1769840    -0.1996970     0.5360780
  C        0.8528670     0.9715620     0.1268880
  C       -1.2378850    -0.1617980     1.0317040
  C        0.8256870    -1.4354030     0.3918760
  C        2.1654290     0.8711020    -0.3500530
  C        0.1613040     2.3091050     0.2016770
  C        2.1298550    -1.5237740    -0.0958170
  C        2.8103870    -0.3625320    -0.4658790
  C       -2.2184660    -0.2891600    -0.2009230
  H       -1.4126520    -1.0091000     1.7035120
  H       -1.4413430     0.7679950     1.5725290
  H        0.2756770    -2.3364080     0.6567980
  H        2.6933641     1.7961180    -0.6652556
  H       -0.8491240     2.2156170    -0.2099720
  H        0.0735000     2.6566880     1.2394400
  H        0.7245490     3.0640340    -0.3581400
  H        2.6081740    -2.4970700    -0.1982670
  H        3.8302350    -0.4147610    -0.8445580
units angstrom
no_reorient  #important for SAPT in psi4, default
symmetry c1  #important for SAPT in psi4, default
}

set PROPERTIES_ORIGIN ["COM"]
properties('MP2/aug-cc-pvtz', properties = ['dipole'])
--------------------------------------------------------------------------

    Molecular point group: c1
  Charge       = -1
  Multiplicity = 1
  Basis Set: AUG-CC-PVTZ
    Blend: AUG-CC-PVTZ
  Basis Set: (AUG-CC-PVTZ AUX)
    Blend: AUG-CC-PVTZ-JKFIT

    Orbital Energies [Eh]
    ---------------------

    Doubly Occupied:

       1A    -20.309256     2A    -20.309089     3A    -11.157001
       4A    -11.118862     5A    -11.117789     6A    -11.116724
       7A    -11.116230     8A    -11.112938     9A    -11.107106
      10A    -11.092209    11A    -11.073829    12A     -1.179322
      13A     -1.083465    14A     -1.032285    15A     -0.927078
      16A     -0.907365    17A     -0.820978    18A     -0.787868
      19A     -0.688556    20A     -0.664433    21A     -0.561652
      22A     -0.533217    23A     -0.523285    24A     -0.498094
      25A     -0.461406    26A     -0.452691    27A     -0.439946
      28A     -0.428452    29A     -0.425825    30A     -0.412076
      31A     -0.384423    32A     -0.374614    33A     -0.364839
      34A     -0.351435    35A     -0.333010    36A     -0.235276
      37A     -0.225641    38A     -0.211444    39A     -0.207272
      40A     -0.176372

  @DF-RHF Final Energy:  -495.99656396468407

   => Energetics <=

    Nuclear Repulsion Energy =            571.9196844804806688
    One-Electron Energy =               -1823.1857884253590782
    Two-Electron Energy =                 755.2695399801943950
    Total Energy =                       -495.9965639646841282
  Basis Set: (AUG-CC-PVTZ AUX)
    Blend: AUG-CC-PVTZ-RI
    Molecular point group: c1

    Geometry (in Angstrom), charge = -1, multiplicity = 1:

       Center              X                  Y                   Z               Mass
    ------------   -----------------  -----------------  -----------------  -----------------
         O           -2.434618043733    -1.445244176689    -0.516461316051    15.994914619570
         O           -2.540651043733     0.838377823311    -0.689301316051    15.994914619570
         C            0.219964956267    -0.171700176689     0.555388683949    12.000000000000
         C            0.895847956267     0.999558823311     0.146198683949    12.000000000000
         C           -1.194904043733    -0.133801176689     1.051014683949    12.000000000000
         C            0.868667956267    -1.407406176689     0.411186683949    12.000000000000
         C            2.208409956267     0.899098823311    -0.330742316051    12.000000000000
         C            0.204284956267     2.337101823311     0.220987683949    12.000000000000
         C            2.172835956267    -1.495777176689    -0.076506316051    12.000000000000
         C            2.853367956267    -0.334535176689    -0.446568316051    12.000000000000
         C           -2.175485043733    -0.261163176689    -0.181612316051    12.000000000000
         H           -1.369671043733    -0.981103176689     1.722822683949     1.007825032230
         H           -1.398362043733     0.795991823311     1.591839683949     1.007825032230
         H            0.318657956267    -2.308411176689     0.676108683949     1.007825032230
         H            2.736345056267     1.824114823311    -0.645944916051     1.007825032230
         H           -0.806143043733     2.243613823311    -0.190661316051     1.007825032230
         H            0.116480956267     2.684684823311     1.258750683949     1.007825032230
         H            0.767529956267     3.092030823311    -0.338829316051     1.007825032230
         H            2.651154956267    -2.469073176689    -0.178956316051     1.007825032230
         H            3.873215956267    -0.386764176689    -0.825247316051     1.007825032230

  Basis Set: AUG-CC-PVTZ
    Blend: AUG-CC-PVTZ
  Basis Set: (AUG-CC-PVTZ AUX)
    Blend: AUG-CC-PVTZ-JKFIT
	 Reference Energy          =    -495.9965639646840714 [Eh]
	 Singles Energy            =      -0.0000000000000000 [Eh]
	 Same-Spin Energy          =      -0.5330592732835180 [Eh]
	 Opposite-Spin Energy      =      -1.6356725713277660 [Eh]
	 Correlation Energy        =      -2.1687318446112842 [Eh]
	 Total Energy              =    -498.1652958092953440 [Eh]

	 ================> DF-SCS-MP2 Energies <==================
	-----------------------------------------------------------
	 SCS Same-Spin Scale       =       0.3333333333333333 [-]
	 SCS Opposite-Spin Scale   =       1.2000000000000000 [-]
	 SCS Same-Spin Energy      =      -0.1776864244278393 [Eh]
	 SCS Opposite-Spin Energy  =      -1.9628070855933191 [Eh]
	 SCS Correlation Energy    =      -2.1404935100211584 [Eh]
	 SCS Total Energy          =    -498.1370574747052160 [Eh]
	-----------------------------------------------------------

  Dipole Moment: [D]
     X:     8.4736      Y:     1.3796      Z:     2.9734     Total:     9.0855

*** Psi4 exiting successfully. Buy a developer a beer!
