                               Psi4 1.4a3.dev225

  ==> Input File <==

--------------------------------------------------------------------------
#psi4
#
memory 32 gb

molecule  {
-1 1
  O       -2.4775990    -1.4732410    -0.5357720
  O       -2.5836320     0.8103810    -0.7086120
  C        0.1769840    -0.1996970     0.5360780
  C        0.8528670     0.9715620     0.1268880
  C       -1.2378850    -0.1617980     1.0317040
  C        0.8256870    -1.4354030     0.3918760
  C        2.1654290     0.8711020    -0.3500530
  C        0.1613040     2.3091050     0.2016770
  C        2.1298550    -1.5237740    -0.0958170
  C        2.8103870    -0.3625320    -0.4658790
  C       -2.2184660    -0.2891600    -0.2009230
  H       -1.4158431    -1.0245709     1.7157786
  H       -1.4413430     0.7679950     1.5725290
  H        0.2756770    -2.3364080     0.6567980
  H        2.6838580     1.7794620    -0.6595800
  H       -0.8491240     2.2156170    -0.2099720
  H        0.0735000     2.6566880     1.2394400
  H        0.7245490     3.0640340    -0.3581400
  H        2.6081740    -2.4970700    -0.1982670
  H        3.8302350    -0.4147610    -0.8445580
units angstrom
no_reorient  #important for SAPT in psi4, default
symmetry c1  #important for SAPT in psi4, default
}

set PROPERTIES_ORIGIN ["COM"]
properties('MP2/aug-cc-pvtz', properties = ['dipole'])
--------------------------------------------------------------------------

    Molecular point group: c1
  Charge       = -1
  Multiplicity = 1
  Basis Set: AUG-CC-PVTZ
    Blend: AUG-CC-PVTZ
  Basis Set: (AUG-CC-PVTZ AUX)
    Blend: AUG-CC-PVTZ-JKFIT

    Orbital Energies [Eh]
    ---------------------

    Doubly Occupied:

       1A    -20.309422     2A    -20.309009     3A    -11.157134
       4A    -11.118517     5A    -11.117342     6A    -11.116126
       7A    -11.114776     8A    -11.112890     9A    -11.107023
      10A    -11.092332    11A    -11.076210    12A     -1.179354
      13A     -1.083507    14A     -1.032297    15A     -0.926905
      16A     -0.907623    17A     -0.820697    18A     -0.787268
      19A     -0.689698    20A     -0.664246    21A     -0.562438
      22A     -0.532846    23A     -0.522784    24A     -0.499502
      25A     -0.461461    26A     -0.453384    27A     -0.439886
      28A     -0.427178    29A     -0.426153    30A     -0.412512
      31A     -0.383569    32A     -0.374429    33A     -0.364723
      34A     -0.351066    35A     -0.332956    36A     -0.235300
      37A     -0.225525    38A     -0.211425    39A     -0.207208
      40A     -0.176387

  @DF-RHF Final Energy:  -495.99662781045794

   => Energetics <=

    Nuclear Repulsion Energy =            571.9188458535711561
    One-Electron Energy =               -1823.1847272334705394
    Two-Electron Energy =                 755.2692535694415028
    Total Energy =                       -495.9966278104578805
  Basis Set: (AUG-CC-PVTZ AUX)
    Blend: AUG-CC-PVTZ-RI
    Molecular point group: c1

    Geometry (in Angstrom), charge = -1, multiplicity = 1:

       Center              X                  Y                   Z               Mass
    ------------   -----------------  -----------------  -----------------  -----------------
         O           -2.434532195523    -1.445026960543    -0.516582626714    15.994914619570
         O           -2.540565195523     0.838595039457    -0.689422626714    15.994914619570
         C            0.220050804477    -0.171482960543     0.555267373286    12.000000000000
         C            0.895933804477     0.999776039457     0.146077373286    12.000000000000
         C           -1.194818195523    -0.133583960543     1.050893373286    12.000000000000
         C            0.868753804477    -1.407188960543     0.411065373286    12.000000000000
         C            2.208495804477     0.899316039457    -0.330863626714    12.000000000000
         C            0.204370804477     2.337319039457     0.220866373286    12.000000000000
         C            2.172921804477    -1.495559960543    -0.076627626714    12.000000000000
         C            2.853453804477    -0.334317960543    -0.446689626714    12.000000000000
         C           -2.175399195523    -0.260945960543    -0.181733626714    12.000000000000
         H           -1.372776295523    -0.996356860543     1.734967973286     1.007825032230
         H           -1.398276195523     0.796209039457     1.591718373286     1.007825032230
         H            0.318743804477    -2.308193960543     0.675987373286     1.007825032230
         H            2.726924804477     1.807676039457    -0.640390626714     1.007825032230
         H           -0.806057195523     2.243831039457    -0.190782626714     1.007825032230
         H            0.116566804477     2.684902039457     1.258629373286     1.007825032230
         H            0.767615804477     3.092248039457    -0.338950626714     1.007825032230
         H            2.651240804477    -2.468855960543    -0.179077626714     1.007825032230
         H            3.873301804477    -0.386546960543    -0.825368626714     1.007825032230

  Basis Set: AUG-CC-PVTZ
    Blend: AUG-CC-PVTZ
  Basis Set: (AUG-CC-PVTZ AUX)
    Blend: AUG-CC-PVTZ-JKFIT
	 Reference Energy          =    -495.9966278104579374 [Eh]
	 Singles Energy            =      -0.0000000000000000 [Eh]
	 Same-Spin Energy          =      -0.5330364846618746 [Eh]
	 Opposite-Spin Energy      =      -1.6356735344909543 [Eh]
	 Correlation Energy        =      -2.1687100191528290 [Eh]
	 Total Energy              =    -498.1653378296107917 [Eh]

	 ================> DF-SCS-MP2 Energies <==================
	-----------------------------------------------------------
	 SCS Same-Spin Scale       =       0.3333333333333333 [-]
	 SCS Opposite-Spin Scale   =       1.2000000000000000 [-]
	 SCS Same-Spin Energy      =      -0.1776788282206249 [Eh]
	 SCS Opposite-Spin Energy  =      -1.9628082413891450 [Eh]
	 SCS Correlation Energy    =      -2.1404870696097698 [Eh]
	 SCS Total Energy          =    -498.1371148800677133 [Eh]
	-----------------------------------------------------------

  Dipole Moment: [D]
     X:     8.4880      Y:     1.4002      Z:     2.9556     Total:     9.0963

*** Psi4 exiting successfully. Buy a developer a beer!
