                               Psi4 1.4a3.dev225

  ==> Input File <==

--------------------------------------------------------------------------
#psi4
#
memory 32 gb

molecule  {
-1 1
  O       -2.4775990    -1.4732410    -0.5357720
  O       -2.5836320     0.8103810    -0.7086120
  C        0.1769840    -0.1996970     0.5360780
  C        0.8528670     0.9715620     0.1268880
  C       -1.2378850    -0.1617980     1.0317040
  C        0.8256870    -1.4354030     0.3918760
  C        2.1654290     0.8711020    -0.3500530
  C        0.1613040     2.3091050     0.2016770
  C        2.1283300    -1.3780016    -0.1044448
  C        2.8103870    -0.3625320    -0.4658790
  C       -2.2184660    -0.2891600    -0.2009230
  H       -1.4126520    -1.0091000     1.7035120
  H       -1.4413430     0.7679950     1.5725290
  H        0.2756770    -2.3364080     0.6567980
  H        2.6838580     1.7794620    -0.6595800
  H       -0.8491240     2.2156170    -0.2099720
  H        0.0735000     2.6566880     1.2394400
  H        0.7245490     3.0640340    -0.3581400
  H        2.6081740    -2.4970700    -0.1982670
  H        3.8302350    -0.4147610    -0.8445580
units angstrom
no_reorient  #important for SAPT in psi4, default
symmetry c1  #important for SAPT in psi4, default
}

set PROPERTIES_ORIGIN ["COM"]
properties('MP2/aug-cc-pvtz', properties = ['dipole'])
--------------------------------------------------------------------------

    Molecular point group: c1
  Charge       = -1
  Multiplicity = 1
  Basis Set: AUG-CC-PVTZ
    Blend: AUG-CC-PVTZ
  Basis Set: (AUG-CC-PVTZ AUX)
    Blend: AUG-CC-PVTZ-JKFIT

    Orbital Energies [Eh]
    ---------------------

    Doubly Occupied:

       1A    -20.309723     2A    -20.309653     3A    -11.157609
       4A    -11.116236     5A    -11.114931     6A    -11.114273
       7A    -11.113178     8A    -11.105811     9A    -11.103596
      10A    -11.091975    11A    -11.073647    12A     -1.179834
      13A     -1.083972    14A     -1.046423    15A     -0.940244
      16A     -0.906916    17A     -0.818137    18A     -0.794413
      19A     -0.696887    20A     -0.653673    21A     -0.561990
      22A     -0.534895    23A     -0.532040    24A     -0.494570
      25A     -0.464837    26A     -0.456449    27A     -0.430557
      28A     -0.429039    29A     -0.421021    30A     -0.412169
      31A     -0.382860    32A     -0.380182    33A     -0.377683
      34A     -0.344902    35A     -0.322522    36A     -0.240566
      37A     -0.226231    38A     -0.211238    39A     -0.205451
      40A     -0.182408

  @DF-RHF Final Energy:  -495.96952126585700

   => Energetics <=

    Nuclear Repulsion Energy =            574.4939899866126325
    One-Electron Energy =               -1828.2415456124674620
    Two-Electron Energy =                 757.7780343599978323
    Total Energy =                       -495.9695212658569972
  Basis Set: (AUG-CC-PVTZ AUX)
    Blend: AUG-CC-PVTZ-RI
    Molecular point group: c1

    Geometry (in Angstrom), charge = -1, multiplicity = 1:

       Center              X                  Y                   Z               Mass
    ------------   -----------------  -----------------  -----------------  -----------------
         O           -2.434431002019    -1.456866875655    -0.515805114379    15.994914619570
         O           -2.540464002019     0.826755124345    -0.688645114379    15.994914619570
         C            0.220151997981    -0.183322875655     0.556044885621    12.000000000000
         C            0.896034997981     0.987936124345     0.146854885621    12.000000000000
         C           -1.194717002019    -0.145423875655     1.051670885621    12.000000000000
         C            0.868854997981    -1.419028875655     0.411842885621    12.000000000000
         C            2.208596997981     0.887476124345    -0.330086114379    12.000000000000
         C            0.204471997981     2.325479124345     0.221643885621    12.000000000000
         C            2.171497997981    -1.361627475655    -0.084477914379    12.000000000000
         C            2.853554997981    -0.346157875655    -0.445912114379    12.000000000000
         C           -2.175298002019    -0.272785875655    -0.180956114379    12.000000000000
         H           -1.369484002019    -0.992725875655     1.723478885621     1.007825032230
         H           -1.398175002019     0.784369124345     1.592495885621     1.007825032230
         H            0.318844997981    -2.320033875655     0.676764885621     1.007825032230
         H            2.727025997981     1.795836124345    -0.639613114379     1.007825032230
         H           -0.805956002019     2.231991124345    -0.190005114379     1.007825032230
         H            0.116667997981     2.673062124345     1.259406885621     1.007825032230
         H            0.767716997981     3.080408124345    -0.338173114379     1.007825032230
         H            2.651341997981    -2.480695875655    -0.178300114379     1.007825032230
         H            3.873402997981    -0.398386875655    -0.824591114379     1.007825032230

  Basis Set: AUG-CC-PVTZ
    Blend: AUG-CC-PVTZ
  Basis Set: (AUG-CC-PVTZ AUX)
    Blend: AUG-CC-PVTZ-JKFIT
	 Reference Energy          =    -495.9695212658569972 [Eh]
	 Singles Energy            =      -0.0000000000000000 [Eh]
	 Same-Spin Energy          =      -0.5332933864856425 [Eh]
	 Opposite-Spin Energy      =      -1.6360609140382758 [Eh]
	 Correlation Energy        =      -2.1693543005239184 [Eh]
	 Total Energy              =    -498.1388755663809320 [Eh]

	 ================> DF-SCS-MP2 Energies <==================
	-----------------------------------------------------------
	 SCS Same-Spin Scale       =       0.3333333333333333 [-]
	 SCS Opposite-Spin Scale   =       1.2000000000000000 [-]
	 SCS Same-Spin Energy      =      -0.1777644621618808 [Eh]
	 SCS Opposite-Spin Energy  =      -1.9632730968459309 [Eh]
	 SCS Correlation Energy    =      -2.1410375590078119 [Eh]
	 SCS Total Energy          =    -498.1105588248648246 [Eh]
	-----------------------------------------------------------

  Dipole Moment: [D]
     X:     8.4485      Y:     1.5615      Z:     2.9669     Total:     9.0895

*** Psi4 exiting successfully. Buy a developer a beer!
