                               Psi4 1.4a3.dev225

  ==> Input File <==

--------------------------------------------------------------------------
#psi4
#
memory 32 gb

molecule  {
-1 1
  O       -2.4775990    -1.4732410    -0.5357720
  O       -2.5836320     0.8103810    -0.7086120
  C        0.1769840    -0.1996970     0.5360780
  C        0.8925650     0.9440949     0.1168098
  C       -1.2378850    -0.1617980     1.0317040
  C        0.8256870    -1.4354030     0.3918760
  C        2.1654290     0.8711020    -0.3500530
  C        0.1613040     2.3091050     0.2016770
  C        2.1298550    -1.5237740    -0.0958170
  C        2.8103870    -0.3625320    -0.4658790
  C       -2.2184660    -0.2891600    -0.2009230
  H       -1.4126520    -1.0091000     1.7035120
  H       -1.4413430     0.7679950     1.5725290
  H        0.2756770    -2.3364080     0.6567980
  H        2.6838580     1.7794620    -0.6595800
  H       -0.8491240     2.2156170    -0.2099720
  H        0.0735000     2.6566880     1.2394400
  H        0.7245490     3.0640340    -0.3581400
  H        2.6081740    -2.4970700    -0.1982670
  H        3.8302350    -0.4147610    -0.8445580
units angstrom
no_reorient  #important for SAPT in psi4, default
symmetry c1  #important for SAPT in psi4, default
}

set PROPERTIES_ORIGIN ["COM"]
properties('MP2/aug-cc-pvtz', properties = ['dipole'])
--------------------------------------------------------------------------

    Molecular point group: c1
  Charge       = -1
  Multiplicity = 1
  Basis Set: AUG-CC-PVTZ
    Blend: AUG-CC-PVTZ
  Basis Set: (AUG-CC-PVTZ AUX)
    Blend: AUG-CC-PVTZ-JKFIT

    Orbital Energies [Eh]
    ---------------------

    Doubly Occupied:

       1A    -20.309381     2A    -20.309349     3A    -11.157364
       4A    -11.118148     5A    -11.116087     6A    -11.114461
       7A    -11.113163     8A    -11.110306     9A    -11.106188
      10A    -11.092883    11A    -11.075091    12A     -1.179519
      13A     -1.083639    14A     -1.035797    15A     -0.923174
      16A     -0.910182    17A     -0.818128    18A     -0.789238
      19A     -0.690070    20A     -0.667523    21A     -0.563118
      22A     -0.533253    23A     -0.523790    24A     -0.498722
      25A     -0.460190    26A     -0.453950    27A     -0.437991
      28A     -0.428635    29A     -0.423886    30A     -0.411030
      31A     -0.384332    32A     -0.376377    33A     -0.367845
      34A     -0.344532    35A     -0.334131    36A     -0.235012
      37A     -0.225849    38A     -0.214610    39A     -0.209359
      40A     -0.176355

  @DF-RHF Final Energy:  -495.99520053991603

   => Energetics <=

    Nuclear Repulsion Energy =            572.1886986835578455
    One-Electron Energy =               -1823.7224790995037438
    Two-Electron Energy =                 755.5385798760297575
    Total Energy =                       -495.9952005399160271
  Basis Set: (AUG-CC-PVTZ AUX)
    Blend: AUG-CC-PVTZ-RI
    Molecular point group: c1

    Geometry (in Angstrom), charge = -1, multiplicity = 1:

       Center              X                  Y                   Z               Mass
    ------------   -----------------  -----------------  -----------------  -----------------
         O           -2.437749633143    -1.442920341037    -0.515688350859    15.994914619570
         O           -2.543782633143     0.840701658963    -0.688528350859    15.994914619570
         C            0.216833366857    -0.169376341037     0.556161649141    12.000000000000
         C            0.932414366857     0.974415558963     0.136893449141    12.000000000000
         C           -1.198035633143    -0.131477341037     1.051787649141    12.000000000000
         C            0.865536366857    -1.405082341037     0.411959649141    12.000000000000
         C            2.205278366857     0.901422658963    -0.329969350859    12.000000000000
         C            0.201153366857     2.339425658963     0.221760649141    12.000000000000
         C            2.169704366857    -1.493453341037    -0.075733350859    12.000000000000
         C            2.850236366857    -0.332211341037    -0.445795350859    12.000000000000
         C           -2.178616633143    -0.258839341037    -0.180839350859    12.000000000000
         H           -1.372802633143    -0.978779341037     1.723595649141     1.007825032230
         H           -1.401493633143     0.798315658963     1.592612649141     1.007825032230
         H            0.315526366857    -2.306087341037     0.676881649141     1.007825032230
         H            2.723707366857     1.809782658963    -0.639496350859     1.007825032230
         H           -0.809274633143     2.245937658963    -0.189888350859     1.007825032230
         H            0.113349366857     2.687008658963     1.259523649141     1.007825032230
         H            0.764398366857     3.094354658963    -0.338056350859     1.007825032230
         H            2.648023366857    -2.466749341037    -0.178183350859     1.007825032230
         H            3.870084366857    -0.384440341037    -0.824474350859     1.007825032230

  Basis Set: AUG-CC-PVTZ
    Blend: AUG-CC-PVTZ
  Basis Set: (AUG-CC-PVTZ AUX)
    Blend: AUG-CC-PVTZ-JKFIT
	 Reference Energy          =    -495.9952005399160271 [Eh]
	 Singles Energy            =      -0.0000000000000000 [Eh]
	 Same-Spin Energy          =      -0.5326783358980360 [Eh]
	 Opposite-Spin Energy      =      -1.6351684528319228 [Eh]
	 Correlation Energy        =      -2.1678467887299586 [Eh]
	 Total Energy              =    -498.1630473286459733 [Eh]

	 ================> DF-SCS-MP2 Energies <==================
	-----------------------------------------------------------
	 SCS Same-Spin Scale       =       0.3333333333333333 [-]
	 SCS Opposite-Spin Scale   =       1.2000000000000000 [-]
	 SCS Same-Spin Energy      =      -0.1775594452993453 [Eh]
	 SCS Opposite-Spin Energy  =      -1.9622021433983072 [Eh]
	 SCS Correlation Energy    =      -2.1397615886976524 [Eh]
	 SCS Total Energy          =    -498.1349621286136653 [Eh]
	-----------------------------------------------------------

  Dipole Moment: [D]
     X:     8.5035      Y:     1.3268      Z:     2.9646     Total:     9.1027

*** Psi4 exiting successfully. Buy a developer a beer!
