                               Psi4 1.4a3.dev225

  ==> Input File <==

--------------------------------------------------------------------------
#psi4
#
memory 32 gb

molecule  {
-1 1
  O       -2.4775990    -1.4732410    -0.5357720
  O       -2.5836320     0.8103810    -0.7086120
  C        0.1769840    -0.1996970     0.5360780
  C        0.7652289     0.9328211     0.0833917
  C       -1.2378850    -0.1617980     1.0317040
  C        0.8256870    -1.4354030     0.3918760
  C        2.1654290     0.8711020    -0.3500530
  C        0.1613040     2.3091050     0.2016770
  C        2.1298550    -1.5237740    -0.0958170
  C        2.8103870    -0.3625320    -0.4658790
  C       -2.2184660    -0.2891600    -0.2009230
  H       -1.4126520    -1.0091000     1.7035120
  H       -1.4413430     0.7679950     1.5725290
  H        0.2756770    -2.3364080     0.6567980
  H        2.6838580     1.7794620    -0.6595800
  H       -0.8491240     2.2156170    -0.2099720
  H        0.0735000     2.6566880     1.2394400
  H        0.7245490     3.0640340    -0.3581400
  H        2.6081740    -2.4970700    -0.1982670
  H        3.8302350    -0.4147610    -0.8445580
units angstrom
no_reorient  #important for SAPT in psi4, default
symmetry c1  #important for SAPT in psi4, default
}

set PROPERTIES_ORIGIN ["COM"]
properties('MP2/aug-cc-pvtz', properties = ['dipole'])
--------------------------------------------------------------------------

    Molecular point group: c1
  Charge       = -1
  Multiplicity = 1
  Basis Set: AUG-CC-PVTZ
    Blend: AUG-CC-PVTZ
  Basis Set: (AUG-CC-PVTZ AUX)
    Blend: AUG-CC-PVTZ-JKFIT

    Orbital Energies [Eh]
    ---------------------

    Doubly Occupied:

       1A    -20.308540     2A    -20.308440     3A    -11.156046
       4A    -11.121526     5A    -11.119071     6A    -11.116900
       7A    -11.115733     8A    -11.109965     9A    -11.104593
      10A    -11.091706    11A    -11.071854    12A     -1.178684
      13A     -1.082817    14A     -1.033088    15A     -0.931834
      16A     -0.901609    17A     -0.820037    18A     -0.786972
      19A     -0.699185    20A     -0.656908    21A     -0.562519
      22A     -0.532989    23A     -0.522610    24A     -0.500702
      25A     -0.462582    26A     -0.451766    27A     -0.441854
      28A     -0.427037    29A     -0.424372    30A     -0.411888
      31A     -0.383225    32A     -0.373065    33A     -0.365325
      34A     -0.355139    35A     -0.325686    36A     -0.238047
      37A     -0.225316    38A     -0.210190    39A     -0.200651
      40A     -0.180647

  @DF-RHF Final Energy:  -495.98825041633904

   => Energetics <=

    Nuclear Repulsion Energy =            572.6962857183804090
    One-Electron Energy =               -1824.7468351271870688
    Two-Electron Energy =                 756.0622989924675039
    Total Energy =                       -495.9882504163390422
  Basis Set: (AUG-CC-PVTZ AUX)
    Blend: AUG-CC-PVTZ-RI
    Molecular point group: c1

    Geometry (in Angstrom), charge = -1, multiplicity = 1:

       Center              X                  Y                   Z               Mass
    ------------   -----------------  -----------------  -----------------  -----------------
         O           -2.427498522242    -1.442012751013    -0.512998048194    15.994914619570
         O           -2.533531522242     0.841609248987    -0.685838048194    15.994914619570
         C            0.227084477758    -0.168468751013     0.558851951806    12.000000000000
         C            0.815329377758     0.964049348987     0.106165651806    12.000000000000
         C           -1.187784522242    -0.130569751013     1.054477951806    12.000000000000
         C            0.875787477758    -1.404174751013     0.414649951806    12.000000000000
         C            2.215529477758     0.902330248987    -0.327279048194    12.000000000000
         C            0.211404477758     2.340333248987     0.224450951806    12.000000000000
         C            2.179955477758    -1.492545751013    -0.073043048194    12.000000000000
         C            2.860487477758    -0.331303751013    -0.443105048194    12.000000000000
         C           -2.168365522242    -0.257931751013    -0.178149048194    12.000000000000
         H           -1.362551522242    -0.977871751013     1.726285951806     1.007825032230
         H           -1.391242522242     0.799223248987     1.595302951806     1.007825032230
         H            0.325777477758    -2.305179751013     0.679571951806     1.007825032230
         H            2.733958477758     1.810690248987    -0.636806048194     1.007825032230
         H           -0.799023522242     2.246845248987    -0.187198048194     1.007825032230
         H            0.123600477758     2.687916248987     1.262213951806     1.007825032230
         H            0.774649477758     3.095262248987    -0.335366048194     1.007825032230
         H            2.658274477758    -2.465841751013    -0.175493048194     1.007825032230
         H            3.880335477758    -0.383532751013    -0.821784048194     1.007825032230

  Basis Set: AUG-CC-PVTZ
    Blend: AUG-CC-PVTZ
  Basis Set: (AUG-CC-PVTZ AUX)
    Blend: AUG-CC-PVTZ-JKFIT
	 Reference Energy          =    -495.9882504163390422 [Eh]
	 Singles Energy            =      -0.0000000000000000 [Eh]
	 Same-Spin Energy          =      -0.5330615609732527 [Eh]
	 Opposite-Spin Energy      =      -1.6362436006738481 [Eh]
	 Correlation Energy        =      -2.1693051616471006 [Eh]
	 Total Energy              =    -498.1575555779861588 [Eh]

	 ================> DF-SCS-MP2 Energies <==================
	-----------------------------------------------------------
	 SCS Same-Spin Scale       =       0.3333333333333333 [-]
	 SCS Opposite-Spin Scale   =       1.2000000000000000 [-]
	 SCS Same-Spin Energy      =      -0.1776871869910842 [Eh]
	 SCS Opposite-Spin Energy  =      -1.9634923208086177 [Eh]
	 SCS Correlation Energy    =      -2.1411795077997020 [Eh]
	 SCS Total Energy          =    -498.1294299241387193 [Eh]
	-----------------------------------------------------------

  Dipole Moment: [D]
     X:     8.5352      Y:     1.3781      Z:     2.9571     Total:     9.1375

*** Psi4 exiting successfully. Buy a developer a beer!
