                               Psi4 1.4a3.dev225

  ==> Input File <==

--------------------------------------------------------------------------
#psi4
#
memory 32 gb

molecule  {
-1 1
  O       -2.4775990    -1.4732410    -0.5357720
  O       -2.5836320     0.8103810    -0.7086120
  C        0.1769840    -0.1996970     0.5360780
  C        0.8528670     0.9715620     0.1268880
  C       -1.2378850    -0.1617980     1.0317040
  C        0.8256870    -1.4354030     0.3918760
  C        2.1654290     0.8711020    -0.3500530
  C        0.1613040     2.3091050     0.2016770
  C        2.1304282    -1.4266014    -0.1021696
  C        2.8103870    -0.3625320    -0.4658790
  C       -2.2184660    -0.2891600    -0.2009230
  H       -1.4126520    -1.0091000     1.7035120
  H       -1.4413430     0.7679950     1.5725290
  H        0.2756770    -2.3364080     0.6567980
  H        2.6838580     1.7794620    -0.6595800
  H       -0.8491240     2.2156170    -0.2099720
  H        0.0735000     2.6566880     1.2394400
  H        0.7245490     3.0640340    -0.3581400
  H        2.6081740    -2.4970700    -0.1982670
  H        3.8302350    -0.4147610    -0.8445580
units angstrom
no_reorient  #important for SAPT in psi4, default
symmetry c1  #important for SAPT in psi4, default
}

set PROPERTIES_ORIGIN ["COM"]
properties('MP2/aug-cc-pvtz', properties = ['dipole'])
--------------------------------------------------------------------------

    Molecular point group: c1
  Charge       = -1
  Multiplicity = 1
  Basis Set: AUG-CC-PVTZ
    Blend: AUG-CC-PVTZ
  Basis Set: (AUG-CC-PVTZ AUX)
    Blend: AUG-CC-PVTZ-JKFIT

    Orbital Energies [Eh]
    ---------------------

    Doubly Occupied:

       1A    -20.309487     2A    -20.309389     3A    -11.157319
       4A    -11.116384     5A    -11.115147     6A    -11.114227
       7A    -11.112861     8A    -11.108264     9A    -11.105792
      10A    -11.091935    11A    -11.073588    12A     -1.179583
      13A     -1.083725    14A     -1.040814    15A     -0.935420
      16A     -0.907070    17A     -0.818818    18A     -0.792046
      19A     -0.694532    20A     -0.656732    21A     -0.561401
      22A     -0.534228    23A     -0.528874    24A     -0.495678
      25A     -0.462900    26A     -0.453415    27A     -0.432686
      28A     -0.429512    29A     -0.424330    30A     -0.412616
      31A     -0.382078    32A     -0.379533    33A     -0.373229
      34A     -0.347169    35A     -0.328255    36A     -0.238433
      37A     -0.225959    38A     -0.211129    39A     -0.205810
      40A     -0.180434

  @DF-RHF Final Energy:  -495.98519281396534

   => Energetics <=

    Nuclear Repulsion Energy =            573.6327929998875561
    One-Electron Energy =               -1826.5743679506056196
    Two-Electron Energy =                 756.9563821367526089
    Total Energy =                       -495.9851928139653410
  Basis Set: (AUG-CC-PVTZ AUX)
    Blend: AUG-CC-PVTZ-RI
    Molecular point group: c1

    Geometry (in Angstrom), charge = -1, multiplicity = 1:

       Center              X                  Y                   Z               Mass
    ------------   -----------------  -----------------  -----------------  -----------------
         O           -2.434599916261    -1.452954379988    -0.515988277893    15.994914619570
         O           -2.540632916261     0.830667620012    -0.688828277893    15.994914619570
         C            0.219983083739    -0.179410379988     0.555861722107    12.000000000000
         C            0.895866083739     0.991848620012     0.146671722107    12.000000000000
         C           -1.194885916261    -0.141511379988     1.051487722107    12.000000000000
         C            0.868686083739    -1.415116379988     0.411659722107    12.000000000000
         C            2.208428083739     0.891388620012    -0.330269277893    12.000000000000
         C            0.204303083739     2.329391620012     0.221460722107    12.000000000000
         C            2.173427283739    -1.406314779988    -0.082385877893    12.000000000000
         C            2.853386083739    -0.342245379988    -0.446095277893    12.000000000000
         C           -2.175466916261    -0.268873379988    -0.181139277893    12.000000000000
         H           -1.369652916261    -0.988813379988     1.723295722107     1.007825032230
         H           -1.398343916261     0.788281620012     1.592312722107     1.007825032230
         H            0.318676083739    -2.316121379988     0.676581722107     1.007825032230
         H            2.726857083739     1.799748620012    -0.639796277893     1.007825032230
         H           -0.806124916261     2.235903620012    -0.190188277893     1.007825032230
         H            0.116499083739     2.676974620012     1.259223722107     1.007825032230
         H            0.767548083739     3.084320620012    -0.338356277893     1.007825032230
         H            2.651173083739    -2.476783379988    -0.178483277893     1.007825032230
         H            3.873234083739    -0.394474379988    -0.824774277893     1.007825032230

  Basis Set: AUG-CC-PVTZ
    Blend: AUG-CC-PVTZ
  Basis Set: (AUG-CC-PVTZ AUX)
    Blend: AUG-CC-PVTZ-JKFIT
	 Reference Energy          =    -495.9851928139653410 [Eh]
	 Singles Energy            =      -0.0000000000000000 [Eh]
	 Same-Spin Energy          =      -0.5331327232350034 [Eh]
	 Opposite-Spin Energy      =      -1.6355664435830994 [Eh]
	 Correlation Energy        =      -2.1686991668181026 [Eh]
	 Total Energy              =    -498.1538919807834418 [Eh]

	 ================> DF-SCS-MP2 Energies <==================
	-----------------------------------------------------------
	 SCS Same-Spin Scale       =       0.3333333333333333 [-]
	 SCS Opposite-Spin Scale   =       1.2000000000000000 [-]
	 SCS Same-Spin Energy      =      -0.1777109077450011 [Eh]
	 SCS Opposite-Spin Energy  =      -1.9626797322997191 [Eh]
	 SCS Correlation Energy    =      -2.1403906400447203 [Eh]
	 SCS Total Energy          =    -498.1255834540100409 [Eh]
	-----------------------------------------------------------

  Dipole Moment: [D]
     X:     8.4701      Y:     1.4873      Z:     2.9663     Total:     9.0969

*** Psi4 exiting successfully. Buy a developer a beer!
