                               Psi4 1.4a3.dev225

  ==> Input File <==

--------------------------------------------------------------------------
#psi4
#
memory 32 gb

molecule  {
-1 1
  O       -2.4775990    -1.4732410    -0.5357720
  O       -2.5836320     0.8103810    -0.7086120
  C        0.1769840    -0.1996970     0.5360780
  C        0.8528670     0.9715620     0.1268880
  C       -1.2378850    -0.1617980     1.0317040
  C        0.8256870    -1.4354030     0.3918760
  C        2.1654290     0.8711020    -0.3500530
  C        0.1613040     2.3091050     0.2016770
  C        2.1298550    -1.5237740    -0.0958170
  C        2.8103870    -0.3625320    -0.4658790
  C       -2.1746654    -0.1959720    -0.2404611
  H       -1.4126520    -1.0091000     1.7035120
  H       -1.4413430     0.7679950     1.5725290
  H        0.2756770    -2.3364080     0.6567980
  H        2.6838580     1.7794620    -0.6595800
  H       -0.8491240     2.2156170    -0.2099720
  H        0.0735000     2.6566880     1.2394400
  H        0.7245490     3.0640340    -0.3581400
  H        2.6081740    -2.4970700    -0.1982670
  H        3.8302350    -0.4147610    -0.8445580
units angstrom
no_reorient  #important for SAPT in psi4, default
symmetry c1  #important for SAPT in psi4, default
}

set PROPERTIES_ORIGIN ["COM"]
properties('MP2/aug-cc-pvtz', properties = ['dipole'])
--------------------------------------------------------------------------

    Molecular point group: c1
  Charge       = -1
  Multiplicity = 1
  Basis Set: AUG-CC-PVTZ
    Blend: AUG-CC-PVTZ
  Basis Set: (AUG-CC-PVTZ AUX)
    Blend: AUG-CC-PVTZ-JKFIT

    Orbital Energies [Eh]
    ---------------------

    Doubly Occupied:

       1A    -20.330998     2A    -20.286878     3A    -11.155837
       4A    -11.118154     5A    -11.117620     6A    -11.115844
       7A    -11.115188     8A    -11.112683     9A    -11.105951
      10A    -11.096347    11A    -11.074440    12A     -1.214282
      13A     -1.053001    14A     -1.031958    15A     -0.928043
      16A     -0.907800    17A     -0.822292    18A     -0.789127
      19A     -0.689518    20A     -0.664528    21A     -0.562365
      22A     -0.537686    23A     -0.524206    24A     -0.500056
      25A     -0.470780    26A     -0.453771    27A     -0.442459
      28A     -0.431963    29A     -0.427589    30A     -0.413696
      31A     -0.383843    32A     -0.379704    33A     -0.365907
      34A     -0.353018    35A     -0.338398    36A     -0.240101
      37A     -0.210945    38A     -0.209304    39A     -0.199965
      40A     -0.172793

  @DF-RHF Final Energy:  -495.98188882018968

   => Energetics <=

    Nuclear Repulsion Energy =            572.6265821531534357
    One-Electron Energy =               -1824.5188626978099364
    Two-Electron Energy =                 755.9103917244666491
    Total Energy =                       -495.9818888201897380
  Basis Set: (AUG-CC-PVTZ AUX)
    Blend: AUG-CC-PVTZ-RI
    Molecular point group: c1

    Geometry (in Angstrom), charge = -1, multiplicity = 1:

       Center              X                  Y                   Z               Mass
    ------------   -----------------  -----------------  -----------------  -----------------
         O           -2.438079910319    -1.452633602326    -0.513316700542    15.994914619570
         O           -2.544112910319     0.830988397674    -0.686156700542    15.994914619570
         C            0.216503089681    -0.179089602326     0.558533299458    12.000000000000
         C            0.892386089681     0.992169397674     0.149343299458    12.000000000000
         C           -1.198365910319    -0.141190602326     1.054159299458    12.000000000000
         C            0.865206089681    -1.414795602326     0.414331299458    12.000000000000
         C            2.204948089681     0.891709397674    -0.327597700542    12.000000000000
         C            0.200823089681     2.329712397674     0.224132299458    12.000000000000
         C            2.169374089681    -1.503166602326    -0.073361700542    12.000000000000
         C            2.849906089681    -0.341924602326    -0.443423700542    12.000000000000
         C           -2.135146310319    -0.175364602326    -0.218005800542    12.000000000000
         H           -1.373132910319    -0.988492602326     1.725967299458     1.007825032230
         H           -1.401823910319     0.788602397674     1.594984299458     1.007825032230
         H            0.315196089681    -2.315800602326     0.679253299458     1.007825032230
         H            2.723377089681     1.800069397674    -0.637124700542     1.007825032230
         H           -0.809604910319     2.236224397674    -0.187516700542     1.007825032230
         H            0.113019089681     2.677295397674     1.261895299458     1.007825032230
         H            0.764068089681     3.084641397674    -0.335684700542     1.007825032230
         H            2.647693089681    -2.476462602326    -0.175811700542     1.007825032230
         H            3.869754089681    -0.394153602326    -0.822102700542     1.007825032230

  Basis Set: AUG-CC-PVTZ
    Blend: AUG-CC-PVTZ
  Basis Set: (AUG-CC-PVTZ AUX)
    Blend: AUG-CC-PVTZ-JKFIT
	 Reference Energy          =    -495.9818888201896812 [Eh]
	 Singles Energy            =      -0.0000000000000000 [Eh]
	 Same-Spin Energy          =      -0.5332005705315838 [Eh]
	 Opposite-Spin Energy      =      -1.6360136026872762 [Eh]
	 Correlation Energy        =      -2.1692141732188599 [Eh]
	 Total Energy              =    -498.1511029934085286 [Eh]

	 ================> DF-SCS-MP2 Energies <==================
	-----------------------------------------------------------
	 SCS Same-Spin Scale       =       0.3333333333333333 [-]
	 SCS Opposite-Spin Scale   =       1.2000000000000000 [-]
	 SCS Same-Spin Energy      =      -0.1777335235105279 [Eh]
	 SCS Opposite-Spin Energy  =      -1.9632163232247315 [Eh]
	 SCS Correlation Energy    =      -2.1409498467352592 [Eh]
	 SCS Total Energy          =    -498.1228386669249630 [Eh]
	-----------------------------------------------------------

  Dipole Moment: [D]
     X:     8.4903      Y:     2.3357      Z:     2.9311     Total:     9.2807

*** Psi4 exiting successfully. Buy a developer a beer!
