                               Psi4 1.4a3.dev225

  ==> Input File <==

--------------------------------------------------------------------------
#psi4
#
memory 32 gb

molecule  {
-1 1
  O       -2.4775990    -1.4732410    -0.5357720
  O       -2.5836320     0.8103810    -0.7086120
  C        0.1769840    -0.1996970     0.5360780
  C        0.8528670     0.9715620     0.1268880
  C       -1.2378850    -0.1617980     1.0317040
  C        0.8256870    -1.4354030     0.3918760
  C        2.1654290     0.8711020    -0.3500530
  C        0.0695608     2.4865444     0.2115986
  C        2.1298550    -1.5237740    -0.0958170
  C        2.8103870    -0.3625320    -0.4658790
  C       -2.2184660    -0.2891600    -0.2009230
  H       -1.4126520    -1.0091000     1.7035120
  H       -1.4413430     0.7679950     1.5725290
  H        0.2756770    -2.3364080     0.6567980
  H        2.6838580     1.7794620    -0.6595800
  H       -0.8491240     2.2156170    -0.2099720
  H        0.0735000     2.6566880     1.2394400
  H        0.7245490     3.0640340    -0.3581400
  H        2.6081740    -2.4970700    -0.1982670
  H        3.8302350    -0.4147610    -0.8445580
units angstrom
no_reorient  #important for SAPT in psi4, default
symmetry c1  #important for SAPT in psi4, default
}

set PROPERTIES_ORIGIN ["COM"]
properties('MP2/aug-cc-pvtz', properties = ['dipole'])
--------------------------------------------------------------------------

    Molecular point group: c1
  Charge       = -1
  Multiplicity = 1
  Basis Set: AUG-CC-PVTZ
    Blend: AUG-CC-PVTZ
  Basis Set: (AUG-CC-PVTZ AUX)
    Blend: AUG-CC-PVTZ-JKFIT

    Orbital Energies [Eh]
    ---------------------

    Doubly Occupied:

       1A    -20.309550     2A    -20.309057     3A    -11.156854
       4A    -11.123315     5A    -11.118254     6A    -11.115877
       7A    -11.115235     8A    -11.112880     9A    -11.106707
      10A    -11.093531    11A    -11.073589    12A     -1.179349
      13A     -1.083533    14A     -1.027656    15A     -0.919231
      16A     -0.899669    17A     -0.821896    18A     -0.792094
      19A     -0.688488    20A     -0.664996    21A     -0.560441
      22A     -0.532126    23A     -0.521095    24A     -0.494145
      25A     -0.474214    26A     -0.456848    27A     -0.445460
      28A     -0.432489    29A     -0.431161    30A     -0.417930
      31A     -0.378782    32A     -0.374030    33A     -0.368217
      34A     -0.337589    35A     -0.313290    36A     -0.234870
      37A     -0.226239    38A     -0.212912    39A     -0.207474
      40A     -0.177309

  @DF-RHF Final Energy:  -495.97059052211017

   => Energetics <=

    Nuclear Repulsion Energy =            568.6804059293899627
    One-Electron Energy =               -1816.6852275004864623
    Two-Electron Energy =                 752.0342310489863848
    Total Energy =                       -495.9705905221101148
  Basis Set: (AUG-CC-PVTZ AUX)
    Blend: AUG-CC-PVTZ-RI
    Molecular point group: c1

    Geometry (in Angstrom), charge = -1, multiplicity = 1:

       Center              X                  Y                   Z               Mass
    ------------   -----------------  -----------------  -----------------  -----------------
         O           -2.427168043805    -1.459416207140    -0.517298421906    15.994914619570
         O           -2.533201043805     0.824205792860    -0.690138421906    15.994914619570
         C            0.227414956195    -0.185872207140     0.554551578094    12.000000000000
         C            0.903297956195     0.985386792860     0.145361578094    12.000000000000
         C           -1.187454043805    -0.147973207140     1.050177578094    12.000000000000
         C            0.876117956195    -1.421578207140     0.410349578094    12.000000000000
         C            2.215859956195     0.884926792860    -0.331579421906    12.000000000000
         C            0.119991756195     2.500369192860     0.230072178094    12.000000000000
         C            2.180285956195    -1.509949207140    -0.077343421906    12.000000000000
         C            2.860817956195    -0.348707207140    -0.447405421906    12.000000000000
         C           -2.168035043805    -0.275335207140    -0.182449421906    12.000000000000
         H           -1.362221043805    -0.995275207140     1.721985578094     1.007825032230
         H           -1.390912043805     0.781819792860     1.591002578094     1.007825032230
         H            0.326107956195    -2.322583207140     0.675271578094     1.007825032230
         H            2.734288956195     1.793286792860    -0.641106421906     1.007825032230
         H           -0.798693043805     2.229441792860    -0.191498421906     1.007825032230
         H            0.123930956195     2.670512792860     1.257913578094     1.007825032230
         H            0.774979956195     3.077858792860    -0.339666421906     1.007825032230
         H            2.658604956195    -2.483245207140    -0.179793421906     1.007825032230
         H            3.880665956195    -0.400936207140    -0.826084421906     1.007825032230

  Basis Set: AUG-CC-PVTZ
    Blend: AUG-CC-PVTZ
  Basis Set: (AUG-CC-PVTZ AUX)
    Blend: AUG-CC-PVTZ-JKFIT
	 Reference Energy          =    -495.9705905221101716 [Eh]
	 Singles Energy            =      -0.0000000000000000 [Eh]
	 Same-Spin Energy          =      -0.5327448943323192 [Eh]
	 Opposite-Spin Energy      =      -1.6366468975936916 [Eh]
	 Correlation Energy        =      -2.1693917919260111 [Eh]
	 Total Energy              =    -498.1399823140361605 [Eh]

	 ================> DF-SCS-MP2 Energies <==================
	-----------------------------------------------------------
	 SCS Same-Spin Scale       =       0.3333333333333333 [-]
	 SCS Opposite-Spin Scale   =       1.2000000000000000 [-]
	 SCS Same-Spin Energy      =      -0.1775816314441064 [Eh]
	 SCS Opposite-Spin Energy  =      -1.9639762771124298 [Eh]
	 SCS Correlation Energy    =      -2.1415579085565364 [Eh]
	 SCS Total Energy          =    -498.1121484306667071 [Eh]
	-----------------------------------------------------------

  Dipole Moment: [D]
     X:     8.5357      Y:     1.3574      Z:     2.9786     Total:     9.1419

*** Psi4 exiting successfully. Buy a developer a beer!
