                               Psi4 1.4a3.dev225

  ==> Input File <==

--------------------------------------------------------------------------
#psi4
#
memory 32 gb

molecule  {
-1 1
  O       -2.4775990    -1.4732410    -0.5357720
  O       -2.5836320     0.8103810    -0.7086120
  C        0.1769840    -0.1996970     0.5360780
  C        0.8528670     0.9715620     0.1268880
  C       -1.2378850    -0.1617980     1.0317040
  C        0.8256870    -1.4354030     0.3918760
  C        2.1654290     0.8711020    -0.3500530
  C        0.1613040     2.3091050     0.2016770
  C        2.1298550    -1.5237740    -0.0958170
  C        2.8103870    -0.3625320    -0.4658790
  C       -2.2184660    -0.2891600    -0.2009230
  H       -1.4126520    -1.0091000     1.7035120
  H       -1.4413430     0.7679950     1.5725290
  H        0.2756770    -2.3364080     0.6567980
  H        2.7076232     1.8211020    -0.6737690
  H       -0.8491240     2.2156170    -0.2099720
  H        0.0735000     2.6566880     1.2394400
  H        0.7245490     3.0640340    -0.3581400
  H        2.6081740    -2.4970700    -0.1982670
  H        3.8302350    -0.4147610    -0.8445580
units angstrom
no_reorient  #important for SAPT in psi4, default
symmetry c1  #important for SAPT in psi4, default
}

set PROPERTIES_ORIGIN ["COM"]
properties('MP2/aug-cc-pvtz', properties = ['dipole'])
--------------------------------------------------------------------------

    Molecular point group: c1
  Charge       = -1
  Multiplicity = 1
  Basis Set: AUG-CC-PVTZ
    Blend: AUG-CC-PVTZ
  Basis Set: (AUG-CC-PVTZ AUX)
    Blend: AUG-CC-PVTZ-JKFIT

    Orbital Energies [Eh]
    ---------------------

    Doubly Occupied:

       1A    -20.309343     2A    -20.309189     3A    -11.157108
       4A    -11.121341     5A    -11.118858     6A    -11.117631
       7A    -11.116571     8A    -11.113269     9A    -11.107318
      10A    -11.092202    11A    -11.074003    12A     -1.179418
      13A     -1.083559    14A     -1.032403    15A     -0.927327
      16A     -0.906835    17A     -0.820782    18A     -0.787989
      19A     -0.686763    20A     -0.664631    21A     -0.560727
      22A     -0.533357    23A     -0.523432    24A     -0.495789
      25A     -0.461421    26A     -0.451711    27A     -0.440022
      28A     -0.428568    29A     -0.425510    30A     -0.411492
      31A     -0.384605    32A     -0.374499    33A     -0.365077
      34A     -0.350983    35A     -0.333137    36A     -0.235448
      37A     -0.225741    38A     -0.211590    39A     -0.207479
      40A     -0.176573

  @DF-RHF Final Energy:  -495.99475353576571

   => Energetics <=

    Nuclear Repulsion Energy =            571.7687445568294606
    One-Electron Energy =               -1822.8795930975297779
    Two-Electron Energy =                 755.1160950049346638
    Total Energy =                       -495.9947535357656534
  Basis Set: (AUG-CC-PVTZ AUX)
    Blend: AUG-CC-PVTZ-RI
    Molecular point group: c1

    Geometry (in Angstrom), charge = -1, multiplicity = 1:

       Center              X                  Y                   Z               Mass
    ------------   -----------------  -----------------  -----------------  -----------------
         O           -2.434714452249    -1.445413098315    -0.516403755317    15.994914619570
         O           -2.540747452249     0.838208901685    -0.689243755317    15.994914619570
         C            0.219868547751    -0.171869098315     0.555446244683    12.000000000000
         C            0.895751547751     0.999389901685     0.146256244683    12.000000000000
         C           -1.195000452249    -0.133970098315     1.051072244683    12.000000000000
         C            0.868571547751    -1.407575098315     0.411244244683    12.000000000000
         C            2.208313547751     0.898929901685    -0.330684755317    12.000000000000
         C            0.204188547751     2.336932901685     0.221045244683    12.000000000000
         C            2.172739547751    -1.495946098315    -0.076448755317    12.000000000000
         C            2.853271547751    -0.334704098315    -0.446510755317    12.000000000000
         C           -2.175581452249    -0.261332098315    -0.181554755317    12.000000000000
         H           -1.369767452249    -0.981272098315     1.722880244683     1.007825032230
         H           -1.398458452249     0.795822901685     1.591897244683     1.007825032230
         H            0.318561547751    -2.308580098315     0.676166244683     1.007825032230
         H            2.750507747751     1.848929901685    -0.654400755317     1.007825032230
         H           -0.806239452249     2.243444901685    -0.190603755317     1.007825032230
         H            0.116384547751     2.684515901685     1.258808244683     1.007825032230
         H            0.767433547751     3.091861901685    -0.338771755317     1.007825032230
         H            2.651058547751    -2.469242098315    -0.178898755317     1.007825032230
         H            3.873119547751    -0.386933098315    -0.825189755317     1.007825032230

  Basis Set: AUG-CC-PVTZ
    Blend: AUG-CC-PVTZ
  Basis Set: (AUG-CC-PVTZ AUX)
    Blend: AUG-CC-PVTZ-JKFIT
	 Reference Energy          =    -495.9947535357657102 [Eh]
	 Singles Energy            =      -0.0000000000000000 [Eh]
	 Same-Spin Energy          =      -0.5331322911143910 [Eh]
	 Opposite-Spin Energy      =      -1.6359431517317560 [Eh]
	 Correlation Energy        =      -2.1690754428461467 [Eh]
	 Total Energy              =    -498.1638289786118321 [Eh]

	 ================> DF-SCS-MP2 Energies <==================
	-----------------------------------------------------------
	 SCS Same-Spin Scale       =       0.3333333333333333 [-]
	 SCS Opposite-Spin Scale   =       1.2000000000000000 [-]
	 SCS Same-Spin Energy      =      -0.1777107637047970 [Eh]
	 SCS Opposite-Spin Energy  =      -1.9631317820781071 [Eh]
	 SCS Correlation Energy    =      -2.1408425457829039 [Eh]
	 SCS Total Energy          =    -498.1355960815486128 [Eh]
	-----------------------------------------------------------

  Dipole Moment: [D]
     X:     8.4584      Y:     1.3592      Z:     2.9800     Total:     9.0704

*** Psi4 exiting successfully. Buy a developer a beer!
