                               Psi4 1.4a3.dev225

  ==> Input File <==

--------------------------------------------------------------------------
#psi4
#
memory 32 gb

molecule  {
-1 1
  O       -2.4775990    -1.4732410    -0.5357720
  O       -2.5836320     0.8103810    -0.7086120
  C        0.1769840    -0.1996970     0.5360780
  C        0.8528670     0.9715620     0.1268880
  C       -1.2378850    -0.1617980     1.0317040
  C        0.8256870    -1.4354030     0.3918760
  C        2.1654290     0.8711020    -0.3500530
  C        0.1613040     2.3091050     0.2016770
  C        2.1298550    -1.5237740    -0.0958170
  C        2.8103870    -0.3625320    -0.4658790
  C       -2.2184660    -0.2891600    -0.2009230
  H       -1.4206297    -1.0477772     1.7341784
  H       -1.4413430     0.7679950     1.5725290
  H        0.2756770    -2.3364080     0.6567980
  H        2.6838580     1.7794620    -0.6595800
  H       -0.8491240     2.2156170    -0.2099720
  H        0.0735000     2.6566880     1.2394400
  H        0.7245490     3.0640340    -0.3581400
  H        2.6081740    -2.4970700    -0.1982670
  H        3.8302350    -0.4147610    -0.8445580
units angstrom
no_reorient  #important for SAPT in psi4, default
symmetry c1  #important for SAPT in psi4, default
}

set PROPERTIES_ORIGIN ["COM"]
properties('MP2/aug-cc-pvtz', properties = ['dipole'])
--------------------------------------------------------------------------

    Molecular point group: c1
  Charge       = -1
  Multiplicity = 1
  Basis Set: AUG-CC-PVTZ
    Blend: AUG-CC-PVTZ
  Basis Set: (AUG-CC-PVTZ AUX)
    Blend: AUG-CC-PVTZ-JKFIT

    Orbital Energies [Eh]
    ---------------------

    Doubly Occupied:

       1A    -20.309774     2A    -20.308994     3A    -11.157458
       4A    -11.118644     5A    -11.117579     6A    -11.116186
       7A    -11.114911     8A    -11.113152     9A    -11.107105
      10A    -11.092518    11A    -11.079899    12A     -1.179510
      13A     -1.083672    14A     -1.032409    15A     -0.926917
      16A     -0.907433    17A     -0.820142    18A     -0.786530
      19A     -0.689464    20A     -0.664175    21A     -0.562580
      22A     -0.532579    23A     -0.522162    24A     -0.499203
      25A     -0.461576    26A     -0.453518    27A     -0.439948
      28A     -0.426411    29A     -0.425428    30A     -0.412660
      31A     -0.382565    32A     -0.373938    33A     -0.364777
      34A     -0.349955    35A     -0.332963    36A     -0.235512
      37A     -0.225449    38A     -0.211539    39A     -0.207315
      40A     -0.176614

  @DF-RHF Final Energy:  -495.99494918478564

   => Energetics <=

    Nuclear Repulsion Energy =            571.7662517879386996
    One-Electron Energy =               -1822.8760665078225429
    Two-Electron Energy =                 755.1148655350982608
    Total Energy =                       -495.9949491847855825
  Basis Set: (AUG-CC-PVTZ AUX)
    Blend: AUG-CC-PVTZ-RI
    Molecular point group: c1

    Geometry (in Angstrom), charge = -1, multiplicity = 1:

       Center              X                  Y                   Z               Mass
    ------------   -----------------  -----------------  -----------------  -----------------
         O           -2.434499832401    -1.444870058288    -0.516707031299    15.994914619570
         O           -2.540532832401     0.838751941712    -0.689547031299    15.994914619570
         C            0.220083167599    -0.171326058288     0.555142968701    12.000000000000
         C            0.895966167599     0.999932941712     0.145952968701    12.000000000000
         C           -1.194785832401    -0.133427058288     1.050768968701    12.000000000000
         C            0.868786167599    -1.407032058288     0.410940968701    12.000000000000
         C            2.208528167599     0.899472941712    -0.330988031299    12.000000000000
         C            0.204403167599     2.337475941712     0.220741968701    12.000000000000
         C            2.172954167599    -1.495403058288    -0.076752031299    12.000000000000
         C            2.853486167599    -0.334161058288    -0.446814031299    12.000000000000
         C           -2.175366832401    -0.260789058288    -0.181858031299    12.000000000000
         H           -1.377530532401    -1.019406258288     1.753243368701     1.007825032230
         H           -1.398243832401     0.796365941712     1.591593968701     1.007825032230
         H            0.318776167599    -2.308037058288     0.675862968701     1.007825032230
         H            2.726957167599     1.807832941712    -0.640515031299     1.007825032230
         H           -0.806024832401     2.243987941712    -0.190907031299     1.007825032230
         H            0.116599167599     2.685058941712     1.258504968701     1.007825032230
         H            0.767648167599     3.092404941712    -0.339075031299     1.007825032230
         H            2.651273167599    -2.468699058288    -0.179202031299     1.007825032230
         H            3.873334167599    -0.386390058288    -0.825493031299     1.007825032230

  Basis Set: AUG-CC-PVTZ
    Blend: AUG-CC-PVTZ
  Basis Set: (AUG-CC-PVTZ AUX)
    Blend: AUG-CC-PVTZ-JKFIT
	 Reference Energy          =    -495.9949491847856393 [Eh]
	 Singles Energy            =      -0.0000000000000000 [Eh]
	 Same-Spin Energy          =      -0.5330724807964720 [Eh]
	 Opposite-Spin Energy      =      -1.6359342980544938 [Eh]
	 Correlation Energy        =      -2.1690067788509655 [Eh]
	 Total Energy              =    -498.1639559636366243 [Eh]

	 ================> DF-SCS-MP2 Energies <==================
	-----------------------------------------------------------
	 SCS Same-Spin Scale       =       0.3333333333333333 [-]
	 SCS Opposite-Spin Scale   =       1.2000000000000000 [-]
	 SCS Same-Spin Energy      =      -0.1776908269321573 [Eh]
	 SCS Opposite-Spin Energy  =      -1.9631211576653924 [Eh]
	 SCS Correlation Energy    =      -2.1408119845975495 [Eh]
	 SCS Total Energy          =    -498.1357611693832155 [Eh]
	-----------------------------------------------------------

  Dipole Moment: [D]
     X:     8.4959      Y:     1.4130      Z:     2.9333     Total:     9.0985

*** Psi4 exiting successfully. Buy a developer a beer!
