                               Psi4 1.4a3.dev225

  ==> Input File <==

--------------------------------------------------------------------------
#psi4
#
memory 32 gb

molecule  {
-1 1
  O       -2.4775990    -1.4732410    -0.5357720
  O       -2.5836320     0.8103810    -0.7086120
  C        0.1769840    -0.1996970     0.5360780
  C        0.8528670     0.9715620     0.1268880
  C       -1.2378850    -0.1617980     1.0317040
  C        0.8256870    -1.4354030     0.3918760
  C        2.1654290     0.8711020    -0.3500530
  C        0.1613040     2.3091050     0.2016770
  C        2.1298550    -1.5237740    -0.0958170
  C        2.8103870    -0.3625320    -0.4658790
  C       -2.2329001    -0.2456980    -0.2209906
  H       -1.4126520    -1.0091000     1.7035120
  H       -1.4413430     0.7679950     1.5725290
  H        0.2756770    -2.3364080     0.6567980
  H        2.6838580     1.7794620    -0.6595800
  H       -0.8491240     2.2156170    -0.2099720
  H        0.0735000     2.6566880     1.2394400
  H        0.7245490     3.0640340    -0.3581400
  H        2.6081740    -2.4970700    -0.1982670
  H        3.8302350    -0.4147610    -0.8445580
units angstrom
no_reorient  #important for SAPT in psi4, default
symmetry c1  #important for SAPT in psi4, default
}

set PROPERTIES_ORIGIN ["COM"]
properties('MP2/aug-cc-pvtz', properties = ['dipole'])
--------------------------------------------------------------------------

    Molecular point group: c1
  Charge       = -1
  Multiplicity = 1
  Basis Set: AUG-CC-PVTZ
    Blend: AUG-CC-PVTZ
  Basis Set: (AUG-CC-PVTZ AUX)
    Blend: AUG-CC-PVTZ-JKFIT

    Orbital Energies [Eh]
    ---------------------

    Doubly Occupied:

       1A    -20.321526     2A    -20.299866     3A    -11.157237
       4A    -11.117318     5A    -11.116325     6A    -11.115125
       7A    -11.114085     8A    -11.111548     9A    -11.105369
      10A    -11.093692    11A    -11.071308    12A     -1.195387
      13A     -1.081956    14A     -1.031183    15A     -0.926032
      16A     -0.906201    17A     -0.819546    18A     -0.785809
      19A     -0.688459    20A     -0.662928    21A     -0.561055
      22A     -0.532434    23A     -0.522558    24A     -0.498607
      25A     -0.464995    26A     -0.452499    27A     -0.440358
      28A     -0.428273    29A     -0.427765    30A     -0.412010
      31A     -0.385422    32A     -0.377837    33A     -0.364771
      34A     -0.351762    35A     -0.336525    36A     -0.239402
      37A     -0.221844    38A     -0.212154    39A     -0.206598
      40A     -0.171859

  @DF-RHF Final Energy:  -495.99440196818040

   => Energetics <=

    Nuclear Repulsion Energy =            572.0274741416617417
    One-Electron Energy =               -1823.3844911116057119
    Two-Electron Energy =                 755.3626150017635155
    Total Energy =                       -495.9944019681804548
  Basis Set: (AUG-CC-PVTZ AUX)
    Blend: AUG-CC-PVTZ-RI
    Molecular point group: c1

    Geometry (in Angstrom), charge = -1, multiplicity = 1:

       Center              X                  Y                   Z               Mass
    ------------   -----------------  -----------------  -----------------  -----------------
         O           -2.433391763219    -1.448630442651    -0.514884160632    15.994914619570
         O           -2.539424763219     0.834991557349    -0.687724160632    15.994914619570
         C            0.221191236781    -0.175086442651     0.556965839368    12.000000000000
         C            0.897074236781     0.996172557349     0.147775839368    12.000000000000
         C           -1.193677763219    -0.137187442651     1.052591839368    12.000000000000
         C            0.869894236781    -1.410792442651     0.412763839368    12.000000000000
         C            2.209636236781     0.895712557349    -0.329165160632    12.000000000000
         C            0.205511236781     2.333715557349     0.222564839368    12.000000000000
         C            2.174062236781    -1.499163442651    -0.074929160632    12.000000000000
         C            2.854594236781    -0.337921442651    -0.444991160632    12.000000000000
         C           -2.188692863219    -0.221087442651    -0.200102760632    12.000000000000
         H           -1.368444763219    -0.984489442651     1.724399839368     1.007825032230
         H           -1.397135763219     0.792605557349     1.593416839368     1.007825032230
         H            0.319884236781    -2.311797442651     0.677685839368     1.007825032230
         H            2.728065236781     1.804072557349    -0.638692160632     1.007825032230
         H           -0.804916763219     2.240227557349    -0.189084160632     1.007825032230
         H            0.117707236781     2.681298557349     1.260327839368     1.007825032230
         H            0.768756236781     3.088644557349    -0.337252160632     1.007825032230
         H            2.652381236781    -2.472459442651    -0.177379160632     1.007825032230
         H            3.874442236781    -0.390150442651    -0.823670160632     1.007825032230

  Basis Set: AUG-CC-PVTZ
    Blend: AUG-CC-PVTZ
  Basis Set: (AUG-CC-PVTZ AUX)
    Blend: AUG-CC-PVTZ-JKFIT
	 Reference Energy          =    -495.9944019681803979 [Eh]
	 Singles Energy            =      -0.0000000000000000 [Eh]
	 Same-Spin Energy          =      -0.5328137930520515 [Eh]
	 Opposite-Spin Energy      =      -1.6349715835779617 [Eh]
	 Correlation Energy        =      -2.1677853766300132 [Eh]
	 Total Energy              =    -498.1621873448104338 [Eh]

	 ================> DF-SCS-MP2 Energies <==================
	-----------------------------------------------------------
	 SCS Same-Spin Scale       =       0.3333333333333333 [-]
	 SCS Opposite-Spin Scale   =       1.2000000000000000 [-]
	 SCS Same-Spin Energy      =      -0.1776045976840172 [Eh]
	 SCS Opposite-Spin Energy  =      -1.9619659002935539 [Eh]
	 SCS Correlation Energy    =      -2.1395704979775712 [Eh]
	 SCS Total Energy          =    -498.1339724661579567 [Eh]
	-----------------------------------------------------------

  Dipole Moment: [D]
     X:     8.3156      Y:     1.8353      Z:     2.8408     Total:     8.9771

*** Psi4 exiting successfully. Buy a developer a beer!
