                               Psi4 1.4a3.dev225

  ==> Input File <==

--------------------------------------------------------------------------
#psi4
#
memory 32 gb

molecule  {
0 1
  S       -0.2843280    -1.0417270    -0.4821980
  S       -1.2930110    -0.0875030     1.0369290
  C        2.1238360     0.2887940     0.2038120
  C        1.0396170     0.1533370    -0.8629480
  C        2.9192610    -1.0021330     0.3722660
  C        3.0446920     1.4546940    -0.1566970
  C       -2.4716130     0.9595520     0.1214340
  C       -3.5526440     0.1784480    -0.6085900
  H        1.6262820     0.5245100     1.1534320
  H        0.5779620     1.1249640    -1.0704080
  H        1.4790150    -0.2072190    -1.8028130
  H        3.4447910    -1.2503440    -0.5572920
  H        3.6685600    -0.8925200     1.1622280
  H        2.2391643    -1.8793400     0.6440798
  H        3.5445550     1.2705440    -1.1143240
  H        3.8190690     1.5865110     0.6053070
  H        2.4877540     2.3935860    -0.2389230
  H       -2.9081880     1.6071800     0.8902120
  H       -1.9135990     1.6021400    -0.5664420
  H       -3.1113200    -0.4862750    -1.3548320
  H       -4.1326660    -0.4262330     0.0924510
  H       -4.2326140     0.8656560    -1.1221410
units angstrom
no_reorient  #important for SAPT in psi4, default
symmetry c1  #important for SAPT in psi4, default
}

set PROPERTIES_ORIGIN ["COM"]
properties('MP2/aug-cc-pvtz', properties = ['dipole'])
--------------------------------------------------------------------------

    Molecular point group: c1
  Charge       = 0
  Multiplicity = 1
  Basis Set: AUG-CC-PVTZ
    Blend: AUG-CC-PVTZ
  Basis Set: (AUG-CC-PVTZ AUX)
    Blend: AUG-CC-PVTZ-JKFIT

    Orbital Energies [Eh]
    ---------------------

    Doubly Occupied:

       1A    -91.967425     2A    -91.966817     3A    -11.262034
       4A    -11.257629     5A    -11.231434     6A    -11.221228
       7A    -11.217324     8A    -11.215882     9A     -8.966263
      10A     -8.965593    11A     -6.647364    12A     -6.646650
      13A     -6.646096    14A     -6.645452    15A     -6.645278
      16A     -6.644653    17A     -1.110522    18A     -1.076407
      19A     -1.011539    20A     -0.934837    21A     -0.928125
      22A     -0.860822    23A     -0.793100    24A     -0.751658
      25A     -0.643207    26A     -0.629464    27A     -0.602892
      28A     -0.590065    29A     -0.585677    30A     -0.551661
      31A     -0.540957    32A     -0.535208    33A     -0.512973
      34A     -0.505088    35A     -0.492585    36A     -0.474540
      37A     -0.471945    38A     -0.452249    39A     -0.428333
      40A     -0.352682    41A     -0.343974

  @DF-RHF Final Energy: -1030.54591103796497

   => Energetics <=

    Nuclear Repulsion Energy =            555.5459486694763882
    One-Electron Energy =               -2521.5284551388854197
    Two-Electron Energy =                 935.4365954314441751
    Total Energy =                      -1030.5459110379649701
  Basis Set: (AUG-CC-PVTZ AUX)
    Blend: AUG-CC-PVTZ-RI
    Molecular point group: c1

    Geometry (in Angstrom), charge = 0, multiplicity = 1:

       Center              X                  Y                   Z               Mass
    ------------   -----------------  -----------------  -----------------  -----------------
         S           -0.240659070225    -1.002856158780    -0.503937524252    31.972071174400
         S           -1.249342070225    -0.048632158780     1.015189475748    31.972071174400
         C            2.167504929775     0.327664841220     0.182072475748    12.000000000000
         C            1.083285929775     0.192207841220    -0.884687524252    12.000000000000
         C            2.962929929775    -0.963262158780     0.350526475748    12.000000000000
         C            3.088360929775     1.493564841220    -0.178436524252    12.000000000000
         C           -2.427944070225     0.998422841220     0.099694475748    12.000000000000
         C           -3.508975070225     0.217318841220    -0.630329524252    12.000000000000
         H            1.669950929775     0.563380841220     1.131692475748     1.007825032230
         H            0.621630929775     1.163834841220    -1.092147524252     1.007825032230
         H            1.522683929775    -0.168348158780    -1.824552524252     1.007825032230
         H            3.488459929775    -1.211473158780    -0.579031524252     1.007825032230
         H            3.712228929775    -0.853649158780     1.140488475748     1.007825032230
         H            2.282833229775    -1.840469158780     0.622340275748     1.007825032230
         H            3.588223929775     1.309414841220    -1.136063524252     1.007825032230
         H            3.862737929775     1.625381841220     0.583567475748     1.007825032230
         H            2.531422929775     2.432456841220    -0.260662524252     1.007825032230
         H           -2.864519070225     1.646050841220     0.868472475748     1.007825032230
         H           -1.869930070225     1.641010841220    -0.588181524252     1.007825032230
         H           -3.067651070225    -0.447404158780    -1.376571524252     1.007825032230
         H           -4.088997070225    -0.387362158780     0.070711475748     1.007825032230
         H           -4.188945070225     0.904526841220    -1.143880524252     1.007825032230

  Basis Set: AUG-CC-PVTZ
    Blend: AUG-CC-PVTZ
  Basis Set: (AUG-CC-PVTZ AUX)
    Blend: AUG-CC-PVTZ-JKFIT
	 Reference Energy          =   -1030.5459110379649701 [Eh]
	 Singles Energy            =      -0.0000000000000000 [Eh]
	 Same-Spin Energy          =      -0.3701672943451905 [Eh]
	 Opposite-Spin Energy      =      -1.2693025101928124 [Eh]
	 Correlation Energy        =      -1.6394698045380030 [Eh]
	 Total Energy              =   -1032.1853808425030365 [Eh]

	 ================> DF-SCS-MP2 Energies <==================
	-----------------------------------------------------------
	 SCS Same-Spin Scale       =       0.3333333333333333 [-]
	 SCS Opposite-Spin Scale   =       1.2000000000000000 [-]
	 SCS Same-Spin Energy      =      -0.1233890981150635 [Eh]
	 SCS Opposite-Spin Energy  =      -1.5231630122313748 [Eh]
	 SCS Correlation Energy    =      -1.6465521103464382 [Eh]
	 SCS Total Energy          =   -1032.1924631483113899 [Eh]
	-----------------------------------------------------------

  Dipole Moment: [D]
     X:     0.1255      Y:     1.7921      Z:    -0.8691     Total:     1.9957

*** Psi4 exiting successfully. Buy a developer a beer!
