                               Psi4 1.4a3.dev225

  ==> Input File <==

--------------------------------------------------------------------------
#psi4
#
memory 32 gb

molecule  {
0 1
  S       -0.2843280    -1.0417270    -0.4821980
  S       -1.2930110    -0.0875030     1.0369290
  C        2.1238360     0.2887940     0.2038120
  C        1.0396170     0.1533370    -0.8629480
  C        2.9192610    -1.0021330     0.3722660
  C        3.0446920     1.4546940    -0.1566970
  C       -2.4716130     0.9595520     0.1214340
  C       -3.5526440     0.1784480    -0.6085900
  H        1.6262820     0.5245100     1.1534320
  H        0.5779620     1.1249640    -1.0704080
  H        1.4790150    -0.2072190    -1.8028130
  H        3.4447910    -1.2503440    -0.5572920
  H        3.6685600    -0.8925200     1.1622280
  H        2.2689210    -1.8409590     0.6321870
  H        3.5445550     1.2705440    -1.1143240
  H        3.8190690     1.5865110     0.6053070
  H        2.4877540     2.3935860    -0.2389230
  H       -2.9081880     1.6071800     0.8902120
  H       -1.8881024     1.6315009    -0.5978722
  H       -3.1113200    -0.4862750    -1.3548320
  H       -4.1326660    -0.4262330     0.0924510
  H       -4.2326140     0.8656560    -1.1221410
units angstrom
no_reorient  #important for SAPT in psi4, default
symmetry c1  #important for SAPT in psi4, default
}

set PROPERTIES_ORIGIN ["COM"]
properties('MP2/aug-cc-pvtz', properties = ['dipole'])
--------------------------------------------------------------------------

    Molecular point group: c1
  Charge       = 0
  Multiplicity = 1
  Basis Set: AUG-CC-PVTZ
    Blend: AUG-CC-PVTZ
  Basis Set: (AUG-CC-PVTZ AUX)
    Blend: AUG-CC-PVTZ-JKFIT

    Orbital Energies [Eh]
    ---------------------

    Doubly Occupied:

       1A    -91.967971     2A    -91.967069     3A    -11.267852
       4A    -11.257550     5A    -11.230944     6A    -11.221775
       7A    -11.216817     8A    -11.210087     9A     -8.966779
      10A     -8.965844    11A     -6.647869    12A     -6.646920
      13A     -6.646605    14A     -6.645798    15A     -6.645698
      16A     -6.644900    17A     -1.110509    18A     -1.075342
      19A     -1.011227    20A     -0.935261    21A     -0.931120
      22A     -0.859348    23A     -0.791801    24A     -0.750448
      25A     -0.642979    26A     -0.626314    27A     -0.604784
      28A     -0.591834    29A     -0.585209    30A     -0.551459
      31A     -0.541143    32A     -0.534955    33A     -0.511584
      34A     -0.507354    35A     -0.492307    36A     -0.475470
      37A     -0.471600    38A     -0.452731    39A     -0.428214
      40A     -0.352859    41A     -0.344172

  @DF-RHF Final Energy: -1030.54583745402829

   => Energetics <=

    Nuclear Repulsion Energy =            555.5076293784461541
    One-Electron Energy =               -2521.4459302803247738
    Two-Electron Energy =                 935.3924634478503322
    Total Energy =                      -1030.5458374540282875
  Basis Set: (AUG-CC-PVTZ AUX)
    Blend: AUG-CC-PVTZ-RI
    Molecular point group: c1

    Geometry (in Angstrom), charge = 0, multiplicity = 1:

       Center              X                  Y                   Z               Mass
    ------------   -----------------  -----------------  -----------------  -----------------
         S           -0.241030175113    -1.003311142468    -0.503646548382    31.972071174400
         S           -1.249713175113    -0.049087142468     1.015480451618    31.972071174400
         C            2.167133824887     0.327209857532     0.182363451618    12.000000000000
         C            1.082914824887     0.191752857532    -0.884396548382    12.000000000000
         C            2.962558824887    -0.963717142468     0.350817451618    12.000000000000
         C            3.087989824887     1.493109857532    -0.178145548382    12.000000000000
         C           -2.428315175113     0.997967857532     0.099985451618    12.000000000000
         C           -3.509346175113     0.216863857532    -0.630038548382    12.000000000000
         H            1.669579824887     0.562925857532     1.131983451618     1.007825032230
         H            0.621259824887     1.163379857532    -1.091856548382     1.007825032230
         H            1.522312824887    -0.168803142468    -1.824261548382     1.007825032230
         H            3.488088824887    -1.211928142468    -0.578740548382     1.007825032230
         H            3.711857824887    -0.854104142468     1.140779451618     1.007825032230
         H            2.312218824887    -1.802543142468     0.610738451618     1.007825032230
         H            3.587852824887     1.308959857532    -1.135772548382     1.007825032230
         H            3.862366824887     1.624926857532     0.583858451618     1.007825032230
         H            2.531051824887     2.432001857532    -0.260371548382     1.007825032230
         H           -2.864890175113     1.645595857532     0.868763451618     1.007825032230
         H           -1.844804575113     1.669916757532    -0.619320748382     1.007825032230
         H           -3.068022175113    -0.447859142468    -1.376280548382     1.007825032230
         H           -4.089368175113    -0.387817142468     0.071002451618     1.007825032230
         H           -4.189316175113     0.904071857532    -1.143589548382     1.007825032230

  Basis Set: AUG-CC-PVTZ
    Blend: AUG-CC-PVTZ
  Basis Set: (AUG-CC-PVTZ AUX)
    Blend: AUG-CC-PVTZ-JKFIT
	 Reference Energy          =   -1030.5458374540282875 [Eh]
	 Singles Energy            =      -0.0000000000000000 [Eh]
	 Same-Spin Energy          =      -0.3701935595360981 [Eh]
	 Opposite-Spin Energy      =      -1.2692877234401767 [Eh]
	 Correlation Energy        =      -1.6394812829762748 [Eh]
	 Total Energy              =   -1032.1853187370045362 [Eh]

	 ================> DF-SCS-MP2 Energies <==================
	-----------------------------------------------------------
	 SCS Same-Spin Scale       =       0.3333333333333333 [-]
	 SCS Opposite-Spin Scale   =       1.2000000000000000 [-]
	 SCS Same-Spin Energy      =      -0.1233978531786994 [Eh]
	 SCS Opposite-Spin Energy  =      -1.5231452681282120 [Eh]
	 SCS Correlation Energy    =      -1.6465431213069115 [Eh]
	 SCS Total Energy          =   -1032.1923805753351644 [Eh]
	-----------------------------------------------------------

  Dipole Moment: [D]
     X:     0.1125      Y:     1.7428      Z:    -0.8501     Total:     1.9423

*** Psi4 exiting successfully. Buy a developer a beer!
