                               Psi4 1.4a3.dev225

  ==> Input File <==

--------------------------------------------------------------------------
#psi4
#
memory 32 gb

molecule  {
0 1
  S       -0.2843280    -1.0417270    -0.4821980
  S       -1.2930110    -0.0875030     1.0369290
  C        2.1528322     0.3106454     0.2427673
  C        1.0396170     0.1533370    -0.8629480
  C        2.9192610    -1.0021330     0.3722660
  C        3.0446920     1.4546940    -0.1566970
  C       -2.4716130     0.9595520     0.1214340
  C       -3.5526440     0.1784480    -0.6085900
  H        1.6262820     0.5245100     1.1534320
  H        0.5779620     1.1249640    -1.0704080
  H        1.4790150    -0.2072190    -1.8028130
  H        3.4447910    -1.2503440    -0.5572920
  H        3.6685600    -0.8925200     1.1622280
  H        2.2689210    -1.8409590     0.6321870
  H        3.5445550     1.2705440    -1.1143240
  H        3.8190690     1.5865110     0.6053070
  H        2.4877540     2.3935860    -0.2389230
  H       -2.9081880     1.6071800     0.8902120
  H       -1.9135990     1.6021400    -0.5664420
  H       -3.1113200    -0.4862750    -1.3548320
  H       -4.1326660    -0.4262330     0.0924510
  H       -4.2326140     0.8656560    -1.1221410
units angstrom
no_reorient  #important for SAPT in psi4, default
symmetry c1  #important for SAPT in psi4, default
}

set PROPERTIES_ORIGIN ["COM"]
properties('MP2/aug-cc-pvtz', properties = ['dipole'])
--------------------------------------------------------------------------

    Molecular point group: c1
  Charge       = 0
  Multiplicity = 1
  Basis Set: AUG-CC-PVTZ
    Blend: AUG-CC-PVTZ
  Basis Set: (AUG-CC-PVTZ AUX)
    Blend: AUG-CC-PVTZ-JKFIT

    Orbital Energies [Eh]
    ---------------------

    Doubly Occupied:

       1A    -91.967188     2A    -91.966606     3A    -11.261847
       4A    -11.257907     5A    -11.230928     6A    -11.221086
       7A    -11.216331     8A    -11.210207     9A     -8.966034
      10A     -8.965312    11A     -6.647138    12A     -6.646385
      13A     -6.645873    14A     -6.645173    15A     -6.645055
      16A     -6.644383    17A     -1.107440    18A     -1.076502
      19A     -1.012642    20A     -0.933386    21A     -0.932573
      22A     -0.858405    23A     -0.794167    24A     -0.753696
      25A     -0.641310    26A     -0.629742    27A     -0.605193
      28A     -0.591614    29A     -0.585006    30A     -0.552450
      31A     -0.541772    32A     -0.534975    33A     -0.512985
      34A     -0.507915    35A     -0.488721    36A     -0.478270
      37A     -0.475239    38A     -0.451448    39A     -0.428505
      40A     -0.352122    41A     -0.342495

  @DF-RHF Final Energy: -1030.54578313986235

   => Energetics <=

    Nuclear Repulsion Energy =            555.1597724489699885
    One-Electron Energy =               -2520.7590623138366936
    Two-Electron Energy =                 935.0535067250042403
    Total Energy =                      -1030.5457831398625785
  Basis Set: (AUG-CC-PVTZ AUX)
    Blend: AUG-CC-PVTZ-RI
    Molecular point group: c1

    Geometry (in Angstrom), charge = 0, multiplicity = 1:

       Center              X                  Y                   Z               Mass
    ------------   -----------------  -----------------  -----------------  -----------------
         S           -0.243177794957    -1.004861428540    -0.506972955970    31.972071174400
         S           -1.251860794957    -0.050637428540     1.012154044030    31.972071174400
         C            2.193982405043     0.347510971460     0.217992344030    12.000000000000
         C            1.080767205043     0.190202571460    -0.887722955970    12.000000000000
         C            2.960411205043    -0.965267428540     0.347491044030    12.000000000000
         C            3.085842205043     1.491559571460    -0.181471955970    12.000000000000
         C           -2.430462794957     0.996417571460     0.096659044030    12.000000000000
         C           -3.511493794957     0.215313571460    -0.633364955970    12.000000000000
         H            1.667432205043     0.561375571460     1.128657044030     1.007825032230
         H            0.619112205043     1.161829571460    -1.095182955970     1.007825032230
         H            1.520165205043    -0.170353428540    -1.827587955970     1.007825032230
         H            3.485941205043    -1.213478428540    -0.582066955970     1.007825032230
         H            3.709710205043    -0.855654428540     1.137453044030     1.007825032230
         H            2.310071205043    -1.804093428540     0.607412044030     1.007825032230
         H            3.585705205043     1.307409571460    -1.139098955970     1.007825032230
         H            3.860219205043     1.623376571460     0.580532044030     1.007825032230
         H            2.528904205043     2.430451571460    -0.263697955970     1.007825032230
         H           -2.867037794957     1.644045571460     0.865437044030     1.007825032230
         H           -1.872448794957     1.639005571460    -0.591216955970     1.007825032230
         H           -3.070169794957    -0.449409428540    -1.379606955970     1.007825032230
         H           -4.091515794957    -0.389367428540     0.067676044030     1.007825032230
         H           -4.191463794957     0.902521571460    -1.146915955970     1.007825032230

  Basis Set: AUG-CC-PVTZ
    Blend: AUG-CC-PVTZ
  Basis Set: (AUG-CC-PVTZ AUX)
    Blend: AUG-CC-PVTZ-JKFIT
	 Reference Energy          =   -1030.5457831398623512 [Eh]
	 Singles Energy            =      -0.0000000000000000 [Eh]
	 Same-Spin Energy          =      -0.3700291580145418 [Eh]
	 Opposite-Spin Energy      =      -1.2688781154432212 [Eh]
	 Correlation Energy        =      -1.6389072734577630 [Eh]
	 Total Energy              =   -1032.1846904133201406 [Eh]

	 ================> DF-SCS-MP2 Energies <==================
	-----------------------------------------------------------
	 SCS Same-Spin Scale       =       0.3333333333333333 [-]
	 SCS Opposite-Spin Scale   =       1.2000000000000000 [-]
	 SCS Same-Spin Energy      =      -0.1233430526715139 [Eh]
	 SCS Opposite-Spin Energy  =      -1.5226537385318653 [Eh]
	 SCS Correlation Energy    =      -1.6459967912033793 [Eh]
	 SCS Total Energy          =   -1032.1917799310656392 [Eh]
	-----------------------------------------------------------

  Dipole Moment: [D]
     X:     0.1451      Y:     1.7793      Z:    -0.8613     Total:     1.9821

*** Psi4 exiting successfully. Buy a developer a beer!
