                               Psi4 1.4a3.dev225

  ==> Input File <==

--------------------------------------------------------------------------
#psi4
#
memory 32 gb

molecule  {
0 1
  S       -0.2843280    -1.0417270    -0.4821980
  S       -1.2930110    -0.0875030     1.0369290
  C        2.2135895     0.3495254     0.3211037
  C        1.0396170     0.1533370    -0.8629480
  C        2.9192610    -1.0021330     0.3722660
  C        3.0446920     1.4546940    -0.1566970
  C       -2.4716130     0.9595520     0.1214340
  C       -3.5526440     0.1784480    -0.6085900
  H        1.6262820     0.5245100     1.1534320
  H        0.5779620     1.1249640    -1.0704080
  H        1.4790150    -0.2072190    -1.8028130
  H        3.4447910    -1.2503440    -0.5572920
  H        3.6685600    -0.8925200     1.1622280
  H        2.2689210    -1.8409590     0.6321870
  H        3.5445550     1.2705440    -1.1143240
  H        3.8190690     1.5865110     0.6053070
  H        2.4877540     2.3935860    -0.2389230
  H       -2.9081880     1.6071800     0.8902120
  H       -1.9135990     1.6021400    -0.5664420
  H       -3.1113200    -0.4862750    -1.3548320
  H       -4.1326660    -0.4262330     0.0924510
  H       -4.2326140     0.8656560    -1.1221410
units angstrom
no_reorient  #important for SAPT in psi4, default
symmetry c1  #important for SAPT in psi4, default
}

set PROPERTIES_ORIGIN ["COM"]
properties('MP2/aug-cc-pvtz', properties = ['dipole'])
--------------------------------------------------------------------------

    Molecular point group: c1
  Charge       = 0
  Multiplicity = 1
  Basis Set: AUG-CC-PVTZ
    Blend: AUG-CC-PVTZ
  Basis Set: (AUG-CC-PVTZ AUX)
    Blend: AUG-CC-PVTZ-JKFIT

    Orbital Energies [Eh]
    ---------------------

    Doubly Occupied:

       1A    -91.966361     2A    -91.965520     3A    -11.261171
       4A    -11.257179     5A    -11.233467     6A    -11.220529
       7A    -11.216544     8A    -11.211730     9A     -8.965212
      10A     -8.964113    11A     -6.646313    12A     -6.645238
      13A     -6.645041    14A     -6.644250    15A     -6.643967
      16A     -6.643198    17A     -1.103453    18A     -1.077290
      19A     -1.013868    20A     -0.937347    21A     -0.929256
      22A     -0.853766    23A     -0.796835    24A     -0.755803
      25A     -0.638921    26A     -0.630097    27A     -0.606476
      28A     -0.591604    29A     -0.583512    30A     -0.557033
      31A     -0.542465    32A     -0.535013    33A     -0.513121
      34A     -0.509873    35A     -0.492076    36A     -0.485593
      37A     -0.477546    38A     -0.433479    39A     -0.425265
      40A     -0.350495    41A     -0.337052

  @DF-RHF Final Energy: -1030.52688911614723

   => Energetics <=

    Nuclear Repulsion Energy =            554.0329314735980688
    One-Electron Energy =               -2518.5055045856925062
    Two-Electron Energy =                 933.9456839959470926
    Total Energy =                      -1030.5268891161472311
  Basis Set: (AUG-CC-PVTZ AUX)
    Blend: AUG-CC-PVTZ-RI
    Molecular point group: c1

    Geometry (in Angstrom), charge = 0, multiplicity = 1:

       Center              X                  Y                   Z               Mass
    ------------   -----------------  -----------------  -----------------  -----------------
         S           -0.248036639724    -1.007970715565    -0.513237625519    31.972071174400
         S           -1.256719639724    -0.053746715565     1.005889374481    31.972071174400
         C            2.249880860276     0.383281684435     0.290064074481    12.000000000000
         C            1.075908360276     0.187093284435    -0.893987625519    12.000000000000
         C            2.955552360276    -0.968376715565     0.341226374481    12.000000000000
         C            3.080983360276     1.488450284435    -0.187736625519    12.000000000000
         C           -2.435321639724     0.993308284435     0.090394374481    12.000000000000
         C           -3.516352639724     0.212204284435    -0.639629625519    12.000000000000
         H            1.662573360276     0.558266284435     1.122392374481     1.007825032230
         H            0.614253360276     1.158720284435    -1.101447625519     1.007825032230
         H            1.515306360276    -0.173462715565    -1.833852625519     1.007825032230
         H            3.481082360276    -1.216587715565    -0.588331625519     1.007825032230
         H            3.704851360276    -0.858763715565     1.131188374481     1.007825032230
         H            2.305212360276    -1.807202715565     0.601147374481     1.007825032230
         H            3.580846360276     1.304300284435    -1.145363625519     1.007825032230
         H            3.855360360276     1.620267284435     0.574267374481     1.007825032230
         H            2.524045360276     2.427342284435    -0.269962625519     1.007825032230
         H           -2.871896639724     1.640936284435     0.859172374481     1.007825032230
         H           -1.877307639724     1.635896284435    -0.597481625519     1.007825032230
         H           -3.075028639724    -0.452518715565    -1.385871625519     1.007825032230
         H           -4.096374639724    -0.392476715565     0.061411374481     1.007825032230
         H           -4.196322639724     0.899412284435    -1.153180625519     1.007825032230

  Basis Set: AUG-CC-PVTZ
    Blend: AUG-CC-PVTZ
  Basis Set: (AUG-CC-PVTZ AUX)
    Blend: AUG-CC-PVTZ-JKFIT
	 Reference Energy          =   -1030.5268891161472311 [Eh]
	 Singles Energy            =      -0.0000000000000000 [Eh]
	 Same-Spin Energy          =      -0.3705812116302285 [Eh]
	 Opposite-Spin Energy      =      -1.2700880507084165 [Eh]
	 Correlation Energy        =      -1.6406692623386450 [Eh]
	 Total Energy              =   -1032.1675583784858645 [Eh]

	 ================> DF-SCS-MP2 Energies <==================
	-----------------------------------------------------------
	 SCS Same-Spin Scale       =       0.3333333333333333 [-]
	 SCS Opposite-Spin Scale   =       1.2000000000000000 [-]
	 SCS Same-Spin Energy      =      -0.1235270705434095 [Eh]
	 SCS Opposite-Spin Energy  =      -1.5241056608500998 [Eh]
	 SCS Correlation Energy    =      -1.6476327313935093 [Eh]
	 SCS Total Energy          =   -1032.1745218475407455 [Eh]
	-----------------------------------------------------------

  Dipole Moment: [D]
     X:     0.2221      Y:     1.8051      Z:    -0.8533     Total:     2.0089

*** Psi4 exiting successfully. Buy a developer a beer!
