                               Psi4 1.4a3.dev225

  ==> Input File <==

--------------------------------------------------------------------------
#psi4
#
memory 32 gb

molecule  {
0 1
  S       -0.2843280    -1.0417270    -0.4821980
  S       -1.2930110    -0.0875030     1.0369290
  C        2.1464322     0.3017085     0.1981881
  C        1.0396170     0.1533370    -0.8629480
  C        2.9192610    -1.0021330     0.3722660
  C        3.0446920     1.4546940    -0.1566970
  C       -2.4716130     0.9595520     0.1214340
  C       -3.5526440     0.1784480    -0.6085900
  H        1.6262820     0.5245100     1.1534320
  H        0.5779620     1.1249640    -1.0704080
  H        1.4790150    -0.2072190    -1.8028130
  H        3.4447910    -1.2503440    -0.5572920
  H        3.6685600    -0.8925200     1.1622280
  H        2.2689210    -1.8409590     0.6321870
  H        3.5445550     1.2705440    -1.1143240
  H        3.8190690     1.5865110     0.6053070
  H        2.4877540     2.3935860    -0.2389230
  H       -2.9081880     1.6071800     0.8902120
  H       -1.9135990     1.6021400    -0.5664420
  H       -3.1113200    -0.4862750    -1.3548320
  H       -4.1326660    -0.4262330     0.0924510
  H       -4.2326140     0.8656560    -1.1221410
units angstrom
no_reorient  #important for SAPT in psi4, default
symmetry c1  #important for SAPT in psi4, default
}

set PROPERTIES_ORIGIN ["COM"]
properties('MP2/aug-cc-pvtz', properties = ['dipole'])
--------------------------------------------------------------------------

    Molecular point group: c1
  Charge       = 0
  Multiplicity = 1
  Basis Set: AUG-CC-PVTZ
    Blend: AUG-CC-PVTZ
  Basis Set: (AUG-CC-PVTZ AUX)
    Blend: AUG-CC-PVTZ-JKFIT

    Orbital Energies [Eh]
    ---------------------

    Doubly Occupied:

       1A    -91.967457     2A    -91.967410     3A    -11.262058
       4A    -11.257553     5A    -11.231433     6A    -11.221287
       7A    -11.216263     8A    -11.210123     9A     -8.966327
      10A     -8.966076    11A     -6.647468    12A     -6.647094
      13A     -6.646139    14A     -6.645957    15A     -6.645312
      16A     -6.645168    17A     -1.110358    18A     -1.077185
      19A     -1.012772    20A     -0.934843    21A     -0.932978
      22A     -0.860465    23A     -0.792144    24A     -0.750732
      25A     -0.643230    26A     -0.630100    27A     -0.605941
      28A     -0.592112    29A     -0.586211    30A     -0.552080
      31A     -0.541411    32A     -0.535084    33A     -0.513276
      34A     -0.508298    35A     -0.491474    36A     -0.477794
      37A     -0.466713    38A     -0.454549    39A     -0.428909
      40A     -0.352684    41A     -0.344095

  @DF-RHF Final Energy: -1030.54722326671163

   => Energetics <=

    Nuclear Repulsion Energy =            555.5325685658408474
    One-Electron Energy =               -2521.4824533713012897
    Two-Electron Energy =                 935.4026615387488164
    Total Energy =                      -1030.5472232667116259
  Basis Set: (AUG-CC-PVTZ AUX)
    Blend: AUG-CC-PVTZ-RI
    Molecular point group: c1

    Geometry (in Angstrom), charge = 0, multiplicity = 1:

       Center              X                  Y                   Z               Mass
    ------------   -----------------  -----------------  -----------------  -----------------
         S           -0.242665978163    -1.004146732367    -0.503407896090    31.972071174400
         S           -1.251348978163    -0.049922732367     1.015719103910    31.972071174400
         C            2.188094221837     0.339288767633     0.176978203910    12.000000000000
         C            1.081279021837     0.190917267633    -0.884157896090    12.000000000000
         C            2.960923021837    -0.964552732367     0.351056103910    12.000000000000
         C            3.086354021837     1.492274267633    -0.177906896090    12.000000000000
         C           -2.429950978163     0.997132267633     0.100224103910    12.000000000000
         C           -3.510981978163     0.216028267633    -0.629799896090    12.000000000000
         H            1.667944021837     0.562090267633     1.132222103910     1.007825032230
         H            0.619624021837     1.162544267633    -1.091617896090     1.007825032230
         H            1.520677021837    -0.169638732367    -1.824022896090     1.007825032230
         H            3.486453021837    -1.212763732367    -0.578501896090     1.007825032230
         H            3.710222021837    -0.854939732367     1.141018103910     1.007825032230
         H            2.310583021837    -1.803378732367     0.610977103910     1.007825032230
         H            3.586217021837     1.308124267633    -1.135533896090     1.007825032230
         H            3.860731021837     1.624091267633     0.584097103910     1.007825032230
         H            2.529416021837     2.431166267633    -0.260132896090     1.007825032230
         H           -2.866525978163     1.644760267633     0.869002103910     1.007825032230
         H           -1.871936978163     1.639720267633    -0.587651896090     1.007825032230
         H           -3.069657978163    -0.448694732367    -1.376041896090     1.007825032230
         H           -4.091003978163    -0.388652732367     0.071241103910     1.007825032230
         H           -4.190951978163     0.903236267633    -1.143350896090     1.007825032230

  Basis Set: AUG-CC-PVTZ
    Blend: AUG-CC-PVTZ
  Basis Set: (AUG-CC-PVTZ AUX)
    Blend: AUG-CC-PVTZ-JKFIT
	 Reference Energy          =   -1030.5472232667116259 [Eh]
	 Singles Energy            =      -0.0000000000000000 [Eh]
	 Same-Spin Energy          =      -0.3701938169323556 [Eh]
	 Opposite-Spin Energy      =      -1.2690096446825823 [Eh]
	 Correlation Energy        =      -1.6392034616149380 [Eh]
	 Total Energy              =   -1032.1864267283265235 [Eh]

	 ================> DF-SCS-MP2 Energies <==================
	-----------------------------------------------------------
	 SCS Same-Spin Scale       =       0.3333333333333333 [-]
	 SCS Opposite-Spin Scale   =       1.2000000000000000 [-]
	 SCS Same-Spin Energy      =      -0.1233979389774519 [Eh]
	 SCS Opposite-Spin Energy  =      -1.5228115736190986 [Eh]
	 SCS Correlation Energy    =      -1.6462095125965504 [Eh]
	 SCS Total Energy          =   -1032.1934327793080683 [Eh]
	-----------------------------------------------------------

  Dipole Moment: [D]
     X:     0.1166      Y:     1.7730      Z:    -0.8610     Total:     1.9745

*** Psi4 exiting successfully. Buy a developer a beer!
