                               Psi4 1.4a3.dev225

  ==> Input File <==

--------------------------------------------------------------------------
#psi4
#
memory 32 gb

molecule  {
0 1
  S       -0.2843280    -1.0417270    -0.4821980
  S       -1.2930110    -0.0875030     1.0369290
  C        2.1238360     0.2887940     0.2038120
  C        1.0396170     0.1533370    -0.8629480
  C        2.9192610    -1.0021330     0.3722660
  C        3.0446920     1.4546940    -0.1566970
  C       -2.4716130     0.9595520     0.1214340
  C       -3.5526440     0.1784480    -0.6085900
  H        1.6262820     0.5245100     1.1534320
  H        0.5779620     1.1249640    -1.0704080
  H        1.4790150    -0.2072190    -1.8028130
  H        3.4447910    -1.2503440    -0.5572920
  H        3.6685600    -0.8925200     1.1622280
  H        2.2094076    -1.9177210     0.6559727
  H        3.5445550     1.2705440    -1.1143240
  H        3.8190690     1.5865110     0.6053070
  H        2.4877540     2.3935860    -0.2389230
  H       -2.9081880     1.6071800     0.8902120
  H       -1.9135990     1.6021400    -0.5664420
  H       -3.1113200    -0.4862750    -1.3548320
  H       -4.1326660    -0.4262330     0.0924510
  H       -4.2326140     0.8656560    -1.1221410
units angstrom
no_reorient  #important for SAPT in psi4, default
symmetry c1  #important for SAPT in psi4, default
}

set PROPERTIES_ORIGIN ["COM"]
properties('MP2/aug-cc-pvtz', properties = ['dipole'])
--------------------------------------------------------------------------

    Molecular point group: c1
  Charge       = 0
  Multiplicity = 1
  Basis Set: AUG-CC-PVTZ
    Blend: AUG-CC-PVTZ
  Basis Set: (AUG-CC-PVTZ AUX)
    Blend: AUG-CC-PVTZ-JKFIT

    Orbital Energies [Eh]
    ---------------------

    Doubly Occupied:

       1A    -91.967347     2A    -91.966659     3A    -11.261968
       4A    -11.257721     5A    -11.231995     6A    -11.221492
       7A    -11.221172     8A    -11.217873     9A     -8.966182
      10A     -8.965440    11A     -6.647281    12A     -6.646500
      13A     -6.646014    14A     -6.645295    15A     -6.645198
      16A     -6.644497    17A     -1.110460    18A     -1.076327
      19A     -1.011445    20A     -0.934822    21A     -0.925538
      22A     -0.860715    23A     -0.792725    24A     -0.751483
      25A     -0.643059    26A     -0.629252    27A     -0.601559
      28A     -0.588395    29A     -0.585488    30A     -0.551914
      31A     -0.540783    32A     -0.535592    33A     -0.512663
      34A     -0.501970    35A     -0.492443    36A     -0.473491
      37A     -0.471930    38A     -0.451674    39A     -0.427874
      40A     -0.352446    41A     -0.343834

  @DF-RHF Final Energy: -1030.54138597259339

   => Energetics <=

    Nuclear Repulsion Energy =            555.3800318377362828
    One-Electron Energy =               -2521.2017984471012824
    Two-Electron Energy =                 935.2803806367716106
    Total Energy =                      -1030.5413859725936163
  Basis Set: (AUG-CC-PVTZ AUX)
    Blend: AUG-CC-PVTZ-RI
    Molecular point group: c1

    Geometry (in Angstrom), charge = 0, multiplicity = 1:

       Center              X                  Y                   Z               Mass
    ------------   -----------------  -----------------  -----------------  -----------------
         S           -0.240459211451    -1.002598375504    -0.504017402075    31.972071174400
         S           -1.249142211451    -0.048374375504     1.015109597925    31.972071174400
         C            2.167704788549     0.327922624496     0.181992597925    12.000000000000
         C            1.083485788549     0.192465624496    -0.884767402075    12.000000000000
         C            2.963129788549    -0.963004375504     0.350446597925    12.000000000000
         C            3.088560788549     1.493822624496    -0.178516402075    12.000000000000
         C           -2.427744211451     0.998680624496     0.099614597925    12.000000000000
         C           -3.508775211451     0.217576624496    -0.630409402075    12.000000000000
         H            1.670150788549     0.563638624496     1.131612597925     1.007825032230
         H            0.621830788549     1.164092624496    -1.092227402075     1.007825032230
         H            1.522883788549    -0.168090375504    -1.824632402075     1.007825032230
         H            3.488659788549    -1.211215375504    -0.579111402075     1.007825032230
         H            3.712428788549    -0.853391375504     1.140408597925     1.007825032230
         H            2.253276388549    -1.878592375504     0.634153297925     1.007825032230
         H            3.588423788549     1.309672624496    -1.136143402075     1.007825032230
         H            3.862937788549     1.625639624496     0.583487597925     1.007825032230
         H            2.531622788549     2.432714624496    -0.260742402075     1.007825032230
         H           -2.864319211451     1.646308624496     0.868392597925     1.007825032230
         H           -1.869730211451     1.641268624496    -0.588261402075     1.007825032230
         H           -3.067451211451    -0.447146375504    -1.376651402075     1.007825032230
         H           -4.088797211451    -0.387104375504     0.070631597925     1.007825032230
         H           -4.188745211451     0.904784624496    -1.143960402075     1.007825032230

  Basis Set: AUG-CC-PVTZ
    Blend: AUG-CC-PVTZ
  Basis Set: (AUG-CC-PVTZ AUX)
    Blend: AUG-CC-PVTZ-JKFIT
	 Reference Energy          =   -1030.5413859725933889 [Eh]
	 Singles Energy            =      -0.0000000000000000 [Eh]
	 Same-Spin Energy          =      -0.3702378410668833 [Eh]
	 Opposite-Spin Energy      =      -1.2697596411812011 [Eh]
	 Correlation Energy        =      -1.6399974822480843 [Eh]
	 Total Energy              =   -1032.1813834548415798 [Eh]

	 ================> DF-SCS-MP2 Energies <==================
	-----------------------------------------------------------
	 SCS Same-Spin Scale       =       0.3333333333333333 [-]
	 SCS Opposite-Spin Scale   =       1.2000000000000000 [-]
	 SCS Same-Spin Energy      =      -0.1234126136889611 [Eh]
	 SCS Opposite-Spin Energy  =      -1.5237115694174412 [Eh]
	 SCS Correlation Energy    =      -1.6471241831064023 [Eh]
	 SCS Total Energy          =   -1032.1885101556997597 [Eh]
	-----------------------------------------------------------

  Dipole Moment: [D]
     X:     0.1350      Y:     1.8196      Z:    -0.8773     Total:     2.0246

*** Psi4 exiting successfully. Buy a developer a beer!
