                               Psi4 1.4a3.dev225

  ==> Input File <==

--------------------------------------------------------------------------
#psi4
#
memory 32 gb

molecule  {
0 1
  S       -0.2843280    -1.0417270    -0.4821980
  S       -1.2930110    -0.0875030     1.0369290
  C        2.1238360     0.2887940     0.2038120
  C        1.0396170     0.1533370    -0.8629480
  C        2.9192610    -1.0021330     0.3722660
  C        3.0446920     1.4546940    -0.1566970
  C       -2.4716130     0.9595520     0.1214340
  C       -3.5526440     0.1784480    -0.6085900
  H        1.6262820     0.5245100     1.1534320
  H        0.5779620     1.1249640    -1.0704080
  H        1.4790150    -0.2072190    -1.8028130
  H        3.4447910    -1.2503440    -0.5572920
  H        3.6685600    -0.8925200     1.1622280
  H        2.2689210    -1.8409590     0.6321870
  H        3.4533242     1.3041535    -0.9395460
  H        3.8190690     1.5865110     0.6053070
  H        2.4877540     2.3935860    -0.2389230
  H       -2.9081880     1.6071800     0.8902120
  H       -1.9135990     1.6021400    -0.5664420
  H       -3.1113200    -0.4862750    -1.3548320
  H       -4.1326660    -0.4262330     0.0924510
  H       -4.2326140     0.8656560    -1.1221410
units angstrom
no_reorient  #important for SAPT in psi4, default
symmetry c1  #important for SAPT in psi4, default
}

set PROPERTIES_ORIGIN ["COM"]
properties('MP2/aug-cc-pvtz', properties = ['dipole'])
--------------------------------------------------------------------------

    Molecular point group: c1
  Charge       = 0
  Multiplicity = 1
  Basis Set: AUG-CC-PVTZ
    Blend: AUG-CC-PVTZ
  Basis Set: (AUG-CC-PVTZ AUX)
    Blend: AUG-CC-PVTZ-JKFIT

    Orbital Energies [Eh]
    ---------------------

    Doubly Occupied:

       1A    -91.967218     2A    -91.966731     3A    -11.261849
       4A    -11.257287     5A    -11.228937     6A    -11.221090
       7A    -11.209877     8A    -11.191326     9A     -8.966055
      10A     -8.965496    11A     -6.647161    12A     -6.646547
      13A     -6.645885    14A     -6.645361    15A     -6.645064
      16A     -6.644561    17A     -1.112292    18A     -1.077893
      19A     -1.014823    20A     -0.947598    21A     -0.934487
      22A     -0.863154    23A     -0.798948    24A     -0.753773
      25A     -0.647322    26A     -0.630426    27A     -0.607721
      28A     -0.591273    29A     -0.584933    30A     -0.572742
      31A     -0.543370    32A     -0.537447    33A     -0.513821
      34A     -0.507609    35A     -0.492525    36A     -0.474890
      37A     -0.473757    38A     -0.452012    39A     -0.428361
      40A     -0.352628    41A     -0.343755

  @DF-RHF Final Energy: -1030.51432411675592

   => Energetics <=

    Nuclear Repulsion Energy =            556.7222228349784245
    One-Electron Energy =               -2523.7370792634792451
    Two-Electron Energy =                 936.5005323117451326
    Total Energy =                      -1030.5143241167556880
  Basis Set: (AUG-CC-PVTZ AUX)
    Blend: AUG-CC-PVTZ-RI
    Molecular point group: c1

    Geometry (in Angstrom), charge = 0, multiplicity = 1:

       Center              X                  Y                   Z               Mass
    ------------   -----------------  -----------------  -----------------  -----------------
         S           -0.240246183773    -1.003339677890    -0.505031531196    31.972071174400
         S           -1.248929183773    -0.049115677890     1.014095468804    31.972071174400
         C            2.167917816227     0.327181322110     0.180978468804    12.000000000000
         C            1.083698816227     0.191724322110    -0.885781531196    12.000000000000
         C            2.963342816227    -0.963745677890     0.349432468804    12.000000000000
         C            3.088773816227     1.493081322110    -0.179530531196    12.000000000000
         C           -2.427531183773     0.997939322110     0.098600468804    12.000000000000
         C           -3.508562183773     0.216835322110    -0.631423531196    12.000000000000
         H            1.670363816227     0.562897322110     1.130598468804     1.007825032230
         H            0.622043816227     1.163351322110    -1.093241531196     1.007825032230
         H            1.523096816227    -0.168831677890    -1.825646531196     1.007825032230
         H            3.488872816227    -1.211956677890    -0.580125531196     1.007825032230
         H            3.712641816227    -0.854132677890     1.139394468804     1.007825032230
         H            2.313002816227    -1.802571677890     0.609353468804     1.007825032230
         H            3.497406016227     1.342540822110    -0.962379531196     1.007825032230
         H            3.863150816227     1.624898322110     0.582473468804     1.007825032230
         H            2.531835816227     2.431973322110    -0.261756531196     1.007825032230
         H           -2.864106183773     1.645567322110     0.867378468804     1.007825032230
         H           -1.869517183773     1.640527322110    -0.589275531196     1.007825032230
         H           -3.067238183773    -0.447887677890    -1.377665531196     1.007825032230
         H           -4.088584183773    -0.387845677890     0.069617468804     1.007825032230
         H           -4.188532183773     0.904043322110    -1.144974531196     1.007825032230

  Basis Set: AUG-CC-PVTZ
    Blend: AUG-CC-PVTZ
  Basis Set: (AUG-CC-PVTZ AUX)
    Blend: AUG-CC-PVTZ-JKFIT
	 Reference Energy          =   -1030.5143241167559154 [Eh]
	 Singles Energy            =      -0.0000000000000000 [Eh]
	 Same-Spin Energy          =      -0.3702111812812615 [Eh]
	 Opposite-Spin Energy      =      -1.2683463701646991 [Eh]
	 Correlation Energy        =      -1.6385575514459605 [Eh]
	 Total Energy              =   -1032.1528816682018714 [Eh]

	 ================> DF-SCS-MP2 Energies <==================
	-----------------------------------------------------------
	 SCS Same-Spin Scale       =       0.3333333333333333 [-]
	 SCS Opposite-Spin Scale   =       1.2000000000000000 [-]
	 SCS Same-Spin Energy      =      -0.1234037270937538 [Eh]
	 SCS Opposite-Spin Energy  =      -1.5220156441976389 [Eh]
	 SCS Correlation Energy    =      -1.6454193712913927 [Eh]
	 SCS Total Energy          =   -1032.1597434880472974 [Eh]
	-----------------------------------------------------------

  Dipole Moment: [D]
     X:     0.1777      Y:     1.7748      Z:    -0.9404     Total:     2.0164

*** Psi4 exiting successfully. Buy a developer a beer!
