                               Psi4 1.4a3.dev225

  ==> Input File <==

--------------------------------------------------------------------------
#psi4
#
memory 32 gb

molecule  {
0 1
  S       -0.2843280    -1.0417270    -0.4821980
  S       -1.2930110    -0.0875030     1.0369290
  C        2.1238360     0.2887940     0.2038120
  C        1.0396170     0.1533370    -0.8629480
  C        2.9192610    -1.0021330     0.3722660
  C        3.0446920     1.4546940    -0.1566970
  C       -2.4716130     0.9595520     0.1214340
  C       -3.5526440     0.1784480    -0.6085900
  H        1.6262820     0.5245100     1.1534320
  H        0.5779620     1.1249640    -1.0704080
  H        1.4790150    -0.2072190    -1.8028130
  H        3.4447910    -1.2503440    -0.5572920
  H        3.6685600    -0.8925200     1.1622280
  H        2.2689210    -1.8409590     0.6321870
  H        3.5445550     1.2705440    -1.1143240
  H        3.8190690     1.5865110     0.6053070
  H        2.4877540     2.3935860    -0.2389230
  H       -2.9081880     1.6071800     0.8902120
  H       -1.9390956     1.5727791    -0.5350118
  H       -3.1113200    -0.4862750    -1.3548320
  H       -4.1326660    -0.4262330     0.0924510
  H       -4.2326140     0.8656560    -1.1221410
units angstrom
no_reorient  #important for SAPT in psi4, default
symmetry c1  #important for SAPT in psi4, default
}

set PROPERTIES_ORIGIN ["COM"]
properties('MP2/aug-cc-pvtz', properties = ['dipole'])
--------------------------------------------------------------------------

    Molecular point group: c1
  Charge       = 0
  Multiplicity = 1
  Basis Set: AUG-CC-PVTZ
    Blend: AUG-CC-PVTZ
  Basis Set: (AUG-CC-PVTZ AUX)
    Blend: AUG-CC-PVTZ-JKFIT

    Orbital Energies [Eh]
    ---------------------

    Doubly Occupied:

       1A    -91.967104     2A    -91.966898     3A    -11.257556
       4A    -11.256175     5A    -11.230920     6A    -11.220848
       7A    -11.216838     8A    -11.210068     9A     -8.965983
      10A     -8.965653    11A     -6.647113    12A     -6.646682
      13A     -6.645806    14A     -6.645529    15A     -6.644983
      16A     -6.644733    17A     -1.110891    18A     -1.078070
      19A     -1.012308    20A     -0.934919    21A     -0.931108
      22A     -0.863002    23A     -0.795710    24A     -0.753470
      25A     -0.644530    26A     -0.633191    27A     -0.605126
      28A     -0.591481    29A     -0.586095    30A     -0.551431
      31A     -0.541316    32A     -0.534947    33A     -0.515971
      34A     -0.508341    35A     -0.492924    36A     -0.475398
      37A     -0.471788    38A     -0.452577    39A     -0.429125
      40A     -0.352936    41A     -0.344042

  @DF-RHF Final Energy: -1030.54730014267807

   => Energetics <=

    Nuclear Repulsion Energy =            555.9501434047306248
    One-Electron Energy =               -2522.3077166873890747
    Two-Electron Energy =                 935.8102731399803815
    Total Energy =                      -1030.5473001426780684
  Basis Set: (AUG-CC-PVTZ AUX)
    Blend: AUG-CC-PVTZ-RI
    Molecular point group: c1

    Geometry (in Angstrom), charge = 0, multiplicity = 1:

       Center              X                  Y                   Z               Mass
    ------------   -----------------  -----------------  -----------------  -----------------
         S           -0.240687682886    -1.002916741645    -0.504068745820    31.972071174400
         S           -1.249370682886    -0.048692741645     1.015058254180    31.972071174400
         C            2.167476317114     0.327604258355     0.181941254180    12.000000000000
         C            1.083257317114     0.192147258355    -0.884818745820    12.000000000000
         C            2.962901317114    -0.963322741645     0.350395254180    12.000000000000
         C            3.088332317114     1.493504258355    -0.178567745820    12.000000000000
         C           -2.427972682886     0.998362258355     0.099563254180    12.000000000000
         C           -3.509003682886     0.217258258355    -0.630460745820    12.000000000000
         H            1.669922317114     0.563320258355     1.131561254180     1.007825032230
         H            0.621602317114     1.163774258355    -1.092278745820     1.007825032230
         H            1.522655317114    -0.168408741645    -1.824683745820     1.007825032230
         H            3.488431317114    -1.211533741645    -0.579162745820     1.007825032230
         H            3.712200317114    -0.853709741645     1.140357254180     1.007825032230
         H            2.312561317114    -1.802148741645     0.610316254180     1.007825032230
         H            3.588195317114     1.309354258355    -1.136194745820     1.007825032230
         H            3.862709317114     1.625321258355     0.583436254180     1.007825032230
         H            2.531394317114     2.432396258355    -0.260793745820     1.007825032230
         H           -2.864547682886     1.645990258355     0.868341254180     1.007825032230
         H           -1.895455282886     1.611589358355    -0.556882545820     1.007825032230
         H           -3.067679682886    -0.447464741645    -1.376702745820     1.007825032230
         H           -4.089025682886    -0.387422741645     0.070580254180     1.007825032230
         H           -4.188973682886     0.904466258355    -1.144011745820     1.007825032230

  Basis Set: AUG-CC-PVTZ
    Blend: AUG-CC-PVTZ
  Basis Set: (AUG-CC-PVTZ AUX)
    Blend: AUG-CC-PVTZ-JKFIT
	 Reference Energy          =   -1030.5473001426780684 [Eh]
	 Singles Energy            =      -0.0000000000000000 [Eh]
	 Same-Spin Energy          =      -0.3700229424895961 [Eh]
	 Opposite-Spin Energy      =      -1.2685794922012565 [Eh]
	 Correlation Energy        =      -1.6386024346908528 [Eh]
	 Total Energy              =   -1032.1859025773690064 [Eh]

	 ================> DF-SCS-MP2 Energies <==================
	-----------------------------------------------------------
	 SCS Same-Spin Scale       =       0.3333333333333333 [-]
	 SCS Opposite-Spin Scale   =       1.2000000000000000 [-]
	 SCS Same-Spin Energy      =      -0.1233409808298654 [Eh]
	 SCS Opposite-Spin Energy  =      -1.5222953906415078 [Eh]
	 SCS Correlation Energy    =      -1.6456363714713731 [Eh]
	 SCS Total Energy          =   -1032.1929365141495509 [Eh]
	-----------------------------------------------------------

  Dipole Moment: [D]
     X:     0.1202      Y:     1.7878      Z:    -0.8711     Total:     1.9923

*** Psi4 exiting successfully. Buy a developer a beer!
