                               Psi4 1.4a3.dev225

  ==> Input File <==

--------------------------------------------------------------------------
#psi4
#
memory 32 gb

molecule  {
0 1
  S       -0.2843280    -1.0417270    -0.4821980
  S       -1.2930110    -0.0875030     1.0369290
  C        2.1238360     0.2887940     0.2038120
  C        1.0396170     0.1533370    -0.8629480
  C        2.9192610    -1.0021330     0.3722660
  C        3.0446920     1.4546940    -0.1566970
  C       -2.4716130     0.9595520     0.1214340
  C       -3.5526440     0.1784480    -0.6085900
  H        1.6262820     0.5245100     1.1534320
  H        0.5779620     1.1249640    -1.0704080
  H        1.4990173    -0.2236322    -1.8455975
  H        3.4447910    -1.2503440    -0.5572920
  H        3.6685600    -0.8925200     1.1622280
  H        2.2689210    -1.8409590     0.6321870
  H        3.5445550     1.2705440    -1.1143240
  H        3.8190690     1.5865110     0.6053070
  H        2.4877540     2.3935860    -0.2389230
  H       -2.9081880     1.6071800     0.8902120
  H       -1.9135990     1.6021400    -0.5664420
  H       -3.1113200    -0.4862750    -1.3548320
  H       -4.1326660    -0.4262330     0.0924510
  H       -4.2326140     0.8656560    -1.1221410
units angstrom
no_reorient  #important for SAPT in psi4, default
symmetry c1  #important for SAPT in psi4, default
}

set PROPERTIES_ORIGIN ["COM"]
properties('MP2/aug-cc-pvtz', properties = ['dipole'])
--------------------------------------------------------------------------

    Molecular point group: c1
  Charge       = 0
  Multiplicity = 1
  Basis Set: AUG-CC-PVTZ
    Blend: AUG-CC-PVTZ
  Basis Set: (AUG-CC-PVTZ AUX)
    Blend: AUG-CC-PVTZ-JKFIT

    Orbital Energies [Eh]
    ---------------------

    Doubly Occupied:

       1A    -91.967709     2A    -91.967389     3A    -11.263280
       4A    -11.262249     5A    -11.231427     6A    -11.221391
       7A    -11.216846     8A    -11.210072     9A     -8.966561
      10A     -8.966111    11A     -6.647673    12A     -6.647146
      13A     -6.646389    14A     -6.645971    15A     -6.645569
      16A     -6.645168    17A     -1.109861    18A     -1.076588
      19A     -1.011435    20A     -0.933265    21A     -0.931118
      22A     -0.860257    23A     -0.793382    24A     -0.749441
      25A     -0.642744    26A     -0.629869    27A     -0.604212
      28A     -0.591549    29A     -0.584370    30A     -0.548050
      31A     -0.541143    32A     -0.534644    33A     -0.513206
      34A     -0.508269    35A     -0.492705    36A     -0.475581
      37A     -0.471201    38A     -0.452733    39A     -0.428204
      40A     -0.353085    41A     -0.344339

  @DF-RHF Final Energy: -1030.54592294690315

   => Energetics <=

    Nuclear Repulsion Energy =            555.4528844291179439
    One-Electron Energy =               -2521.3332067875790017
    Two-Electron Energy =                 935.3343994115576834
    Total Energy =                      -1030.5459229469033744
  Basis Set: (AUG-CC-PVTZ AUX)
    Blend: AUG-CC-PVTZ-RI
    Molecular point group: c1

    Geometry (in Angstrom), charge = 0, multiplicity = 1:

       Center              X                  Y                   Z               Mass
    ------------   -----------------  -----------------  -----------------  -----------------
         S           -0.240993273035    -1.003003703958    -0.503570288028    31.972071174400
         S           -1.249676273035    -0.048779703958     1.015556711972    31.972071174400
         C            2.167170726965     0.327517296042     0.182439711972    12.000000000000
         C            1.082951726965     0.192060296042    -0.884320288028    12.000000000000
         C            2.962595726965    -0.963409703958     0.350893711972    12.000000000000
         C            3.088026726965     1.493417296042    -0.178069288028    12.000000000000
         C           -2.428278273035     0.998275296042     0.100061711972    12.000000000000
         C           -3.509309273035     0.217171296042    -0.629962288028    12.000000000000
         H            1.669616726965     0.563233296042     1.132059711972     1.007825032230
         H            0.621296726965     1.163687296042    -1.091780288028     1.007825032230
         H            1.542352026965    -0.184908903958    -1.866969788028     1.007825032230
         H            3.488125726965    -1.211620703958    -0.578664288028     1.007825032230
         H            3.711894726965    -0.853796703958     1.140855711972     1.007825032230
         H            2.312255726965    -1.802235703958     0.610814711972     1.007825032230
         H            3.587889726965     1.309267296042    -1.135696288028     1.007825032230
         H            3.862403726965     1.625234296042     0.583934711972     1.007825032230
         H            2.531088726965     2.432309296042    -0.260295288028     1.007825032230
         H           -2.864853273035     1.645903296042     0.868839711972     1.007825032230
         H           -1.870264273035     1.640863296042    -0.587814288028     1.007825032230
         H           -3.067985273035    -0.447551703958    -1.376204288028     1.007825032230
         H           -4.089331273035    -0.387509703958     0.071078711972     1.007825032230
         H           -4.189279273035     0.904379296042    -1.143513288028     1.007825032230

  Basis Set: AUG-CC-PVTZ
    Blend: AUG-CC-PVTZ
  Basis Set: (AUG-CC-PVTZ AUX)
    Blend: AUG-CC-PVTZ-JKFIT
	 Reference Energy          =   -1030.5459229469031470 [Eh]
	 Singles Energy            =      -0.0000000000000000 [Eh]
	 Same-Spin Energy          =      -0.3702035122313737 [Eh]
	 Opposite-Spin Energy      =      -1.2693067937547060 [Eh]
	 Correlation Energy        =      -1.6395103059860796 [Eh]
	 Total Energy              =   -1032.1854332528891973 [Eh]

	 ================> DF-SCS-MP2 Energies <==================
	-----------------------------------------------------------
	 SCS Same-Spin Scale       =       0.3333333333333333 [-]
	 SCS Opposite-Spin Scale   =       1.2000000000000000 [-]
	 SCS Same-Spin Energy      =      -0.1234011707437912 [Eh]
	 SCS Opposite-Spin Energy  =      -1.5231681525056471 [Eh]
	 SCS Correlation Energy    =      -1.6465693232494383 [Eh]
	 SCS Total Energy          =   -1032.1924922701525702 [Eh]
	-----------------------------------------------------------

  Dipole Moment: [D]
     X:     0.1056      Y:     1.7700      Z:    -0.8403     Total:     1.9622

*** Psi4 exiting successfully. Buy a developer a beer!
