                               Psi4 1.4a3.dev225

  ==> Input File <==

--------------------------------------------------------------------------
#psi4
#
memory 32 gb

molecule  {
0 1
  S       -0.2843280    -1.0417270    -0.4821980
  S       -1.2930110    -0.0875030     1.0369290
  C        2.0793773     0.2617893     0.2152119
  C        1.0396170     0.1533370    -0.8629480
  C        2.9192610    -1.0021330     0.3722660
  C        3.0446920     1.4546940    -0.1566970
  C       -2.4716130     0.9595520     0.1214340
  C       -3.5526440     0.1784480    -0.6085900
  H        1.6262820     0.5245100     1.1534320
  H        0.5779620     1.1249640    -1.0704080
  H        1.4790150    -0.2072190    -1.8028130
  H        3.4447910    -1.2503440    -0.5572920
  H        3.6685600    -0.8925200     1.1622280
  H        2.2689210    -1.8409590     0.6321870
  H        3.5445550     1.2705440    -1.1143240
  H        3.8190690     1.5865110     0.6053070
  H        2.4877540     2.3935860    -0.2389230
  H       -2.9081880     1.6071800     0.8902120
  H       -1.9135990     1.6021400    -0.5664420
  H       -3.1113200    -0.4862750    -1.3548320
  H       -4.1326660    -0.4262330     0.0924510
  H       -4.2326140     0.8656560    -1.1221410
units angstrom
no_reorient  #important for SAPT in psi4, default
symmetry c1  #important for SAPT in psi4, default
}

set PROPERTIES_ORIGIN ["COM"]
properties('MP2/aug-cc-pvtz', properties = ['dipole'])
--------------------------------------------------------------------------

    Molecular point group: c1
  Charge       = 0
  Multiplicity = 1
  Basis Set: AUG-CC-PVTZ
    Blend: AUG-CC-PVTZ
  Basis Set: (AUG-CC-PVTZ AUX)
    Blend: AUG-CC-PVTZ-JKFIT

    Orbital Energies [Eh]
    ---------------------

    Doubly Occupied:

       1A    -91.967581     2A    -91.966073     3A    -11.262177
       4A    -11.257687     5A    -11.230479     6A    -11.221263
       7A    -11.217762     8A    -11.210280     9A     -8.966411
      10A     -8.965011    11A     -6.647497    12A     -6.646288
      13A     -6.646040    14A     -6.645436    15A     -6.644873
      16A     -6.644062    17A     -1.111886    18A     -1.075592
      19A     -1.009664    20A     -0.936012    21A     -0.927136
      22A     -0.861834    23A     -0.796467    24A     -0.754192
      25A     -0.644742    26A     -0.629367    27A     -0.603585
      28A     -0.590548    29A     -0.584823    30A     -0.550577
      31A     -0.540641    32A     -0.534809    33A     -0.514837
      34A     -0.508511    35A     -0.496318    36A     -0.480211
      37A     -0.472663    38A     -0.444742    39A     -0.427393
      40A     -0.353290    41A     -0.343841

  @DF-RHF Final Energy: -1030.54567825681738

   => Energetics <=

    Nuclear Repulsion Energy =            556.1129811578953195
    One-Electron Energy =               -2522.6521081790933749
    Two-Electron Energy =                 935.9934487643806733
    Total Energy =                      -1030.5456782568173821
  Basis Set: (AUG-CC-PVTZ AUX)
    Blend: AUG-CC-PVTZ-RI
    Molecular point group: c1

    Geometry (in Angstrom), charge = 0, multiplicity = 1:

       Center              X                  Y                   Z               Mass
    ------------   -----------------  -----------------  -----------------  -----------------
         S           -0.237303505671    -1.000954339091    -0.504769312768    31.972071174400
         S           -1.245986505671    -0.046730339091     1.014357687232    31.972071174400
         C            2.126401794329     0.302561960909     0.192640587232    12.000000000000
         C            1.086641494329     0.194109660909    -0.885519312768    12.000000000000
         C            2.966285494329    -0.961360339091     0.349694687232    12.000000000000
         C            3.091716494329     1.495466660909    -0.179268312768    12.000000000000
         C           -2.424588505671     1.000324660909     0.098862687232    12.000000000000
         C           -3.505619505671     0.219220660909    -0.631161312768    12.000000000000
         H            1.673306494329     0.565282660909     1.130860687232     1.007825032230
         H            0.624986494329     1.165736660909    -1.092979312768     1.007825032230
         H            1.526039494329    -0.166446339091    -1.825384312768     1.007825032230
         H            3.491815494329    -1.209571339091    -0.579863312768     1.007825032230
         H            3.715584494329    -0.851747339091     1.139656687232     1.007825032230
         H            2.315945494329    -1.800186339091     0.609615687232     1.007825032230
         H            3.591579494329     1.311316660909    -1.136895312768     1.007825032230
         H            3.866093494329     1.627283660909     0.582735687232     1.007825032230
         H            2.534778494329     2.434358660909    -0.261494312768     1.007825032230
         H           -2.861163505671     1.647952660909     0.867640687232     1.007825032230
         H           -1.866574505671     1.642912660909    -0.589013312768     1.007825032230
         H           -3.064295505671    -0.445502339091    -1.377403312768     1.007825032230
         H           -4.085641505671    -0.385460339091     0.069879687232     1.007825032230
         H           -4.185589505671     0.906428660909    -1.144712312768     1.007825032230

  Basis Set: AUG-CC-PVTZ
    Blend: AUG-CC-PVTZ
  Basis Set: (AUG-CC-PVTZ AUX)
    Blend: AUG-CC-PVTZ-JKFIT
	 Reference Energy          =   -1030.5456782568173821 [Eh]
	 Singles Energy            =      -0.0000000000000000 [Eh]
	 Same-Spin Energy          =      -0.3701047878820468 [Eh]
	 Opposite-Spin Energy      =      -1.2689977317866661 [Eh]
	 Correlation Energy        =      -1.6391025196687128 [Eh]
	 Total Energy              =   -1032.1847807764861500 [Eh]

	 ================> DF-SCS-MP2 Energies <==================
	-----------------------------------------------------------
	 SCS Same-Spin Scale       =       0.3333333333333333 [-]
	 SCS Opposite-Spin Scale   =       1.2000000000000000 [-]
	 SCS Same-Spin Energy      =      -0.1233682626273489 [Eh]
	 SCS Opposite-Spin Energy  =      -1.5227972781439993 [Eh]
	 SCS Correlation Energy    =      -1.6461655407713482 [Eh]
	 SCS Total Energy          =   -1032.1918437975887173 [Eh]
	-----------------------------------------------------------

  Dipole Moment: [D]
     X:     0.1188      Y:     1.7550      Z:    -0.8643     Total:     1.9599

*** Psi4 exiting successfully. Buy a developer a beer!
