                               Psi4 1.4a3.dev225

  ==> Input File <==

--------------------------------------------------------------------------
#psi4
#
memory 32 gb

molecule  {
0 1
  S       -0.2843280    -1.0417270    -0.4821980
  S       -1.2930110    -0.0875030     1.0369290
  C        2.1238360     0.2887940     0.2038120
  C        1.0396170     0.1533370    -0.8629480
  C        2.9192610    -1.0021330     0.3722660
  C        3.1049254     1.5309558    -0.1802780
  C       -2.4716130     0.9595520     0.1214340
  C       -3.5526440     0.1784480    -0.6085900
  H        1.6262820     0.5245100     1.1534320
  H        0.5779620     1.1249640    -1.0704080
  H        1.4790150    -0.2072190    -1.8028130
  H        3.4447910    -1.2503440    -0.5572920
  H        3.6685600    -0.8925200     1.1622280
  H        2.2689210    -1.8409590     0.6321870
  H        3.5445550     1.2705440    -1.1143240
  H        3.8190690     1.5865110     0.6053070
  H        2.4877540     2.3935860    -0.2389230
  H       -2.9081880     1.6071800     0.8902120
  H       -1.9135990     1.6021400    -0.5664420
  H       -3.1113200    -0.4862750    -1.3548320
  H       -4.1326660    -0.4262330     0.0924510
  H       -4.2326140     0.8656560    -1.1221410
units angstrom
no_reorient  #important for SAPT in psi4, default
symmetry c1  #important for SAPT in psi4, default
}

set PROPERTIES_ORIGIN ["COM"]
properties('MP2/aug-cc-pvtz', properties = ['dipole'])
--------------------------------------------------------------------------

    Molecular point group: c1
  Charge       = 0
  Multiplicity = 1
  Basis Set: AUG-CC-PVTZ
    Blend: AUG-CC-PVTZ
  Basis Set: (AUG-CC-PVTZ AUX)
    Blend: AUG-CC-PVTZ-JKFIT

    Orbital Energies [Eh]
    ---------------------

    Doubly Occupied:

       1A    -91.967380     2A    -91.966859     3A    -11.262028
       4A    -11.257390     5A    -11.234919     6A    -11.221225
       7A    -11.213519     8A    -11.209997     9A     -8.966221
      10A     -8.965631    11A     -6.647326    12A     -6.646681
      13A     -6.646053    14A     -6.645491    15A     -6.645234
      16A     -6.644690    17A     -1.105493    18A     -1.072638
      19A     -1.008725    20A     -0.934992    21A     -0.932764
      22A     -0.861796    23A     -0.793675    24A     -0.750161
      25A     -0.642076    26A     -0.628745    27A     -0.604607
      28A     -0.590729    29A     -0.583525    30A     -0.557794
      31A     -0.544354    32A     -0.541505    33A     -0.513639
      34A     -0.509008    35A     -0.494281    36A     -0.477613
      37A     -0.472332    38A     -0.438558    39A     -0.425926
      40A     -0.352693    41A     -0.343726

  @DF-RHF Final Energy: -1030.54104066607488

   => Energetics <=

    Nuclear Repulsion Energy =            553.9952833202651163
    One-Electron Energy =               -2518.4286536623035317
    Two-Electron Energy =                 933.8923296759634241
    Total Energy =                      -1030.5410406660748777
  Basis Set: (AUG-CC-PVTZ AUX)
    Blend: AUG-CC-PVTZ-RI
    Molecular point group: c1

    Geometry (in Angstrom), charge = 0, multiplicity = 1:

       Center              X                  Y                   Z               Mass
    ------------   -----------------  -----------------  -----------------  -----------------
         S           -0.245675876764    -1.009212702993    -0.501971842128    31.972071174400
         S           -1.254358876764    -0.054988702993     1.017155157872    31.972071174400
         C            2.162488123236     0.321308297007     0.184038157872    12.000000000000
         C            1.078269123236     0.185851297007    -0.882721842128    12.000000000000
         C            2.957913123236    -0.969618702993     0.352492157872    12.000000000000
         C            3.143577523236     1.563470097007    -0.200051842128    12.000000000000
         C           -2.432960876764     0.992066297007     0.101660157872    12.000000000000
         C           -3.513991876764     0.210962297007    -0.628363842128    12.000000000000
         H            1.664934123236     0.557024297007     1.133658157872     1.007825032230
         H            0.616614123236     1.157478297007    -1.090181842128     1.007825032230
         H            1.517667123236    -0.174704702993    -1.822586842128     1.007825032230
         H            3.483443123236    -1.217829702993    -0.577065842128     1.007825032230
         H            3.707212123236    -0.860005702993     1.142454157872     1.007825032230
         H            2.307573123236    -1.808444702993     0.612413157872     1.007825032230
         H            3.583207123236     1.303058297007    -1.134097842128     1.007825032230
         H            3.857721123236     1.619025297007     0.585533157872     1.007825032230
         H            2.526406123236     2.426100297007    -0.258696842128     1.007825032230
         H           -2.869535876764     1.639694297007     0.870438157872     1.007825032230
         H           -1.874946876764     1.634654297007    -0.586215842128     1.007825032230
         H           -3.072667876764    -0.453760702993    -1.374605842128     1.007825032230
         H           -4.094013876764    -0.393718702993     0.072677157872     1.007825032230
         H           -4.193961876764     0.898170297007    -1.141914842128     1.007825032230

  Basis Set: AUG-CC-PVTZ
    Blend: AUG-CC-PVTZ
  Basis Set: (AUG-CC-PVTZ AUX)
    Blend: AUG-CC-PVTZ-JKFIT
	 Reference Energy          =   -1030.5410406660748777 [Eh]
	 Singles Energy            =      -0.0000000000000000 [Eh]
	 Same-Spin Energy          =      -0.3697788877694099 [Eh]
	 Opposite-Spin Energy      =      -1.2689315338515181 [Eh]
	 Correlation Energy        =      -1.6387104216209281 [Eh]
	 Total Energy              =   -1032.1797510876958768 [Eh]

	 ================> DF-SCS-MP2 Energies <==================
	-----------------------------------------------------------
	 SCS Same-Spin Scale       =       0.3333333333333333 [-]
	 SCS Opposite-Spin Scale   =       1.2000000000000000 [-]
	 SCS Same-Spin Energy      =      -0.1232596292564700 [Eh]
	 SCS Opposite-Spin Energy  =      -1.5227178406218218 [Eh]
	 SCS Correlation Energy    =      -1.6459774698782919 [Eh]
	 SCS Total Energy          =   -1032.1870181359531671 [Eh]
	-----------------------------------------------------------

  Dipole Moment: [D]
     X:     0.1064      Y:     1.7464      Z:    -0.8607     Total:     1.9499

*** Psi4 exiting successfully. Buy a developer a beer!
