                               Psi4 1.4a3.dev225

  ==> Input File <==

--------------------------------------------------------------------------
#psi4
#
memory 32 gb

molecule  {
0 1
  S       -0.2843280    -1.0417270    -0.4821980
  S       -1.2930110    -0.0875030     1.0369290
  C        2.1238360     0.2887940     0.2038120
  C        1.0396170     0.1533370    -0.8629480
  C        2.9192610    -1.0021330     0.3722660
  C        3.0446920     1.4546940    -0.1566970
  C       -2.4716130     0.9595520     0.1214340
  C       -3.5526440     0.1784480    -0.6085900
  H        1.6262820     0.5245100     1.1534320
  H        0.5779620     1.1249640    -1.0704080
  H        1.4790150    -0.2072190    -1.8028130
  H        3.4447910    -1.2503440    -0.5572920
  H        3.6685600    -0.8925200     1.1622280
  H        2.2689210    -1.8409590     0.6321870
  H        3.5445550     1.2705440    -1.1143240
  H        3.8190690     1.5865110     0.6053070
  H        2.4877540     2.3935860    -0.2389230
  H       -2.9081880     1.6071800     0.8902120
  H       -1.9135990     1.6021400    -0.5664420
  H       -3.1113200    -0.4862750    -1.3548320
  H       -4.0795740    -0.3708839     0.0282816
  H       -4.2326140     0.8656560    -1.1221410
units angstrom
no_reorient  #important for SAPT in psi4, default
symmetry c1  #important for SAPT in psi4, default
}

set PROPERTIES_ORIGIN ["COM"]
properties('MP2/aug-cc-pvtz', properties = ['dipole'])
--------------------------------------------------------------------------

    Molecular point group: c1
  Charge       = 0
  Multiplicity = 1
  Basis Set: AUG-CC-PVTZ
    Blend: AUG-CC-PVTZ
  Basis Set: (AUG-CC-PVTZ AUX)
    Blend: AUG-CC-PVTZ-JKFIT

    Orbital Energies [Eh]
    ---------------------

    Doubly Occupied:

       1A    -91.967357     2A    -91.966777     3A    -11.261229
       4A    -11.257407     5A    -11.230820     6A    -11.216728
       7A    -11.209982     8A    -11.208877     9A     -8.966200
      10A     -8.965552    11A     -6.647306    12A     -6.646609
      13A     -6.646035    14A     -6.645414    15A     -6.645219
      16A     -6.644613    17A     -1.110673    18A     -1.077915
      19A     -1.013869    20A     -0.938499    21A     -0.931084
      22A     -0.864930    23A     -0.794921    24A     -0.752666
      25A     -0.644294    26A     -0.634200    27A     -0.605033
      28A     -0.591068    29A     -0.586441    30A     -0.553808
      31A     -0.542847    32A     -0.534887    33A     -0.522377
      34A     -0.508411    35A     -0.492495    36A     -0.475267
      37A     -0.471619    38A     -0.452412    39A     -0.428563
      40A     -0.352641    41A     -0.343932

  @DF-RHF Final Energy: -1030.54189186855047

   => Energetics <=

    Nuclear Repulsion Energy =            556.1923346050347163
    One-Electron Energy =               -2522.7664989725822124
    Two-Electron Energy =                 936.0322724989970311
    Total Energy =                      -1030.5418918685504650
  Basis Set: (AUG-CC-PVTZ AUX)
    Blend: AUG-CC-PVTZ-RI
    Molecular point group: c1

    Geometry (in Angstrom), charge = 0, multiplicity = 1:

       Center              X                  Y                   Z               Mass
    ------------   -----------------  -----------------  -----------------  -----------------
         S           -0.241215517669    -1.003485690379    -0.503426657857    31.972071174400
         S           -1.249898517669    -0.049261690379     1.015700342143    31.972071174400
         C            2.166948482331     0.327035309621     0.182583342143    12.000000000000
         C            1.082729482331     0.191578309621    -0.884176657857    12.000000000000
         C            2.962373482331    -0.963891690379     0.351037342143    12.000000000000
         C            3.087804482331     1.492935309621    -0.177925657857    12.000000000000
         C           -2.428500517669     0.997793309621     0.100205342143    12.000000000000
         C           -3.509531517669     0.216689309621    -0.629818657857    12.000000000000
         H            1.669394482331     0.562751309621     1.132203342143     1.007825032230
         H            0.621074482331     1.163205309621    -1.091636657857     1.007825032230
         H            1.522127482331    -0.168977690379    -1.824041657857     1.007825032230
         H            3.487903482331    -1.212102690379    -0.578520657857     1.007825032230
         H            3.711672482331    -0.854278690379     1.140999342143     1.007825032230
         H            2.312033482331    -1.802717690379     0.610958342143     1.007825032230
         H            3.587667482331     1.308785309621    -1.135552657857     1.007825032230
         H            3.862181482331     1.624752309621     0.584078342143     1.007825032230
         H            2.530866482331     2.431827309621    -0.260151657857     1.007825032230
         H           -2.865075517669     1.645421309621     0.868983342143     1.007825032230
         H           -1.870486517669     1.640381309621    -0.587670657857     1.007825032230
         H           -3.068207517669    -0.448033690379    -1.376060657857     1.007825032230
         H           -4.036461517669    -0.332642590379     0.007052942143     1.007825032230
         H           -4.189501517669     0.903897309621    -1.143369657857     1.007825032230

  Basis Set: AUG-CC-PVTZ
    Blend: AUG-CC-PVTZ
  Basis Set: (AUG-CC-PVTZ AUX)
    Blend: AUG-CC-PVTZ-JKFIT
	 Reference Energy          =   -1030.5418918685504650 [Eh]
	 Singles Energy            =      -0.0000000000000000 [Eh]
	 Same-Spin Energy          =      -0.3701413276164491 [Eh]
	 Opposite-Spin Energy      =      -1.2684495006688872 [Eh]
	 Correlation Energy        =      -1.6385908282853363 [Eh]
	 Total Energy              =   -1032.1804826968357247 [Eh]

	 ================> DF-SCS-MP2 Energies <==================
	-----------------------------------------------------------
	 SCS Same-Spin Scale       =       0.3333333333333333 [-]
	 SCS Opposite-Spin Scale   =       1.2000000000000000 [-]
	 SCS Same-Spin Energy      =      -0.1233804425388164 [Eh]
	 SCS Opposite-Spin Energy  =      -1.5221394008026645 [Eh]
	 SCS Correlation Energy    =      -1.6455198433414808 [Eh]
	 SCS Total Energy          =   -1032.1874117118918548 [Eh]
	-----------------------------------------------------------

  Dipole Moment: [D]
     X:     0.0816      Y:     1.7479      Z:    -0.8479     Total:     1.9444

*** Psi4 exiting successfully. Buy a developer a beer!
