                               Psi4 1.4a3.dev225

  ==> Input File <==

--------------------------------------------------------------------------
#psi4
#
memory 32 gb

molecule  {
0 1
  S       -0.2843280    -1.0417270    -0.4821980
  S       -1.2930110    -0.0875030     1.0369290
  C        2.1238360     0.2887940     0.2038120
  C        1.0396170     0.1533370    -0.8629480
  C        2.9088336    -0.9852099     0.3700577
  C        3.0446920     1.4546940    -0.1566970
  C       -2.4716130     0.9595520     0.1214340
  C       -3.5526440     0.1784480    -0.6085900
  H        1.6262820     0.5245100     1.1534320
  H        0.5779620     1.1249640    -1.0704080
  H        1.4790150    -0.2072190    -1.8028130
  H        3.4447910    -1.2503440    -0.5572920
  H        3.6685600    -0.8925200     1.1622280
  H        2.2689210    -1.8409590     0.6321870
  H        3.5445550     1.2705440    -1.1143240
  H        3.8190690     1.5865110     0.6053070
  H        2.4877540     2.3935860    -0.2389230
  H       -2.9081880     1.6071800     0.8902120
  H       -1.9135990     1.6021400    -0.5664420
  H       -3.1113200    -0.4862750    -1.3548320
  H       -4.1326660    -0.4262330     0.0924510
  H       -4.2326140     0.8656560    -1.1221410
units angstrom
no_reorient  #important for SAPT in psi4, default
symmetry c1  #important for SAPT in psi4, default
}

set PROPERTIES_ORIGIN ["COM"]
properties('MP2/aug-cc-pvtz', properties = ['dipole'])
--------------------------------------------------------------------------

    Molecular point group: c1
  Charge       = 0
  Multiplicity = 1
  Basis Set: AUG-CC-PVTZ
    Blend: AUG-CC-PVTZ
  Basis Set: (AUG-CC-PVTZ AUX)
    Blend: AUG-CC-PVTZ-JKFIT

    Orbital Energies [Eh]
    ---------------------

    Doubly Occupied:

       1A    -91.967520     2A    -91.966988     3A    -11.262112
       4A    -11.257607     5A    -11.230075     6A    -11.221293
       7A    -11.216887     8A    -11.211001     9A     -8.966361
      10A     -8.965757    11A     -6.647466    12A     -6.646811
      13A     -6.646194    14A     -6.645618    15A     -6.645374
      16A     -6.644819    17A     -1.112146    18A     -1.077298
      19A     -1.012239    20A     -0.935146    21A     -0.931005
      22A     -0.860909    23A     -0.793525    24A     -0.752160
      25A     -0.644429    26A     -0.630045    27A     -0.605354
      28A     -0.591597    29A     -0.585924    30A     -0.551721
      31A     -0.540873    32A     -0.533206    33A     -0.513295
      34A     -0.506203    35A     -0.492657    36A     -0.479137
      37A     -0.470710    38A     -0.452186    39A     -0.428727
      40A     -0.352914    41A     -0.344114

  @DF-RHF Final Energy: -1030.54745669234990

   => Energetics <=

    Nuclear Repulsion Energy =            556.0719217794943461
    One-Electron Energy =               -2522.5599483112491725
    Two-Electron Energy =                 935.9405698394048159
    Total Energy =                      -1030.5474566923498969
  Basis Set: (AUG-CC-PVTZ AUX)
    Blend: AUG-CC-PVTZ-RI
    Molecular point group: c1

    Geometry (in Angstrom), charge = 0, multiplicity = 1:

       Center              X                  Y                   Z               Mass
    ------------   -----------------  -----------------  -----------------  -----------------
         S           -0.240025035493    -1.004467305617    -0.503681046315    31.972071174400
         S           -1.248708035493    -0.050243305617     1.015445953685    31.972071174400
         C            2.168138964507     0.326053694383     0.182328953685    12.000000000000
         C            1.083919964507     0.190596694383    -0.884431046315    12.000000000000
         C            2.953136564507    -0.947950205617     0.348574653685    12.000000000000
         C            3.088994964507     1.491953694383    -0.178180046315    12.000000000000
         C           -2.427310035493     0.996811694383     0.099950953685    12.000000000000
         C           -3.508341035493     0.215707694383    -0.630073046315    12.000000000000
         H            1.670584964507     0.561769694383     1.131948953685     1.007825032230
         H            0.622264964507     1.162223694383    -1.091891046315     1.007825032230
         H            1.523317964507    -0.169959305617    -1.824296046315     1.007825032230
         H            3.489093964507    -1.213084305617    -0.578775046315     1.007825032230
         H            3.712862964507    -0.855260305617     1.140744953685     1.007825032230
         H            2.313223964507    -1.803699305617     0.610703953685     1.007825032230
         H            3.588857964507     1.307803694383    -1.135807046315     1.007825032230
         H            3.863371964507     1.623770694383     0.583823953685     1.007825032230
         H            2.532056964507     2.430845694383    -0.260406046315     1.007825032230
         H           -2.863885035493     1.644439694383     0.868728953685     1.007825032230
         H           -1.869296035493     1.639399694383    -0.587925046315     1.007825032230
         H           -3.067017035493    -0.449015305617    -1.376315046315     1.007825032230
         H           -4.088363035493    -0.388973305617     0.070967953685     1.007825032230
         H           -4.188311035493     0.902915694383    -1.143624046315     1.007825032230

  Basis Set: AUG-CC-PVTZ
    Blend: AUG-CC-PVTZ
  Basis Set: (AUG-CC-PVTZ AUX)
    Blend: AUG-CC-PVTZ-JKFIT
	 Reference Energy          =   -1030.5474566923498969 [Eh]
	 Singles Energy            =      -0.0000000000000000 [Eh]
	 Same-Spin Energy          =      -0.3702733101516539 [Eh]
	 Opposite-Spin Energy      =      -1.2690603621383749 [Eh]
	 Correlation Energy        =      -1.6393336722900287 [Eh]
	 Total Energy              =   -1032.1867903646398190 [Eh]

	 ================> DF-SCS-MP2 Energies <==================
	-----------------------------------------------------------
	 SCS Same-Spin Scale       =       0.3333333333333333 [-]
	 SCS Opposite-Spin Scale   =       1.2000000000000000 [-]
	 SCS Same-Spin Energy      =      -0.1234244367172180 [Eh]
	 SCS Opposite-Spin Energy  =      -1.5228724345660498 [Eh]
	 SCS Correlation Energy    =      -1.6462968712832677 [Eh]
	 SCS Total Energy          =   -1032.1937535636332086 [Eh]
	-----------------------------------------------------------

  Dipole Moment: [D]
     X:     0.1153      Y:     1.7643      Z:    -0.8598     Total:     1.9660

*** Psi4 exiting successfully. Buy a developer a beer!
