                               Psi4 1.4a3.dev225

  ==> Input File <==

--------------------------------------------------------------------------
#psi4
#
memory 32 gb

molecule  {
0 1
  S       -0.2843280    -1.0417270    -0.4821980
  S       -1.2930110    -0.0875030     1.0369290
  C        2.1238360     0.2887940     0.2038120
  C        1.0396170     0.1533370    -0.8629480
  C        2.9192610    -1.0021330     0.3722660
  C        3.0446920     1.4546940    -0.1566970
  C       -2.4716130     0.9595520     0.1214340
  C       -3.5526440     0.1784480    -0.6085900
  H        1.6262820     0.5245100     1.1534320
  H        0.5779620     1.1249640    -1.0704080
  H        1.5590241    -0.2728719    -1.9739511
  H        3.4447910    -1.2503440    -0.5572920
  H        3.6685600    -0.8925200     1.1622280
  H        2.2689210    -1.8409590     0.6321870
  H        3.5445550     1.2705440    -1.1143240
  H        3.8190690     1.5865110     0.6053070
  H        2.4877540     2.3935860    -0.2389230
  H       -2.9081880     1.6071800     0.8902120
  H       -1.9135990     1.6021400    -0.5664420
  H       -3.1113200    -0.4862750    -1.3548320
  H       -4.1326660    -0.4262330     0.0924510
  H       -4.2326140     0.8656560    -1.1221410
units angstrom
no_reorient  #important for SAPT in psi4, default
symmetry c1  #important for SAPT in psi4, default
}

set PROPERTIES_ORIGIN ["COM"]
properties('MP2/aug-cc-pvtz', properties = ['dipole'])
--------------------------------------------------------------------------

    Molecular point group: c1
  Charge       = 0
  Multiplicity = 1
  Basis Set: AUG-CC-PVTZ
    Blend: AUG-CC-PVTZ
  Basis Set: (AUG-CC-PVTZ AUX)
    Blend: AUG-CC-PVTZ-JKFIT

    Orbital Energies [Eh]
    ---------------------

    Doubly Occupied:

       1A    -91.968952     2A    -91.968647     3A    -11.279131
       4A    -11.262885     5A    -11.233219     6A    -11.221851
       7A    -11.216963     8A    -11.210122     9A     -8.967622
      10A     -8.967419    11A     -6.648750    12A     -6.648403
      13A     -6.647396    14A     -6.647310    15A     -6.646554
      16A     -6.646517    17A     -1.108717    18A     -1.077027
      19A     -1.011308    20A     -0.931264    21A     -0.929785
      22A     -0.859143    23A     -0.793361    24A     -0.744046
      25A     -0.641309    26A     -0.630249    27A     -0.603237
      28A     -0.591795    29A     -0.581646    30A     -0.542401
      31A     -0.538534    32A     -0.531542    33A     -0.510924
      34A     -0.508953    35A     -0.492836    36A     -0.476184
      37A     -0.468858    38A     -0.452949    39A     -0.425922
      40A     -0.353877    41A     -0.345320

  @DF-RHF Final Energy: -1030.52814641250734

   => Energetics <=

    Nuclear Repulsion Energy =            554.7111010351256937
    One-Electron Energy =               -2519.8126385727196066
    Two-Electron Energy =                 934.5733911250866868
    Total Energy =                      -1030.5281464125073398
  Basis Set: (AUG-CC-PVTZ AUX)
    Blend: AUG-CC-PVTZ-RI
    Molecular point group: c1

    Geometry (in Angstrom), charge = 0, multiplicity = 1:

       Center              X                  Y                   Z               Mass
    ------------   -----------------  -----------------  -----------------  -----------------
         S           -0.241396304470    -1.002672988990    -0.502708210136    31.972071174400
         S           -1.250079304470    -0.048448988990     1.016418789864    31.972071174400
         C            2.166767695530     0.327848011010     0.183301789864    12.000000000000
         C            1.082548695530     0.192391011010    -0.883458210136    12.000000000000
         C            2.962192695530    -0.963078988990     0.351755789864    12.000000000000
         C            3.087623695530     1.493748011010    -0.177207210136    12.000000000000
         C           -2.428681304470     0.998606011010     0.100923789864    12.000000000000
         C           -3.509712304470     0.217502011010    -0.629100210136    12.000000000000
         H            1.669213695530     0.563564011010     1.132921789864     1.007825032230
         H            0.620893695530     1.164018011010    -1.090918210136     1.007825032230
         H            1.601955795530    -0.233817888990    -1.994461310136     1.007825032230
         H            3.487722695530    -1.211289988990    -0.577802210136     1.007825032230
         H            3.711491695530    -0.853465988990     1.141717789864     1.007825032230
         H            2.311852695530    -1.801904988990     0.611676789864     1.007825032230
         H            3.587486695530     1.309598011010    -1.134834210136     1.007825032230
         H            3.862000695530     1.625565011010     0.584796789864     1.007825032230
         H            2.530685695530     2.432640011010    -0.259433210136     1.007825032230
         H           -2.865256304470     1.646234011010     0.869701789864     1.007825032230
         H           -1.870667304470     1.641194011010    -0.586952210136     1.007825032230
         H           -3.068388304470    -0.447220988990    -1.375342210136     1.007825032230
         H           -4.089734304470    -0.387178988990     0.071940789864     1.007825032230
         H           -4.189682304470     0.904710011010    -1.142651210136     1.007825032230

  Basis Set: AUG-CC-PVTZ
    Blend: AUG-CC-PVTZ
  Basis Set: (AUG-CC-PVTZ AUX)
    Blend: AUG-CC-PVTZ-JKFIT
	 Reference Energy          =   -1030.5281464125073398 [Eh]
	 Singles Energy            =      -0.0000000000000000 [Eh]
	 Same-Spin Energy          =      -0.3705186932114360 [Eh]
	 Opposite-Spin Energy      =      -1.2708275727662879 [Eh]
	 Correlation Energy        =      -1.6413462659777238 [Eh]
	 Total Energy              =   -1032.1694926784850850 [Eh]

	 ================> DF-SCS-MP2 Energies <==================
	-----------------------------------------------------------
	 SCS Same-Spin Scale       =       0.3333333333333333 [-]
	 SCS Opposite-Spin Scale   =       1.2000000000000000 [-]
	 SCS Same-Spin Energy      =      -0.1235062310704787 [Eh]
	 SCS Opposite-Spin Energy  =      -1.5249930873195454 [Eh]
	 SCS Correlation Energy    =      -1.6484993183900241 [Eh]
	 SCS Total Energy          =   -1032.1766457308974623 [Eh]
	-----------------------------------------------------------

  Dipole Moment: [D]
     X:     0.0582      Y:     1.7821      Z:    -0.7533     Total:     1.9357

*** Psi4 exiting successfully. Buy a developer a beer!
