                               Psi4 1.4a3.dev225

  ==> Input File <==

--------------------------------------------------------------------------
#psi4
#
memory 32 gb

molecule  {
0 1
  S       -0.2843280    -1.0417270    -0.4821980
  S       -1.2930110    -0.0875030     1.0369290
  C        2.1238360     0.2887940     0.2038120
  C        1.0396170     0.1533370    -0.8629480
  C        2.9192610    -1.0021330     0.3722660
  C        3.0446920     1.4546940    -0.1566970
  C       -2.4716130     0.9595520     0.1214340
  C       -3.5890430     0.2020708    -0.5780366
  H        1.6262820     0.5245100     1.1534320
  H        0.5779620     1.1249640    -1.0704080
  H        1.4790150    -0.2072190    -1.8028130
  H        3.4447910    -1.2503440    -0.5572920
  H        3.6685600    -0.8925200     1.1622280
  H        2.2689210    -1.8409590     0.6321870
  H        3.5445550     1.2705440    -1.1143240
  H        3.8190690     1.5865110     0.6053070
  H        2.4877540     2.3935860    -0.2389230
  H       -2.9081880     1.6071800     0.8902120
  H       -1.9135990     1.6021400    -0.5664420
  H       -3.1113200    -0.4862750    -1.3548320
  H       -4.1326660    -0.4262330     0.0924510
  H       -4.2326140     0.8656560    -1.1221410
units angstrom
no_reorient  #important for SAPT in psi4, default
symmetry c1  #important for SAPT in psi4, default
}

set PROPERTIES_ORIGIN ["COM"]
properties('MP2/aug-cc-pvtz', properties = ['dipole'])
--------------------------------------------------------------------------

    Molecular point group: c1
  Charge       = 0
  Multiplicity = 1
  Basis Set: AUG-CC-PVTZ
    Blend: AUG-CC-PVTZ
  Basis Set: (AUG-CC-PVTZ AUX)
    Blend: AUG-CC-PVTZ-JKFIT

    Orbital Energies [Eh]
    ---------------------

    Doubly Occupied:

       1A    -91.968165     2A    -91.966935     3A    -11.261965
       4A    -11.257558     5A    -11.230977     6A    -11.221414
       7A    -11.216853     8A    -11.210101     9A     -8.966925
      10A     -8.965708    11A     -6.648015    12A     -6.646845
      13A     -6.646691    14A     -6.645947    15A     -6.645561
      16A     -6.644760    17A     -1.110622    18A     -1.076319
      19A     -1.012024    20A     -0.935577    21A     -0.931155
      22A     -0.860714    23A     -0.793600    24A     -0.752031
      25A     -0.643517    26A     -0.628926    27A     -0.605633
      28A     -0.593453    29A     -0.587120    30A     -0.552881
      31A     -0.541017    32A     -0.534629    33A     -0.514309
      34A     -0.504955    35A     -0.489273    36A     -0.474515
      37A     -0.472263    38A     -0.453499    39A     -0.428474
      40A     -0.352949    41A     -0.344582

  @DF-RHF Final Energy: -1030.54515072426625

   => Energetics <=

    Nuclear Repulsion Energy =            555.3652939597930072
    One-Electron Energy =               -2521.1439732570329397
    Two-Electron Energy =                 935.2335285729736825
    Total Energy =                      -1030.5451507242662501
  Basis Set: (AUG-CC-PVTZ AUX)
    Blend: AUG-CC-PVTZ-RI
    Molecular point group: c1

    Geometry (in Angstrom), charge = 0, multiplicity = 1:

       Center              X                  Y                   Z               Mass
    ------------   -----------------  -----------------  -----------------  -----------------
         S           -0.237948050954    -1.005003089832    -0.506301044482    31.972071174400
         S           -1.246631050954    -0.050779089832     1.012825955518    31.972071174400
         C            2.170215949046     0.325517910168     0.179708955518    12.000000000000
         C            1.085996949046     0.190060910168    -0.887051044482    12.000000000000
         C            2.965640949046    -0.965409089832     0.348162955518    12.000000000000
         C            3.091071949046     1.491417910168    -0.180800044482    12.000000000000
         C           -2.425233050954     0.996275910168     0.097330955518    12.000000000000
         C           -3.542663050954     0.238794710168    -0.602139644482    12.000000000000
         H            1.672661949046     0.561233910168     1.129328955518     1.007825032230
         H            0.624341949046     1.161687910168    -1.094511044482     1.007825032230
         H            1.525394949046    -0.170495089832    -1.826916044482     1.007825032230
         H            3.491170949046    -1.213620089832    -0.581395044482     1.007825032230
         H            3.714939949046    -0.855796089832     1.138124955518     1.007825032230
         H            2.315300949046    -1.804235089832     0.608083955518     1.007825032230
         H            3.590934949046     1.307267910168    -1.138427044482     1.007825032230
         H            3.865448949046     1.623234910168     0.581203955518     1.007825032230
         H            2.534133949046     2.430309910168    -0.263026044482     1.007825032230
         H           -2.861808050954     1.643903910168     0.866108955518     1.007825032230
         H           -1.867219050954     1.638863910168    -0.590545044482     1.007825032230
         H           -3.064940050954    -0.449551089832    -1.378935044482     1.007825032230
         H           -4.086286050954    -0.389509089832     0.068347955518     1.007825032230
         H           -4.186234050954     0.902379910168    -1.146244044482     1.007825032230

  Basis Set: AUG-CC-PVTZ
    Blend: AUG-CC-PVTZ
  Basis Set: (AUG-CC-PVTZ AUX)
    Blend: AUG-CC-PVTZ-JKFIT
	 Reference Energy          =   -1030.5451507242662501 [Eh]
	 Singles Energy            =      -0.0000000000000000 [Eh]
	 Same-Spin Energy          =      -0.3701620463033794 [Eh]
	 Opposite-Spin Energy      =      -1.2690385882221888 [Eh]
	 Correlation Energy        =      -1.6392006345255683 [Eh]
	 Total Energy              =   -1032.1843513587919006 [Eh]

	 ================> DF-SCS-MP2 Energies <==================
	-----------------------------------------------------------
	 SCS Same-Spin Scale       =       0.3333333333333333 [-]
	 SCS Opposite-Spin Scale   =       1.2000000000000000 [-]
	 SCS Same-Spin Energy      =      -0.1233873487677931 [Eh]
	 SCS Opposite-Spin Energy  =      -1.5228463058666266 [Eh]
	 SCS Correlation Energy    =      -1.6462336546344198 [Eh]
	 SCS Total Energy          =   -1032.1913843789006933 [Eh]
	-----------------------------------------------------------

  Dipole Moment: [D]
     X:     0.1226      Y:     1.7696      Z:    -0.8495     Total:     1.9668

*** Psi4 exiting successfully. Buy a developer a beer!
