                               Psi4 1.4a3.dev225

  ==> Input File <==

--------------------------------------------------------------------------
#psi4
#
memory 32 gb

molecule  {
0 1
  S       -0.2843280    -1.0417270    -0.4821980
  S       -1.2930110    -0.0875030     1.0369290
  C        2.1238360     0.2887940     0.2038120
  C        1.0396170     0.1533370    -0.8629480
  C        2.9453296    -1.0444408     0.3777868
  C        3.0446920     1.4546940    -0.1566970
  C       -2.4716130     0.9595520     0.1214340
  C       -3.5526440     0.1784480    -0.6085900
  H        1.6262820     0.5245100     1.1534320
  H        0.5779620     1.1249640    -1.0704080
  H        1.4790150    -0.2072190    -1.8028130
  H        3.4447910    -1.2503440    -0.5572920
  H        3.6685600    -0.8925200     1.1622280
  H        2.2689210    -1.8409590     0.6321870
  H        3.5445550     1.2705440    -1.1143240
  H        3.8190690     1.5865110     0.6053070
  H        2.4877540     2.3935860    -0.2389230
  H       -2.9081880     1.6071800     0.8902120
  H       -1.9135990     1.6021400    -0.5664420
  H       -3.1113200    -0.4862750    -1.3548320
  H       -4.1326660    -0.4262330     0.0924510
  H       -4.2326140     0.8656560    -1.1221410
units angstrom
no_reorient  #important for SAPT in psi4, default
symmetry c1  #important for SAPT in psi4, default
}

set PROPERTIES_ORIGIN ["COM"]
properties('MP2/aug-cc-pvtz', properties = ['dipole'])
--------------------------------------------------------------------------

    Molecular point group: c1
  Charge       = 0
  Multiplicity = 1
  Basis Set: AUG-CC-PVTZ
    Blend: AUG-CC-PVTZ
  Basis Set: (AUG-CC-PVTZ AUX)
    Blend: AUG-CC-PVTZ-JKFIT

    Orbital Energies [Eh]
    ---------------------

    Doubly Occupied:

       1A    -91.967467     2A    -91.966954     3A    -11.262077
       4A    -11.257496     5A    -11.232929     6A    -11.221261
       7A    -11.216763     8A    -11.208275     9A     -8.966308
      10A     -8.965724    11A     -6.647414    12A     -6.646778
      13A     -6.646141    14A     -6.645590    15A     -6.645320
      16A     -6.644790    17A     -1.107659    18A     -1.074685
      19A     -1.010445    20A     -0.935023    21A     -0.931544
      22A     -0.861031    23A     -0.793622    24A     -0.751310
      25A     -0.641759    26A     -0.629199    27A     -0.604501
      28A     -0.591975    29A     -0.585219    30A     -0.550960
      31A     -0.543529    32A     -0.538259    33A     -0.516733
      34A     -0.511032    35A     -0.493386    36A     -0.474672
      37A     -0.463104    38A     -0.453135    39A     -0.428397
      40A     -0.352836    41A     -0.344065

  @DF-RHF Final Energy: -1030.54650838849147

   => Energetics <=

    Nuclear Repulsion Energy =            554.8651015275128202
    One-Electron Energy =               -2520.1644857480655446
    Two-Electron Energy =                 934.7528758320613633
    Total Energy =                      -1030.5465083884914748
  Basis Set: (AUG-CC-PVTZ AUX)
    Blend: AUG-CC-PVTZ-RI
    Molecular point group: c1

    Geometry (in Angstrom), charge = 0, multiplicity = 1:

       Center              X                  Y                   Z               Mass
    ------------   -----------------  -----------------  -----------------  -----------------
         S           -0.242943670762    -0.999730529156    -0.504299153063    31.972071174400
         S           -1.251626670762    -0.045506529156     1.014827846937    31.972071174400
         C            2.165220329238     0.330790470844     0.181710846937    12.000000000000
         C            1.081001329238     0.195333470844    -0.885049153063    12.000000000000
         C            2.986713929238    -1.002444329156     0.355685646937    12.000000000000
         C            3.086076329238     1.496690470844    -0.178798153063    12.000000000000
         C           -2.430228670762     1.001548470844     0.099332846937    12.000000000000
         C           -3.511259670762     0.220444470844    -0.630691153063    12.000000000000
         H            1.667666329238     0.566506470844     1.131330846937     1.007825032230
         H            0.619346329238     1.166960470844    -1.092509153063     1.007825032230
         H            1.520399329238    -0.165222529156    -1.824914153063     1.007825032230
         H            3.486175329238    -1.208347529156    -0.579393153063     1.007825032230
         H            3.709944329238    -0.850523529156     1.140126846937     1.007825032230
         H            2.310305329238    -1.798962529156     0.610085846937     1.007825032230
         H            3.585939329238     1.312540470844    -1.136425153063     1.007825032230
         H            3.860453329238     1.628507470844     0.583205846937     1.007825032230
         H            2.529138329238     2.435582470844    -0.261024153063     1.007825032230
         H           -2.866803670762     1.649176470844     0.868110846937     1.007825032230
         H           -1.872214670762     1.644136470844    -0.588543153063     1.007825032230
         H           -3.069935670762    -0.444278529156    -1.376933153063     1.007825032230
         H           -4.091281670762    -0.384236529156     0.070349846937     1.007825032230
         H           -4.191229670762     0.907652470844    -1.144242153063     1.007825032230

  Basis Set: AUG-CC-PVTZ
    Blend: AUG-CC-PVTZ
  Basis Set: (AUG-CC-PVTZ AUX)
    Blend: AUG-CC-PVTZ-JKFIT
	 Reference Energy          =   -1030.5465083884914748 [Eh]
	 Singles Energy            =      -0.0000000000000000 [Eh]
	 Same-Spin Energy          =      -0.3698104847523224 [Eh]
	 Opposite-Spin Energy      =      -1.2687190266048887 [Eh]
	 Correlation Energy        =      -1.6385295113572109 [Eh]
	 Total Energy              =   -1032.1850378998487940 [Eh]

	 ================> DF-SCS-MP2 Energies <==================
	-----------------------------------------------------------
	 SCS Same-Spin Scale       =       0.3333333333333333 [-]
	 SCS Opposite-Spin Scale   =       1.2000000000000000 [-]
	 SCS Same-Spin Energy      =      -0.1232701615841074 [Eh]
	 SCS Opposite-Spin Energy  =      -1.5224628319258664 [Eh]
	 SCS Correlation Energy    =      -1.6457329935099738 [Eh]
	 SCS Total Energy          =   -1032.1922413820013844 [Eh]
	-----------------------------------------------------------

  Dipole Moment: [D]
     X:     0.1162      Y:     1.7798      Z:    -0.8677     Total:     1.9834

*** Psi4 exiting successfully. Buy a developer a beer!
