                               Psi4 1.4a3.dev225

  ==> Input File <==

--------------------------------------------------------------------------
#psi4
#
memory 32 gb

molecule  {
0 1
  S       -0.2843280    -1.0417270    -0.4821980
  S       -1.2930110    -0.0875030     1.0369290
  C        2.1238360     0.2887940     0.2038120
  C        1.0396170     0.1533370    -0.8629480
  C        2.9192610    -1.0021330     0.3722660
  C        3.0446920     1.4546940    -0.1566970
  C       -2.4716130     0.9595520     0.1214340
  C       -3.5526440     0.1784480    -0.6085900
  H        1.6262820     0.5245100     1.1534320
  H        0.5779620     1.1249640    -1.0704080
  H        1.4790150    -0.2072190    -1.8028130
  H        3.4447910    -1.2503440    -0.5572920
  H        3.6685600    -0.8925200     1.1622280
  H        2.2689210    -1.8409590     0.6321870
  H        3.5445550     1.2705440    -1.1143240
  H        3.8190690     1.5865110     0.6053070
  H        2.4877540     2.3935860    -0.2389230
  H       -2.9081880     1.6071800     0.8902120
  H       -1.9135990     1.6021400    -0.5664420
  H       -3.1113200    -0.4862750    -1.3548320
  H       -4.2388500    -0.5369313     0.2207898
  H       -4.2326140     0.8656560    -1.1221410
units angstrom
no_reorient  #important for SAPT in psi4, default
symmetry c1  #important for SAPT in psi4, default
}

set PROPERTIES_ORIGIN ["COM"]
properties('MP2/aug-cc-pvtz', properties = ['dipole'])
--------------------------------------------------------------------------

    Molecular point group: c1
  Charge       = 0
  Multiplicity = 1
  Basis Set: AUG-CC-PVTZ
    Blend: AUG-CC-PVTZ
  Basis Set: (AUG-CC-PVTZ AUX)
    Blend: AUG-CC-PVTZ-JKFIT

    Orbital Energies [Eh]
    ---------------------

    Doubly Occupied:

       1A    -91.968093     2A    -91.967610     3A    -11.264585
       4A    -11.258057     5A    -11.244204     6A    -11.231316
       7A    -11.217170     8A    -11.210395     9A     -8.966920
      10A     -8.966370    11A     -6.648018    12A     -6.647419
      13A     -6.646746    14A     -6.646232    15A     -6.645917
      16A     -6.645435    17A     -1.111046    18A     -1.075870
      19A     -1.010030    20A     -0.932323    21A     -0.930830
      22A     -0.856307    23A     -0.792070    24A     -0.751183
      25A     -0.643493    26A     -0.624751    27A     -0.605116
      28A     -0.593555    29A     -0.585402    30A     -0.550249
      31A     -0.541075    32A     -0.535517    33A     -0.509691
      34A     -0.495429    35A     -0.482304    36A     -0.475949
      37A     -0.471149    38A     -0.453291    39A     -0.429079
      40A     -0.353633    41A     -0.344695

  @DF-RHF Final Energy: -1030.52811412434835

   => Energetics <=

    Nuclear Repulsion Energy =            554.9259229213133722
    One-Electron Energy =               -2520.2510273659413542
    Two-Electron Energy =                 934.7969903202795194
    Total Energy =                      -1030.5281141243483489
  Basis Set: (AUG-CC-PVTZ AUX)
    Blend: AUG-CC-PVTZ-RI
    Molecular point group: c1

    Geometry (in Angstrom), charge = 0, multiplicity = 1:

       Center              X                  Y                   Z               Mass
    ------------   -----------------  -----------------  -----------------  -----------------
         S           -0.240145751661    -1.002370444741    -0.504719625589    31.972071174400
         S           -1.248828751661    -0.048146444741     1.014407374411    31.972071174400
         C            2.168018248339     0.328150555259     0.181290374411    12.000000000000
         C            1.083799248339     0.192693555259    -0.885469625589    12.000000000000
         C            2.963443248339    -0.962776444741     0.349744374411    12.000000000000
         C            3.088874248339     1.494050555259    -0.179218625589    12.000000000000
         C           -2.427430751661     0.998908555259     0.098912374411    12.000000000000
         C           -3.508461751661     0.217804555259    -0.631111625589    12.000000000000
         H            1.670464248339     0.563866555259     1.130910374411     1.007825032230
         H            0.622144248339     1.164320555259    -1.092929625589     1.007825032230
         H            1.523197248339    -0.167862444741    -1.825334625589     1.007825032230
         H            3.488973248339    -1.210987444741    -0.579813625589     1.007825032230
         H            3.712742248339    -0.853163444741     1.139706374411     1.007825032230
         H            2.313103248339    -1.801602444741     0.609665374411     1.007825032230
         H            3.588737248339     1.309900555259    -1.136845625589     1.007825032230
         H            3.863251248339     1.625867555259     0.582785374411     1.007825032230
         H            2.531936248339     2.432942555259    -0.261444625589     1.007825032230
         H           -2.864005751661     1.646536555259     0.867690374411     1.007825032230
         H           -1.869416751661     1.641496555259    -0.588963625589     1.007825032230
         H           -3.067137751661    -0.446918444741    -1.377353625589     1.007825032230
         H           -4.194667751661    -0.497574744741     0.198268174411     1.007825032230
         H           -4.188431751661     0.905012555259    -1.144662625589     1.007825032230

  Basis Set: AUG-CC-PVTZ
    Blend: AUG-CC-PVTZ
  Basis Set: (AUG-CC-PVTZ AUX)
    Blend: AUG-CC-PVTZ-JKFIT
	 Reference Energy          =   -1030.5281141243483489 [Eh]
	 Singles Energy            =      -0.0000000000000000 [Eh]
	 Same-Spin Energy          =      -0.3700725663151613 [Eh]
	 Opposite-Spin Energy      =      -1.2704224645299029 [Eh]
	 Correlation Energy        =      -1.6404950308450643 [Eh]
	 Total Energy              =   -1032.1686091551935078 [Eh]

	 ================> DF-SCS-MP2 Energies <==================
	-----------------------------------------------------------
	 SCS Same-Spin Scale       =       0.3333333333333333 [-]
	 SCS Opposite-Spin Scale   =       1.2000000000000000 [-]
	 SCS Same-Spin Energy      =      -0.1233575221050538 [Eh]
	 SCS Opposite-Spin Energy  =      -1.5245069574358834 [Eh]
	 SCS Correlation Energy    =      -1.6478644795409372 [Eh]
	 SCS Total Energy          =   -1032.1759786038892344 [Eh]
	-----------------------------------------------------------

  Dipole Moment: [D]
     X:     0.2232      Y:     1.8280      Z:    -0.9077     Total:     2.0531

*** Psi4 exiting successfully. Buy a developer a beer!
