                               Psi4 1.4a3.dev225

  ==> Input File <==

--------------------------------------------------------------------------
#psi4
#
memory 32 gb

molecule  {
0 1
  S       -0.2843280    -1.0417270    -0.4821980
  S       -1.2930110    -0.0875030     1.0369290
  C        2.1238360     0.2887940     0.2038120
  C        1.0396170     0.1533370    -0.8629480
  C        2.9192610    -1.0021330     0.3722660
  C        3.0446920     1.4546940    -0.1566970
  C       -2.4716130     0.9595520     0.1214340
  C       -3.6577139     0.2520552    -0.5144114
  H        1.6262820     0.5245100     1.1534320
  H        0.5779620     1.1249640    -1.0704080
  H        1.4790150    -0.2072190    -1.8028130
  H        3.4447910    -1.2503440    -0.5572920
  H        3.6685600    -0.8925200     1.1622280
  H        2.2689210    -1.8409590     0.6321870
  H        3.5445550     1.2705440    -1.1143240
  H        3.8190690     1.5865110     0.6053070
  H        2.4877540     2.3935860    -0.2389230
  H       -2.9081880     1.6071800     0.8902120
  H       -1.9135990     1.6021400    -0.5664420
  H       -3.1113200    -0.4862750    -1.3548320
  H       -4.1326660    -0.4262330     0.0924510
  H       -4.2326140     0.8656560    -1.1221410
units angstrom
no_reorient  #important for SAPT in psi4, default
symmetry c1  #important for SAPT in psi4, default
}

set PROPERTIES_ORIGIN ["COM"]
properties('MP2/aug-cc-pvtz', properties = ['dipole'])
--------------------------------------------------------------------------

    Molecular point group: c1
  Charge       = 0
  Multiplicity = 1
  Basis Set: AUG-CC-PVTZ
    Blend: AUG-CC-PVTZ
  Basis Set: (AUG-CC-PVTZ AUX)
    Blend: AUG-CC-PVTZ-JKFIT

    Orbital Energies [Eh]
    ---------------------

    Doubly Occupied:

       1A    -91.969679     2A    -91.967035     3A    -11.262904
       4A    -11.257671     5A    -11.231149     6A    -11.224581
       7A    -11.216967     8A    -11.210216     9A     -8.968298
      10A     -8.965800    11A     -6.649376    12A     -6.648141
      13A     -6.647317    14A     -6.646854    15A     -6.645642
      16A     -6.644840    17A     -1.110730    18A     -1.076553
      19A     -1.013184    20A     -0.937142    21A     -0.931306
      22A     -0.861473    23A     -0.794342    24A     -0.752775
      25A     -0.644507    26A     -0.632608    27A     -0.607270
      28A     -0.598090    29A     -0.585980    30A     -0.558430
      31A     -0.546054    32A     -0.535343    33A     -0.514567
      34A     -0.504540    35A     -0.479803    36A     -0.473082
      37A     -0.459820    38A     -0.453285    39A     -0.426919
      40A     -0.353251    41A     -0.345587

  @DF-RHF Final Energy: -1030.52479745153482

   => Energetics <=

    Nuclear Repulsion Energy =            554.6920890116617784
    One-Electron Energy =               -2519.7275581261451407
    Two-Electron Energy =                 934.5106716629486527
    Total Energy =                      -1030.5247974515348233
  Basis Set: (AUG-CC-PVTZ AUX)
    Blend: AUG-CC-PVTZ-RI
    Molecular point group: c1

    Geometry (in Angstrom), charge = 0, multiplicity = 1:

       Center              X                  Y                   Z               Mass
    ------------   -----------------  -----------------  -----------------  -----------------
         S           -0.232456344721    -1.009000410983    -0.511389239152    31.972071174400
         S           -1.241139344721    -0.054776410983     1.007737760848    31.972071174400
         C            2.175707655279     0.321520589017     0.174620760848    12.000000000000
         C            1.091488655279     0.186063589017    -0.892139239152    12.000000000000
         C            2.971132655279    -0.969406410983     0.343074760848    12.000000000000
         C            3.096563655279     1.487420589017    -0.185888239152    12.000000000000
         C           -2.419741344721     0.992278589017     0.092242760848    12.000000000000
         C           -3.605842244721     0.284781789017    -0.543602639152    12.000000000000
         H            1.678153655279     0.557236589017     1.124240760848     1.007825032230
         H            0.629833655279     1.157690589017    -1.099599239152     1.007825032230
         H            1.530886655279    -0.174492410983    -1.832004239152     1.007825032230
         H            3.496662655279    -1.217617410983    -0.586483239152     1.007825032230
         H            3.720431655279    -0.859793410983     1.133036760848     1.007825032230
         H            2.320792655279    -1.808232410983     0.602995760848     1.007825032230
         H            3.596426655279     1.303270589017    -1.143515239152     1.007825032230
         H            3.870940655279     1.619237589017     0.576115760848     1.007825032230
         H            2.539625655279     2.426312589017    -0.268114239152     1.007825032230
         H           -2.856316344721     1.639906589017     0.861020760848     1.007825032230
         H           -1.861727344721     1.634866589017    -0.595633239152     1.007825032230
         H           -3.059448344721    -0.453548410983    -1.384023239152     1.007825032230
         H           -4.080794344721    -0.393506410983     0.063259760848     1.007825032230
         H           -4.180742344721     0.898382589017    -1.151332239152     1.007825032230

  Basis Set: AUG-CC-PVTZ
    Blend: AUG-CC-PVTZ
  Basis Set: (AUG-CC-PVTZ AUX)
    Blend: AUG-CC-PVTZ-JKFIT
	 Reference Energy          =   -1030.5247974515348233 [Eh]
	 Singles Energy            =      -0.0000000000000000 [Eh]
	 Same-Spin Energy          =      -0.3705626685727640 [Eh]
	 Opposite-Spin Energy      =      -1.2701345571102303 [Eh]
	 Correlation Energy        =      -1.6406972256829944 [Eh]
	 Total Energy              =   -1032.1654946772177937 [Eh]

	 ================> DF-SCS-MP2 Energies <==================
	-----------------------------------------------------------
	 SCS Same-Spin Scale       =       0.3333333333333333 [-]
	 SCS Opposite-Spin Scale   =       1.2000000000000000 [-]
	 SCS Same-Spin Energy      =      -0.1235208895242547 [Eh]
	 SCS Opposite-Spin Energy  =      -1.5241614685322762 [Eh]
	 SCS Correlation Energy    =      -1.6476823580565307 [Eh]
	 SCS Total Energy          =   -1032.1724798095913229 [Eh]
	-----------------------------------------------------------

  Dipole Moment: [D]
     X:     0.1504      Y:     1.7844      Z:    -0.8107     Total:     1.9657

*** Psi4 exiting successfully. Buy a developer a beer!
