                               Psi4 1.4a3.dev225

  ==> Input File <==

--------------------------------------------------------------------------
#psi4
#
memory 32 gb

molecule  {
0 1
  S       -0.2843280    -1.0417270    -0.4821980
  S       -1.2930110    -0.0875030     1.0369290
  C        2.1238360     0.2887940     0.2038120
  C        1.0396170     0.1533370    -0.8629480
  C        2.9192610    -1.0021330     0.3722660
  C        3.0446920     1.4546940    -0.1566970
  C       -2.4716130     0.9595520     0.1214340
  C       -3.5526440     0.1784480    -0.6085900
  H        1.6262820     0.5245100     1.1534320
  H        0.5779620     1.1249640    -1.0704080
  H        1.4790150    -0.2072190    -1.8028130
  H        3.4447910    -1.2503440    -0.5572920
  H        3.6361135    -0.9519594     1.1975593
  H        2.2689210    -1.8409590     0.6321870
  H        3.5445550     1.2705440    -1.1143240
  H        3.8190690     1.5865110     0.6053070
  H        2.4877540     2.3935860    -0.2389230
  H       -2.9081880     1.6071800     0.8902120
  H       -1.9135990     1.6021400    -0.5664420
  H       -3.1113200    -0.4862750    -1.3548320
  H       -4.1326660    -0.4262330     0.0924510
  H       -4.2326140     0.8656560    -1.1221410
units angstrom
no_reorient  #important for SAPT in psi4, default
symmetry c1  #important for SAPT in psi4, default
}

set PROPERTIES_ORIGIN ["COM"]
properties('MP2/aug-cc-pvtz', properties = ['dipole'])
--------------------------------------------------------------------------

    Molecular point group: c1
  Charge       = 0
  Multiplicity = 1
  Basis Set: AUG-CC-PVTZ
    Blend: AUG-CC-PVTZ
  Basis Set: (AUG-CC-PVTZ AUX)
    Blend: AUG-CC-PVTZ-JKFIT

    Orbital Energies [Eh]
    ---------------------

    Doubly Occupied:

       1A    -91.967466     2A    -91.966889     3A    -11.262071
       4A    -11.257826     5A    -11.231370     6A    -11.221259
       7A    -11.216662     8A    -11.209936     9A     -8.966305
      10A     -8.965658    11A     -6.647408    12A     -6.646714
      13A     -6.646138    14A     -6.645518    15A     -6.645320
      16A     -6.644718    17A     -1.110597    18A     -1.076433
      19A     -1.011518    20A     -0.935001    21A     -0.931412
      22A     -0.860920    23A     -0.793746    24A     -0.752062
      25A     -0.645039    26A     -0.630175    27A     -0.602774
      28A     -0.590652    29A     -0.585547    30A     -0.551662
      31A     -0.541717    32A     -0.536775    33A     -0.513078
      34A     -0.505465    35A     -0.492655    36A     -0.476546
      37A     -0.471760    38A     -0.452316    39A     -0.428567
      40A     -0.352843    41A     -0.344100

  @DF-RHF Final Energy: -1030.54757281461207

   => Energetics <=

    Nuclear Repulsion Energy =            555.6854570953223629
    One-Electron Energy =               -2521.7968245706042580
    Two-Electron Energy =                 935.5637946606698279
    Total Energy =                      -1030.5475728146120673
  Basis Set: (AUG-CC-PVTZ AUX)
    Blend: AUG-CC-PVTZ-RI
    Molecular point group: c1

    Geometry (in Angstrom), charge = 0, multiplicity = 1:

       Center              X                  Y                   Z               Mass
    ------------   -----------------  -----------------  -----------------  -----------------
         S           -0.240641004373    -1.002714721524    -0.504094947282    31.972071174400
         S           -1.249324004373    -0.048490721524     1.015032052718    31.972071174400
         C            2.167522995627     0.327806278476     0.181915052718    12.000000000000
         C            1.083303995627     0.192349278476    -0.884844947282    12.000000000000
         C            2.962947995627    -0.963120721524     0.350369052718    12.000000000000
         C            3.088378995627     1.493706278476    -0.178593947282    12.000000000000
         C           -2.427926004373     0.998564278476     0.099537052718    12.000000000000
         C           -3.508957004373     0.217460278476    -0.630486947282    12.000000000000
         H            1.669968995627     0.563522278476     1.131535052718     1.007825032230
         H            0.621648995627     1.163976278476    -1.092304947282     1.007825032230
         H            1.522701995627    -0.168206721524    -1.824709947282     1.007825032230
         H            3.488477995627    -1.211331721524    -0.579188947282     1.007825032230
         H            3.679800495627    -0.912947121524     1.175662352718     1.007825032230
         H            2.312607995627    -1.801946721524     0.610290052718     1.007825032230
         H            3.588241995627     1.309556278476    -1.136220947282     1.007825032230
         H            3.862755995627     1.625523278476     0.583410052718     1.007825032230
         H            2.531440995627     2.432598278476    -0.260819947282     1.007825032230
         H           -2.864501004373     1.646192278476     0.868315052718     1.007825032230
         H           -1.869912004373     1.641152278476    -0.588338947282     1.007825032230
         H           -3.067633004373    -0.447262721524    -1.376728947282     1.007825032230
         H           -4.088979004373    -0.387220721524     0.070554052718     1.007825032230
         H           -4.188927004373     0.904668278476    -1.144037947282     1.007825032230

  Basis Set: AUG-CC-PVTZ
    Blend: AUG-CC-PVTZ
  Basis Set: (AUG-CC-PVTZ AUX)
    Blend: AUG-CC-PVTZ-JKFIT
	 Reference Energy          =   -1030.5475728146120673 [Eh]
	 Singles Energy            =      -0.0000000000000000 [Eh]
	 Same-Spin Energy          =      -0.3701099983858775 [Eh]
	 Opposite-Spin Energy      =      -1.2688825973634825 [Eh]
	 Correlation Energy        =      -1.6389925957493601 [Eh]
	 Total Energy              =   -1032.1865654103614816 [Eh]

	 ================> DF-SCS-MP2 Energies <==================
	-----------------------------------------------------------
	 SCS Same-Spin Scale       =       0.3333333333333333 [-]
	 SCS Opposite-Spin Scale   =       1.2000000000000000 [-]
	 SCS Same-Spin Energy      =      -0.1233699994619592 [Eh]
	 SCS Opposite-Spin Energy  =      -1.5226591168361789 [Eh]
	 SCS Correlation Energy    =      -1.6460291162981382 [Eh]
	 SCS Total Energy          =   -1032.1936019309102903 [Eh]
	-----------------------------------------------------------

  Dipole Moment: [D]
     X:     0.1109      Y:     1.7467      Z:    -0.8444     Total:     1.9433

*** Psi4 exiting successfully. Buy a developer a beer!
