                               Psi4 1.4a3.dev225

  ==> Input File <==

--------------------------------------------------------------------------
#psi4
#
memory 32 gb

molecule  {
0 1
  S       -0.2843280    -1.0417270    -0.4821980
  S       -1.2930110    -0.0875030     1.0369290
  C        2.1238360     0.2887940     0.2038120
  C        1.0396170     0.1533370    -0.8629480
  C        2.9192610    -1.0021330     0.3722660
  C        3.0446920     1.4546940    -0.1566970
  C       -2.4716130     0.9595520     0.1214340
  C       -3.5526440     0.1784480    -0.6085900
  H        1.6262820     0.5245100     1.1534320
  H        0.5779620     1.1249640    -1.0704080
  H        1.4790150    -0.2072190    -1.8028130
  H        3.4447910    -1.2503440    -0.5572920
  H        3.6685600    -0.8925200     1.1622280
  H        2.2689210    -1.8409590     0.6321870
  H        3.5445550     1.2705440    -1.1143240
  H        3.8190690     1.5865110     0.6053070
  H        2.4877540     2.3935860    -0.2389230
  H       -2.9081880     1.6071800     0.8902120
  H       -1.9135990     1.6021400    -0.5664420
  H       -3.1113200    -0.4862750    -1.3548320
  H       -4.1326660    -0.4262330     0.0924510
  H       -4.1704988     0.8028796    -1.0752281
units angstrom
no_reorient  #important for SAPT in psi4, default
symmetry c1  #important for SAPT in psi4, default
}

set PROPERTIES_ORIGIN ["COM"]
properties('MP2/aug-cc-pvtz', properties = ['dipole'])
--------------------------------------------------------------------------

    Molecular point group: c1
  Charge       = 0
  Multiplicity = 1
  Basis Set: AUG-CC-PVTZ
    Blend: AUG-CC-PVTZ
  Basis Set: (AUG-CC-PVTZ AUX)
    Blend: AUG-CC-PVTZ-JKFIT

    Orbital Energies [Eh]
    ---------------------

    Doubly Occupied:

       1A    -91.966749     2A    -91.966490     3A    -11.261339
       4A    -11.257199     5A    -11.230625     6A    -11.216606
       7A    -11.209825     8A    -11.208722     9A     -8.965603
      10A     -8.965243    11A     -6.646732    12A     -6.646276
      13A     -6.645433    14A     -6.645117    15A     -6.644609
      16A     -6.644320    17A     -1.110400    18A     -1.077561
      19A     -1.013942    20A     -0.938995    21A     -0.930946
      22A     -0.864603    23A     -0.793916    24A     -0.751662
      25A     -0.643301    26A     -0.629158    27A     -0.610200
      28A     -0.600692    29A     -0.587243    30A     -0.551608
      31A     -0.540352    32A     -0.534578    33A     -0.513045
      34A     -0.507566    35A     -0.495352    36A     -0.475610
      37A     -0.472073    38A     -0.453252    39A     -0.428188
      40A     -0.352303    41A     -0.343631

  @DF-RHF Final Energy: -1030.54196239708062

   => Energetics <=

    Nuclear Repulsion Energy =            556.2271043802347776
    One-Electron Energy =               -2522.8560000056122590
    Two-Electron Energy =                 936.0869332282969708
    Total Energy =                      -1030.5419623970806242
  Basis Set: (AUG-CC-PVTZ AUX)
    Blend: AUG-CC-PVTZ-RI
    Molecular point group: c1

    Geometry (in Angstrom), charge = 0, multiplicity = 1:

       Center              X                  Y                   Z               Mass
    ------------   -----------------  -----------------  -----------------  -----------------
         S           -0.241276121354    -1.002692308799    -0.504172734281    31.972071174400
         S           -1.249959121354    -0.048468308799     1.014954265719    31.972071174400
         C            2.166887878646     0.327828691201     0.181837265719    12.000000000000
         C            1.082668878646     0.192371691201    -0.884922734281    12.000000000000
         C            2.962312878646    -0.963098308799     0.350291265719    12.000000000000
         C            3.087743878646     1.493728691201    -0.178671734281    12.000000000000
         C           -2.428561121354     0.998586691201     0.099459265719    12.000000000000
         C           -3.509592121354     0.217482691201    -0.630564734281    12.000000000000
         H            1.669333878646     0.563544691201     1.131457265719     1.007825032230
         H            0.621013878646     1.163998691201    -1.092382734281     1.007825032230
         H            1.522066878646    -0.168184308799    -1.824787734281     1.007825032230
         H            3.487842878646    -1.211309308799    -0.579266734281     1.007825032230
         H            3.711611878646    -0.853485308799     1.140253265719     1.007825032230
         H            2.311972878646    -1.801924308799     0.610212265719     1.007825032230
         H            3.587606878646     1.309578691201    -1.136298734281     1.007825032230
         H            3.862120878646     1.625545691201     0.583332265719     1.007825032230
         H            2.530805878646     2.432620691201    -0.260897734281     1.007825032230
         H           -2.865136121354     1.646214691201     0.868237265719     1.007825032230
         H           -1.870547121354     1.641174691201    -0.588416734281     1.007825032230
         H           -3.068268121354    -0.447240308799    -1.376806734281     1.007825032230
         H           -4.089614121354    -0.387198308799     0.070476265719     1.007825032230
         H           -4.127446921354     0.841914291201    -1.097202834281     1.007825032230

  Basis Set: AUG-CC-PVTZ
    Blend: AUG-CC-PVTZ
  Basis Set: (AUG-CC-PVTZ AUX)
    Blend: AUG-CC-PVTZ-JKFIT
	 Reference Energy          =   -1030.5419623970806242 [Eh]
	 Singles Energy            =      -0.0000000000000000 [Eh]
	 Same-Spin Energy          =      -0.3701564028841822 [Eh]
	 Opposite-Spin Energy      =      -1.2684763468643245 [Eh]
	 Correlation Energy        =      -1.6386327497485067 [Eh]
	 Total Energy              =   -1032.1805951468290914 [Eh]

	 ================> DF-SCS-MP2 Energies <==================
	-----------------------------------------------------------
	 SCS Same-Spin Scale       =       0.3333333333333333 [-]
	 SCS Opposite-Spin Scale   =       1.2000000000000000 [-]
	 SCS Same-Spin Energy      =      -0.1233854676280607 [Eh]
	 SCS Opposite-Spin Energy  =      -1.5221716162371894 [Eh]
	 SCS Correlation Energy    =      -1.6455570838652502 [Eh]
	 SCS Total Energy          =   -1032.1875194809458662 [Eh]
	-----------------------------------------------------------

  Dipole Moment: [D]
     X:     0.0547      Y:     1.7928      Z:    -0.8924     Total:     2.0034

*** Psi4 exiting successfully. Buy a developer a beer!
