                               Psi4 1.4a3.dev225

  ==> Input File <==

--------------------------------------------------------------------------
#psi4
#
memory 32 gb

molecule  {
0 1
  S       -0.2843280    -1.0417270    -0.4821980
  S       -1.2930110    -0.0875030     1.0369290
  C        2.1238360     0.2887940     0.2038120
  C        1.0396170     0.1533370    -0.8629480
  C        2.9192610    -1.0021330     0.3722660
  C        3.0326453     1.4394416    -0.1519808
  C       -2.4716130     0.9595520     0.1214340
  C       -3.5526440     0.1784480    -0.6085900
  H        1.6262820     0.5245100     1.1534320
  H        0.5779620     1.1249640    -1.0704080
  H        1.4790150    -0.2072190    -1.8028130
  H        3.4447910    -1.2503440    -0.5572920
  H        3.6685600    -0.8925200     1.1622280
  H        2.2689210    -1.8409590     0.6321870
  H        3.5445550     1.2705440    -1.1143240
  H        3.8190690     1.5865110     0.6053070
  H        2.4877540     2.3935860    -0.2389230
  H       -2.9081880     1.6071800     0.8902120
  H       -1.9135990     1.6021400    -0.5664420
  H       -3.1113200    -0.4862750    -1.3548320
  H       -4.1326660    -0.4262330     0.0924510
  H       -4.2326140     0.8656560    -1.1221410
units angstrom
no_reorient  #important for SAPT in psi4, default
symmetry c1  #important for SAPT in psi4, default
}

set PROPERTIES_ORIGIN ["COM"]
properties('MP2/aug-cc-pvtz', properties = ['dipole'])
--------------------------------------------------------------------------

    Molecular point group: c1
  Charge       = 0
  Multiplicity = 1
  Basis Set: AUG-CC-PVTZ
    Blend: AUG-CC-PVTZ
  Basis Set: (AUG-CC-PVTZ AUX)
    Blend: AUG-CC-PVTZ-JKFIT

    Orbital Energies [Eh]
    ---------------------

    Doubly Occupied:

       1A    -91.967542     2A    -91.967012     3A    -11.262125
       4A    -11.257643     5A    -11.230054     6A    -11.221303
       7A    -11.217846     8A    -11.210155     9A     -8.966383
      10A     -8.965782    11A     -6.647488    12A     -6.646836
      13A     -6.646215    14A     -6.645645    15A     -6.645396
      16A     -6.644846    17A     -1.112154    18A     -1.077373
      19A     -1.012362    20A     -0.935211    21A     -0.930827
      22A     -0.860749    23A     -0.793503    24A     -0.752328
      25A     -0.644020    26A     -0.630112    27A     -0.605563
      28A     -0.592258    29A     -0.586045    30A     -0.550629
      31A     -0.541059    32A     -0.533213    33A     -0.513647
      34A     -0.507887    35A     -0.492250    36A     -0.475748
      37A     -0.470545    38A     -0.454378    39A     -0.428892
      40A     -0.352947    41A     -0.344152

  @DF-RHF Final Energy: -1030.54747782658569

   => Energetics <=

    Nuclear Repulsion Energy =            556.0799883772174326
    One-Electron Energy =               -2522.5746862580335801
    Two-Electron Energy =                 935.9472200542303426
    Total Energy =                      -1030.5474778265856912
  Basis Set: (AUG-CC-PVTZ AUX)
    Blend: AUG-CC-PVTZ-RI
    Molecular point group: c1

    Geometry (in Angstrom), charge = 0, multiplicity = 1:

       Center              X                  Y                   Z               Mass
    ------------   -----------------  -----------------  -----------------  -----------------
         S           -0.239895537847    -1.001894186671    -0.504234808095    31.972071174400
         S           -1.248578537847    -0.047670186671     1.014892191905    31.972071174400
         C            2.168268462153     0.328626813329     0.181775191905    12.000000000000
         C            1.084049462153     0.193169813329    -0.884984808095    12.000000000000
         C            2.963693462153    -0.962300186671     0.350229191905    12.000000000000
         C            3.077077762153     1.479274413329    -0.174017608095    12.000000000000
         C           -2.427180537847     0.999384813329     0.099397191905    12.000000000000
         C           -3.508211537847     0.218280813329    -0.630626808095    12.000000000000
         H            1.670714462153     0.564342813329     1.131395191905     1.007825032230
         H            0.622394462153     1.164796813329    -1.092444808095     1.007825032230
         H            1.523447462153    -0.167386186671    -1.824849808095     1.007825032230
         H            3.489223462153    -1.210511186671    -0.579328808095     1.007825032230
         H            3.712992462153    -0.852687186671     1.140191191905     1.007825032230
         H            2.313353462153    -1.801126186671     0.610150191905     1.007825032230
         H            3.588987462153     1.310376813329    -1.136360808095     1.007825032230
         H            3.863501462153     1.626343813329     0.583270191905     1.007825032230
         H            2.532186462153     2.433418813329    -0.260959808095     1.007825032230
         H           -2.863755537847     1.647012813329     0.868175191905     1.007825032230
         H           -1.869166537847     1.641972813329    -0.588478808095     1.007825032230
         H           -3.066887537847    -0.446442186671    -1.376868808095     1.007825032230
         H           -4.088233537847    -0.386400186671     0.070414191905     1.007825032230
         H           -4.188181537847     0.905488813329    -1.144177808095     1.007825032230

  Basis Set: AUG-CC-PVTZ
    Blend: AUG-CC-PVTZ
  Basis Set: (AUG-CC-PVTZ AUX)
    Blend: AUG-CC-PVTZ-JKFIT
	 Reference Energy          =   -1030.5474778265856912 [Eh]
	 Singles Energy            =      -0.0000000000000000 [Eh]
	 Same-Spin Energy          =      -0.3702569776655925 [Eh]
	 Opposite-Spin Energy      =      -1.2690439533470483 [Eh]
	 Correlation Energy        =      -1.6393009310126407 [Eh]
	 Total Energy              =   -1032.1867787575984039 [Eh]

	 ================> DF-SCS-MP2 Energies <==================
	-----------------------------------------------------------
	 SCS Same-Spin Scale       =       0.3333333333333333 [-]
	 SCS Opposite-Spin Scale   =       1.2000000000000000 [-]
	 SCS Same-Spin Energy      =      -0.1234189925551975 [Eh]
	 SCS Opposite-Spin Energy  =      -1.5228527440164579 [Eh]
	 SCS Correlation Energy    =      -1.6462717365716553 [Eh]
	 SCS Total Energy          =   -1032.1937495631573256 [Eh]
	-----------------------------------------------------------

  Dipole Moment: [D]
     X:     0.1153      Y:     1.7675      Z:    -0.8609     Total:     1.9694

*** Psi4 exiting successfully. Buy a developer a beer!
