                               Psi4 1.4a3.dev225

  ==> Input File <==

--------------------------------------------------------------------------
#psi4
#
memory 32 gb

molecule  {
0 1
  S       -0.2843280    -1.0417270    -0.4821980
  S       -1.2930110    -0.0875030     1.0369290
  C        2.1238360     0.2887940     0.2038120
  C        1.0396170     0.1533370    -0.8629480
  C        2.9192610    -1.0021330     0.3722660
  C        3.0446920     1.4546940    -0.1566970
  C       -2.4716130     0.9595520     0.1214340
  C       -3.6237447     0.1270739    -0.6566045
  H        1.6262820     0.5245100     1.1534320
  H        0.5779620     1.1249640    -1.0704080
  H        1.4790150    -0.2072190    -1.8028130
  H        3.4447910    -1.2503440    -0.5572920
  H        3.6685600    -0.8925200     1.1622280
  H        2.2689210    -1.8409590     0.6321870
  H        3.5445550     1.2705440    -1.1143240
  H        3.8190690     1.5865110     0.6053070
  H        2.4877540     2.3935860    -0.2389230
  H       -2.9081880     1.6071800     0.8902120
  H       -1.9135990     1.6021400    -0.5664420
  H       -3.1113200    -0.4862750    -1.3548320
  H       -4.1326660    -0.4262330     0.0924510
  H       -4.2326140     0.8656560    -1.1221410
units angstrom
no_reorient  #important for SAPT in psi4, default
symmetry c1  #important for SAPT in psi4, default
}

set PROPERTIES_ORIGIN ["COM"]
properties('MP2/aug-cc-pvtz', properties = ['dipole'])
--------------------------------------------------------------------------

    Molecular point group: c1
  Charge       = 0
  Multiplicity = 1
  Basis Set: AUG-CC-PVTZ
    Blend: AUG-CC-PVTZ
  Basis Set: (AUG-CC-PVTZ AUX)
    Blend: AUG-CC-PVTZ-JKFIT

    Orbital Energies [Eh]
    ---------------------

    Doubly Occupied:

       1A    -91.967477     2A    -91.966739     3A    -11.264956
       4A    -11.257403     5A    -11.230817     6A    -11.219672
       7A    -11.216730     8A    -11.209968     9A     -8.966182
      10A     -8.965517    11A     -6.647301    12A     -6.646578
      13A     -6.646020    14A     -6.645386    15A     -6.645214
      16A     -6.644584    17A     -1.109617    18A     -1.068721
      19A     -1.006218    20A     -0.936156    21A     -0.931051
      22A     -0.864994    23A     -0.793470    24A     -0.751006
      25A     -0.642920    26A     -0.628108    27A     -0.605198
      28A     -0.594304    29A     -0.586394    30A     -0.552392
      31A     -0.536151    32A     -0.530493    33A     -0.518568
      34A     -0.505851    35A     -0.497976    36A     -0.476126
      37A     -0.471609    38A     -0.450998    39A     -0.428523
      40A     -0.351724    41A     -0.342233

  @DF-RHF Final Energy: -1030.54093209980738

   => Energetics <=

    Nuclear Repulsion Energy =            554.1433672243642832
    One-Electron Energy =               -2518.7259132885947110
    Two-Electron Energy =                 934.0416139644230498
    Total Energy =                      -1030.5409320998073781
  Basis Set: (AUG-CC-PVTZ AUX)
    Blend: AUG-CC-PVTZ-RI
    Molecular point group: c1

    Geometry (in Angstrom), charge = 0, multiplicity = 1:

       Center              X                  Y                   Z               Mass
    ------------   -----------------  -----------------  -----------------  -----------------
         S           -0.235172908322    -0.999005484687    -0.500017861560    31.972071174400
         S           -1.243855908322    -0.044781484687     1.019109138440    31.972071174400
         C            2.172991091678     0.331515515313     0.185992138440    12.000000000000
         C            1.088772091678     0.196058515313    -0.880767861560    12.000000000000
         C            2.968416091678    -0.959411484687     0.354446138440    12.000000000000
         C            3.093847091678     1.497415515313    -0.174516861560    12.000000000000
         C           -2.422457908322     1.002273515313     0.103614138440    12.000000000000
         C           -3.574589608322     0.169795415313    -0.674424361560    12.000000000000
         H            1.675437091678     0.567231515313     1.135612138440     1.007825032230
         H            0.627117091678     1.167685515313    -1.088227861560     1.007825032230
         H            1.528170091678    -0.164497484687    -1.820632861560     1.007825032230
         H            3.493946091678    -1.207622484687    -0.575111861560     1.007825032230
         H            3.717715091678    -0.849798484687     1.144408138440     1.007825032230
         H            2.318076091678    -1.798237484687     0.614367138440     1.007825032230
         H            3.593710091678     1.313265515313    -1.132143861560     1.007825032230
         H            3.868224091678     1.629232515313     0.587487138440     1.007825032230
         H            2.536909091678     2.436307515313    -0.256742861560     1.007825032230
         H           -2.859032908322     1.649901515313     0.872392138440     1.007825032230
         H           -1.864443908322     1.644861515313    -0.584261861560     1.007825032230
         H           -3.062164908322    -0.443553484687    -1.372651861560     1.007825032230
         H           -4.083510908322    -0.383511484687     0.074631138440     1.007825032230
         H           -4.183458908322     0.908377515313    -1.139960861560     1.007825032230

  Basis Set: AUG-CC-PVTZ
    Blend: AUG-CC-PVTZ
  Basis Set: (AUG-CC-PVTZ AUX)
    Blend: AUG-CC-PVTZ-JKFIT
	 Reference Energy          =   -1030.5409320998073781 [Eh]
	 Singles Energy            =      -0.0000000000000000 [Eh]
	 Same-Spin Energy          =      -0.3697689523137587 [Eh]
	 Opposite-Spin Energy      =      -1.2689278221038631 [Eh]
	 Correlation Energy        =      -1.6386967744176220 [Eh]
	 Total Energy              =   -1032.1796288742250454 [Eh]

	 ================> DF-SCS-MP2 Energies <==================
	-----------------------------------------------------------
	 SCS Same-Spin Scale       =       0.3333333333333333 [-]
	 SCS Opposite-Spin Scale   =       1.2000000000000000 [-]
	 SCS Same-Spin Energy      =      -0.1232563174379196 [Eh]
	 SCS Opposite-Spin Energy  =      -1.5227133865246356 [Eh]
	 SCS Correlation Energy    =      -1.6459697039625552 [Eh]
	 SCS Total Energy          =   -1032.1869018037698424 [Eh]
	-----------------------------------------------------------

  Dipole Moment: [D]
     X:     0.1251      Y:     1.7787      Z:    -0.8479     Total:     1.9744

*** Psi4 exiting successfully. Buy a developer a beer!
