                               Psi4 1.4a3.dev225

  ==> Input File <==

--------------------------------------------------------------------------
#psi4
#
memory 32 gb

molecule  {
0 1
  S       -0.2843280    -1.0417270    -0.4821980
  S       -1.2930110    -0.0875030     1.0369290
  C        2.1238360     0.2887940     0.2038120
  C        1.0396170     0.1533370    -0.8629480
  C        2.9192610    -1.0021330     0.3722660
  C        3.0446920     1.4546940    -0.1566970
  C       -2.4716130     0.9595520     0.1214340
  C       -3.4759408     0.1340850    -0.6669925
  H        1.6262820     0.5245100     1.1534320
  H        0.5779620     1.1249640    -1.0704080
  H        1.4790150    -0.2072190    -1.8028130
  H        3.4447910    -1.2503440    -0.5572920
  H        3.6685600    -0.8925200     1.1622280
  H        2.2689210    -1.8409590     0.6321870
  H        3.5445550     1.2705440    -1.1143240
  H        3.8190690     1.5865110     0.6053070
  H        2.4877540     2.3935860    -0.2389230
  H       -2.9081880     1.6071800     0.8902120
  H       -1.9135990     1.6021400    -0.5664420
  H       -3.1113200    -0.4862750    -1.3548320
  H       -4.1326660    -0.4262330     0.0924510
  H       -4.2326140     0.8656560    -1.1221410
units angstrom
no_reorient  #important for SAPT in psi4, default
symmetry c1  #important for SAPT in psi4, default
}

set PROPERTIES_ORIGIN ["COM"]
properties('MP2/aug-cc-pvtz', properties = ['dipole'])
--------------------------------------------------------------------------

    Molecular point group: c1
  Charge       = 0
  Multiplicity = 1
  Basis Set: AUG-CC-PVTZ
    Blend: AUG-CC-PVTZ
  Basis Set: (AUG-CC-PVTZ AUX)
    Blend: AUG-CC-PVTZ-JKFIT

    Orbital Energies [Eh]
    ---------------------

    Doubly Occupied:

       1A    -91.967233     2A    -91.966398     3A    -11.263709
       4A    -11.257680     5A    -11.230936     6A    -11.223814
       7A    -11.216861     8A    -11.210109     9A     -8.966038
      10A     -8.965362    11A     -6.647151    12A     -6.646405
      13A     -6.645872    14A     -6.645235    15A     -6.645076
      16A     -6.644401    17A     -1.110978    18A     -1.077691
      19A     -1.011639    20A     -0.935001    21A     -0.931141
      22A     -0.863449    23A     -0.794557    24A     -0.752400
      25A     -0.644602    26A     -0.633904    27A     -0.604400
      28A     -0.593554    29A     -0.578055    30A     -0.560041
      31A     -0.549591    32A     -0.535829    33A     -0.511150
      34A     -0.504870    35A     -0.487753    36A     -0.475727
      37A     -0.469724    38A     -0.449658    39A     -0.428911
      40A     -0.352982    41A     -0.343192

  @DF-RHF Final Energy: -1030.53460762913619

   => Energetics <=

    Nuclear Repulsion Energy =            556.4956685216985761
    One-Electron Energy =               -2523.3743909913137031
    Two-Electron Energy =                 936.3441148404791647
    Total Energy =                      -1030.5346076291361896
  Basis Set: (AUG-CC-PVTZ AUX)
    Blend: AUG-CC-PVTZ-RI
    Molecular point group: c1

    Geometry (in Angstrom), charge = 0, multiplicity = 1:

       Center              X                  Y                   Z               Mass
    ------------   -----------------  -----------------  -----------------  -----------------
         S           -0.246992989300    -0.999566171988    -0.499187118926    31.972071174400
         S           -1.255675989300    -0.045342171988     1.019939881074    31.972071174400
         C            2.161171010700     0.330954828012     0.186822881074    12.000000000000
         C            1.076952010700     0.195497828012    -0.879937118926    12.000000000000
         C            2.956596010700    -0.959972171988     0.355276881074    12.000000000000
         C            3.082027010700     1.496854828012    -0.173686118926    12.000000000000
         C           -2.434277989300     1.001712828012     0.104444881074    12.000000000000
         C           -3.438605789300     0.176245828012    -0.683981618926    12.000000000000
         H            1.663617010700     0.566670828012     1.136442881074     1.007825032230
         H            0.615297010700     1.167124828012    -1.087397118926     1.007825032230
         H            1.516350010700    -0.165058171988    -1.819802118926     1.007825032230
         H            3.482126010700    -1.208183171988    -0.574281118926     1.007825032230
         H            3.705895010700    -0.850359171988     1.145238881074     1.007825032230
         H            2.306256010700    -1.798798171988     0.615197881074     1.007825032230
         H            3.581890010700     1.312704828012    -1.131313118926     1.007825032230
         H            3.856404010700     1.628671828012     0.588317881074     1.007825032230
         H            2.525089010700     2.435746828012    -0.255912118926     1.007825032230
         H           -2.870852989300     1.649340828012     0.873222881074     1.007825032230
         H           -1.876263989300     1.644300828012    -0.583431118926     1.007825032230
         H           -3.073984989300    -0.444114171988    -1.371821118926     1.007825032230
         H           -4.095330989300    -0.384072171988     0.075461881074     1.007825032230
         H           -4.195278989300     0.907816828012    -1.139130118926     1.007825032230

  Basis Set: AUG-CC-PVTZ
    Blend: AUG-CC-PVTZ
  Basis Set: (AUG-CC-PVTZ AUX)
    Blend: AUG-CC-PVTZ-JKFIT
	 Reference Energy          =   -1030.5346076291361896 [Eh]
	 Singles Energy            =      -0.0000000000000000 [Eh]
	 Same-Spin Energy          =      -0.3702900209635719 [Eh]
	 Opposite-Spin Energy      =      -1.2694993139549773 [Eh]
	 Correlation Energy        =      -1.6397893349185493 [Eh]
	 Total Energy              =   -1032.1743969640547220 [Eh]

	 ================> DF-SCS-MP2 Energies <==================
	-----------------------------------------------------------
	 SCS Same-Spin Scale       =       0.3333333333333333 [-]
	 SCS Opposite-Spin Scale   =       1.2000000000000000 [-]
	 SCS Same-Spin Energy      =      -0.1234300069878573 [Eh]
	 SCS Opposite-Spin Energy  =      -1.5233991767459727 [Eh]
	 SCS Correlation Energy    =      -1.6468291837338300 [Eh]
	 SCS Total Energy          =   -1032.1814368128700607 [Eh]
	-----------------------------------------------------------

  Dipole Moment: [D]
     X:     0.1235      Y:     1.7764      Z:    -0.8685     Total:     1.9812

*** Psi4 exiting successfully. Buy a developer a beer!
