                               Psi4 1.4a3.dev225

  ==> Input File <==

--------------------------------------------------------------------------
#psi4
#
memory 32 gb

molecule  {
0 1
  S       -0.2843280    -1.0417270    -0.4821980
  S       -1.2930110    -0.0875030     1.0369290
  C        2.1238360     0.2887940     0.2038120
  C        1.0396170     0.1533370    -0.8629480
  C        2.9192610    -1.0021330     0.3722660
  C        3.0446920     1.4546940    -0.1566970
  C       -2.4716130     0.9595520     0.1214340
  C       -3.5526440     0.1784480    -0.6085900
  H        1.6262820     0.5245100     1.1534320
  H        0.5779620     1.1249640    -1.0704080
  H        1.4790150    -0.2072190    -1.8028130
  H        3.4447910    -1.2503440    -0.5572920
  H        3.6685600    -0.8925200     1.1622280
  H        2.2570183    -1.8563114     0.6369441
  H        3.5445550     1.2705440    -1.1143240
  H        3.8190690     1.5865110     0.6053070
  H        2.4877540     2.3935860    -0.2389230
  H       -2.9081880     1.6071800     0.8902120
  H       -1.9135990     1.6021400    -0.5664420
  H       -3.1113200    -0.4862750    -1.3548320
  H       -4.1326660    -0.4262330     0.0924510
  H       -4.2326140     0.8656560    -1.1221410
units angstrom
no_reorient  #important for SAPT in psi4, default
symmetry c1  #important for SAPT in psi4, default
}

set PROPERTIES_ORIGIN ["COM"]
properties('MP2/aug-cc-pvtz', properties = ['dipole'])
--------------------------------------------------------------------------

    Molecular point group: c1
  Charge       = 0
  Multiplicity = 1
  Basis Set: AUG-CC-PVTZ
    Blend: AUG-CC-PVTZ
  Basis Set: (AUG-CC-PVTZ AUX)
    Blend: AUG-CC-PVTZ-JKFIT

    Orbital Energies [Eh]
    ---------------------

    Doubly Occupied:

       1A    -91.967470     2A    -91.966910     3A    -11.262073
       4A    -11.257582     5A    -11.231125     6A    -11.221260
       7A    -11.217021     8A    -11.212421     9A     -8.966310
      10A     -8.965682    11A     -6.647413    12A     -6.646737
      13A     -6.646142    14A     -6.645543    15A     -6.645324
      16A     -6.644744    17A     -1.110597    18A     -1.076479
      19A     -1.011626    20A     -0.934925    21A     -0.929893
      22A     -0.860894    23A     -0.793374    24A     -0.751800
      25A     -0.643384    26A     -0.629646    27A     -0.604046
      28A     -0.591050    29A     -0.585690    30A     -0.551527
      31A     -0.541084    32A     -0.535033    33A     -0.513305
      34A     -0.506947    35A     -0.492649    36A     -0.475110
      37A     -0.471808    38A     -0.452503    39A     -0.428560
      40A     -0.352810    41A     -0.344049

  @DF-RHF Final Energy: -1030.54754668553596

   => Energetics <=

    Nuclear Repulsion Energy =            555.6505339308166640
    One-Electron Energy =               -2521.7310762848601371
    Two-Electron Energy =                 935.5329956685075103
    Total Energy =                      -1030.5475466855359628
  Basis Set: (AUG-CC-PVTZ AUX)
    Blend: AUG-CC-PVTZ-RI
    Molecular point group: c1

    Geometry (in Angstrom), charge = 0, multiplicity = 1:

       Center              X                  Y                   Z               Mass
    ------------   -----------------  -----------------  -----------------  -----------------
         S           -0.240778985356    -1.003010828746    -0.503889597827    31.972071174400
         S           -1.249461985356    -0.048786828746     1.015237402173    31.972071174400
         C            2.167385014644     0.327510171254     0.182120402173    12.000000000000
         C            1.083166014644     0.192053171254    -0.884639597827    12.000000000000
         C            2.962810014644    -0.963416828746     0.350574402173    12.000000000000
         C            3.088241014644     1.493410171254    -0.178388597827    12.000000000000
         C           -2.428063985356     0.998268171254     0.099742402173    12.000000000000
         C           -3.509094985356     0.217164171254    -0.630281597827    12.000000000000
         H            1.669831014644     0.563226171254     1.131740402173     1.007825032230
         H            0.621511014644     1.163680171254    -1.092099597827     1.007825032230
         H            1.522564014644    -0.168502828746    -1.824504597827     1.007825032230
         H            3.488340014644    -1.211627828746    -0.578983597827     1.007825032230
         H            3.712109014644    -0.853803828746     1.140536402173     1.007825032230
         H            2.300567314644    -1.817595228746     0.615252502173     1.007825032230
         H            3.588104014644     1.309260171254    -1.136015597827     1.007825032230
         H            3.862618014644     1.625227171254     0.583615402173     1.007825032230
         H            2.531303014644     2.432302171254    -0.260614597827     1.007825032230
         H           -2.864638985356     1.645896171254     0.868520402173     1.007825032230
         H           -1.870049985356     1.640856171254    -0.588133597827     1.007825032230
         H           -3.067770985356    -0.447558828746    -1.376523597827     1.007825032230
         H           -4.089116985356    -0.387516828746     0.070759402173     1.007825032230
         H           -4.189064985356     0.904372171254    -1.143832597827     1.007825032230

  Basis Set: AUG-CC-PVTZ
    Blend: AUG-CC-PVTZ
  Basis Set: (AUG-CC-PVTZ AUX)
    Blend: AUG-CC-PVTZ-JKFIT
	 Reference Energy          =   -1030.5475466855359628 [Eh]
	 Singles Energy            =      -0.0000000000000000 [Eh]
	 Same-Spin Energy          =      -0.3701274652697817 [Eh]
	 Opposite-Spin Energy      =      -1.2690516195419070 [Eh]
	 Correlation Energy        =      -1.6391790848116887 [Eh]
	 Total Energy              =   -1032.1867257703477208 [Eh]

	 ================> DF-SCS-MP2 Energies <==================
	-----------------------------------------------------------
	 SCS Same-Spin Scale       =       0.3333333333333333 [-]
	 SCS Opposite-Spin Scale   =       1.2000000000000000 [-]
	 SCS Same-Spin Energy      =      -0.1233758217565939 [Eh]
	 SCS Opposite-Spin Energy  =      -1.5228619434502884 [Eh]
	 SCS Correlation Energy    =      -1.6462377652068823 [Eh]
	 SCS Total Energy          =   -1032.1937844507428963 [Eh]
	-----------------------------------------------------------

  Dipole Moment: [D]
     X:     0.1202      Y:     1.7769      Z:    -0.8647     Total:     1.9798

*** Psi4 exiting successfully. Buy a developer a beer!
