                               Psi4 1.4a3.dev225

  ==> Input File <==

--------------------------------------------------------------------------
#psi4
#
memory 32 gb

molecule  {
0 1
  S       -0.2843280    -1.0417270    -0.4821980
  S       -1.2930110    -0.0875030     1.0369290
  C        2.1238360     0.2887940     0.2038120
  C        1.0396170     0.1533370    -0.8629480
  C        2.9192610    -1.0021330     0.3722660
  C        3.0446920     1.4546940    -0.1566970
  C       -2.4716130     0.9595520     0.1214340
  C       -3.5526440     0.1784480    -0.6085900
  H        1.6262820     0.5245100     1.1534320
  H        0.5779620     1.1249640    -1.0704080
  H        1.4790150    -0.2072190    -1.8028130
  H        3.4447910    -1.2503440    -0.5572920
  H        3.6685600    -0.8925200     1.1622280
  H        2.2689210    -1.8409590     0.6321870
  H        3.5445550     1.2705440    -1.1143240
  H        3.8190690     1.5865110     0.6053070
  H        2.4877540     2.3935860    -0.2389230
  H       -2.9081880     1.6071800     0.8902120
  H       -1.9135990     1.6021400    -0.5664420
  H       -3.1113200    -0.4862750    -1.3548320
  H       -4.1432844    -0.4373028     0.1052849
  H       -4.2326140     0.8656560    -1.1221410
units angstrom
no_reorient  #important for SAPT in psi4, default
symmetry c1  #important for SAPT in psi4, default
}

set PROPERTIES_ORIGIN ["COM"]
properties('MP2/aug-cc-pvtz', properties = ['dipole'])
--------------------------------------------------------------------------

    Molecular point group: c1
  Charge       = 0
  Multiplicity = 1
  Basis Set: AUG-CC-PVTZ
    Blend: AUG-CC-PVTZ
  Basis Set: (AUG-CC-PVTZ AUX)
    Blend: AUG-CC-PVTZ-JKFIT

    Orbital Energies [Eh]
    ---------------------

    Doubly Occupied:

       1A    -91.967539     2A    -91.967018     3A    -11.262302
       4A    -11.257593     5A    -11.230960     6A    -11.223705
       7A    -11.216855     8A    -11.210100     9A     -8.966379
      10A     -8.965787    11A     -6.647484    12A     -6.646841
      13A     -6.646211    14A     -6.645650    15A     -6.645391
      16A     -6.644851    17A     -1.110680    18A     -1.076364
      19A     -1.011393    20A     -0.934567    21A     -0.931115
      22A     -0.860283    23A     -0.793352    24A     -0.751788
      25A     -0.643488    26A     -0.629051    27A     -0.604974
      28A     -0.591790    29A     -0.585582    30A     -0.551176
      31A     -0.540976    32A     -0.534973    33A     -0.511791
      34A     -0.507596    35A     -0.492697    36A     -0.475471
      37A     -0.471724    38A     -0.452700    39A     -0.428728
      40A     -0.352949    41A     -0.344138

  @DF-RHF Final Energy: -1030.54759499844681

   => Energetics <=

    Nuclear Repulsion Energy =            555.6351670068105477
    One-Electron Energy =               -2521.6974985476626898
    Two-Electron Energy =                 935.5147365424052168
    Total Energy =                      -1030.5475949984468116
  Basis Set: (AUG-CC-PVTZ AUX)
    Blend: AUG-CC-PVTZ-RI
    Molecular point group: c1

    Geometry (in Angstrom), charge = 0, multiplicity = 1:

       Center              X                  Y                   Z               Mass
    ------------   -----------------  -----------------  -----------------  -----------------
         S           -0.240787611266    -1.003039592527    -0.503943845084    31.972071174400
         S           -1.249470611266    -0.048815592527     1.015183154916    31.972071174400
         C            2.167376388734     0.327481407473     0.182066154916    12.000000000000
         C            1.083157388734     0.192024407473    -0.884693845084    12.000000000000
         C            2.962801388734    -0.963445592527     0.350520154916    12.000000000000
         C            3.088232388734     1.493381407473    -0.178442845084    12.000000000000
         C           -2.428072611266     0.998239407473     0.099688154916    12.000000000000
         C           -3.509103611266     0.217135407473    -0.630335845084    12.000000000000
         H            1.669822388734     0.563197407473     1.131686154916     1.007825032230
         H            0.621502388734     1.163651407473    -1.092153845084     1.007825032230
         H            1.522555388734    -0.168531592527    -1.824558845084     1.007825032230
         H            3.488331388734    -1.211656592527    -0.579037845084     1.007825032230
         H            3.712100388734    -0.853832592527     1.140482154916     1.007825032230
         H            2.312461388734    -1.802271592527     0.610441154916     1.007825032230
         H            3.588095388734     1.309231407473    -1.136069845084     1.007825032230
         H            3.862609388734     1.625198407473     0.583561154916     1.007825032230
         H            2.531294388734     2.432273407473    -0.260668845084     1.007825032230
         H           -2.864647611266     1.645867407473     0.868466154916     1.007825032230
         H           -1.870058611266     1.640827407473    -0.588187845084     1.007825032230
         H           -3.067779611266    -0.447587592527    -1.376577845084     1.007825032230
         H           -4.099744011266    -0.398615392527     0.083539054916     1.007825032230
         H           -4.189073611266     0.904343407473    -1.143886845084     1.007825032230

  Basis Set: AUG-CC-PVTZ
    Blend: AUG-CC-PVTZ
  Basis Set: (AUG-CC-PVTZ AUX)
    Blend: AUG-CC-PVTZ-JKFIT
	 Reference Energy          =   -1030.5475949984468116 [Eh]
	 Singles Energy            =      -0.0000000000000000 [Eh]
	 Same-Spin Energy          =      -0.3700989063915409 [Eh]
	 Opposite-Spin Energy      =      -1.2690176693489941 [Eh]
	 Correlation Energy        =      -1.6391165757405348 [Eh]
	 Total Energy              =   -1032.1867115741872567 [Eh]

	 ================> DF-SCS-MP2 Energies <==================
	-----------------------------------------------------------
	 SCS Same-Spin Scale       =       0.3333333333333333 [-]
	 SCS Opposite-Spin Scale   =       1.2000000000000000 [-]
	 SCS Same-Spin Energy      =      -0.1233663021305136 [Eh]
	 SCS Opposite-Spin Energy  =      -1.5228212032187929 [Eh]
	 SCS Correlation Energy    =      -1.6461875053493065 [Eh]
	 SCS Total Energy          =   -1032.1937825037962284 [Eh]
	-----------------------------------------------------------

  Dipole Moment: [D]
     X:     0.1254      Y:     1.7722      Z:    -0.8655     Total:     1.9762

*** Psi4 exiting successfully. Buy a developer a beer!
