                               Psi4 1.4a3.dev225

  ==> Input File <==

--------------------------------------------------------------------------
#psi4
#
memory 32 gb

molecule  {
0 1
  S       -0.2843280    -1.0417270    -0.4821980
  S       -1.2930110    -0.0875030     1.0369290
  C        2.1238360     0.2887940     0.2038120
  C        1.0396170     0.1533370    -0.8629480
  C        2.9192610    -1.0021330     0.3722660
  C        3.0446920     1.4546940    -0.1566970
  C       -2.4716130     0.9595520     0.1214340
  C       -3.5526440     0.1784480    -0.6085900
  H        1.6262820     0.5245100     1.1534320
  H        0.5779620     1.1249640    -1.0704080
  H        1.4790150    -0.2072190    -1.8028130
  H        3.4447910    -1.2503440    -0.5572920
  H        3.6548655    -0.8945233     1.1477903
  H        2.2689210    -1.8409590     0.6321870
  H        3.5445550     1.2705440    -1.1143240
  H        3.8190690     1.5865110     0.6053070
  H        2.4877540     2.3935860    -0.2389230
  H       -2.9081880     1.6071800     0.8902120
  H       -1.9135990     1.6021400    -0.5664420
  H       -3.1113200    -0.4862750    -1.3548320
  H       -4.1326660    -0.4262330     0.0924510
  H       -4.2326140     0.8656560    -1.1221410
units angstrom
no_reorient  #important for SAPT in psi4, default
symmetry c1  #important for SAPT in psi4, default
}

set PROPERTIES_ORIGIN ["COM"]
properties('MP2/aug-cc-pvtz', properties = ['dipole'])
--------------------------------------------------------------------------

    Molecular point group: c1
  Charge       = 0
  Multiplicity = 1
  Basis Set: AUG-CC-PVTZ
    Blend: AUG-CC-PVTZ
  Basis Set: (AUG-CC-PVTZ AUX)
    Blend: AUG-CC-PVTZ-JKFIT

    Orbital Energies [Eh]
    ---------------------

    Doubly Occupied:

       1A    -91.967418     2A    -91.966861     3A    -11.262031
       4A    -11.257381     5A    -11.230745     6A    -11.221226
       7A    -11.216831     8A    -11.207579     9A     -8.966259
      10A     -8.965631    11A     -6.647362    12A     -6.646687
      13A     -6.646092    14A     -6.645492    15A     -6.645273
      16A     -6.644693    17A     -1.110650    18A     -1.076554
      19A     -1.011793    20A     -0.935464    21A     -0.932035
      22A     -0.860978    23A     -0.793805    24A     -0.751947
      25A     -0.644155    26A     -0.629802    27A     -0.605450
      28A     -0.591695    29A     -0.585627    30A     -0.551487
      31A     -0.541145    32A     -0.535771    33A     -0.513830
      34A     -0.508788    35A     -0.493165    36A     -0.475321
      37A     -0.471765    38A     -0.452588    39A     -0.428596
      40A     -0.352791    41A     -0.344003

  @DF-RHF Final Energy: -1030.54811341024538

   => Energetics <=

    Nuclear Repulsion Energy =            555.8191570008153803
    One-Electron Energy =               -2522.0610144050847339
    Two-Electron Energy =                 935.6937439940240893
    Total Energy =                      -1030.5481134102453780
  Basis Set: (AUG-CC-PVTZ AUX)
    Blend: AUG-CC-PVTZ-RI
    Molecular point group: c1

    Geometry (in Angstrom), charge = 0, multiplicity = 1:

       Center              X                  Y                   Z               Mass
    ------------   -----------------  -----------------  -----------------  -----------------
         S           -0.240766950857    -1.003100487034    -0.503760677308    31.972071174400
         S           -1.249449950857    -0.048876487034     1.015366322692    31.972071174400
         C            2.167397049143     0.327420512966     0.182249322692    12.000000000000
         C            1.083178049143     0.191963512966    -0.884510677308    12.000000000000
         C            2.962822049143    -0.963506487034     0.350703322692    12.000000000000
         C            3.088253049143     1.493320512966    -0.178259677308    12.000000000000
         C           -2.428051950857     0.998178512966     0.099871322692    12.000000000000
         C           -3.509082950857     0.217074512966    -0.630152677308    12.000000000000
         H            1.669843049143     0.563136512966     1.131869322692     1.007825032230
         H            0.621523049143     1.163590512966    -1.091970677308     1.007825032230
         H            1.522576049143    -0.168592487034    -1.824375677308     1.007825032230
         H            3.488352049143    -1.211717487034    -0.578854677308     1.007825032230
         H            3.698426549143    -0.855896787034     1.126227622692     1.007825032230
         H            2.312482049143    -1.802332487034     0.610624322692     1.007825032230
         H            3.588116049143     1.309170512966    -1.135886677308     1.007825032230
         H            3.862630049143     1.625137512966     0.583744322692     1.007825032230
         H            2.531315049143     2.432212512966    -0.260485677308     1.007825032230
         H           -2.864626950857     1.645806512966     0.868649322692     1.007825032230
         H           -1.870037950857     1.640766512966    -0.588004677308     1.007825032230
         H           -3.067758950857    -0.447648487034    -1.376394677308     1.007825032230
         H           -4.089104950857    -0.387606487034     0.070888322692     1.007825032230
         H           -4.189052950857     0.904282512966    -1.143703677308     1.007825032230

  Basis Set: AUG-CC-PVTZ
    Blend: AUG-CC-PVTZ
  Basis Set: (AUG-CC-PVTZ AUX)
    Blend: AUG-CC-PVTZ-JKFIT
	 Reference Energy          =   -1030.5481134102453780 [Eh]
	 Singles Energy            =      -0.0000000000000000 [Eh]
	 Same-Spin Energy          =      -0.3701071486455769 [Eh]
	 Opposite-Spin Energy      =      -1.2687783447015186 [Eh]
	 Correlation Energy        =      -1.6388854933470955 [Eh]
	 Total Energy              =   -1032.1869989035924391 [Eh]

	 ================> DF-SCS-MP2 Energies <==================
	-----------------------------------------------------------
	 SCS Same-Spin Scale       =       0.3333333333333333 [-]
	 SCS Opposite-Spin Scale   =       1.2000000000000000 [-]
	 SCS Same-Spin Energy      =      -0.1233690495485256 [Eh]
	 SCS Opposite-Spin Energy  =      -1.5225340136418224 [Eh]
	 SCS Correlation Energy    =      -1.6459030631903480 [Eh]
	 SCS Total Energy          =   -1032.1940164734357950 [Eh]
	-----------------------------------------------------------

  Dipole Moment: [D]
     X:     0.1300      Y:     1.7654      Z:    -0.8537     Total:     1.9653

*** Psi4 exiting successfully. Buy a developer a beer!
