                               Psi4 1.4a3.dev225

  ==> Input File <==

--------------------------------------------------------------------------
#psi4
#
memory 32 gb

molecule  {
0 1
  S       -0.2843280    -1.0417270    -0.4821980
  S       -1.2930110    -0.0875030     1.0369290
  C        2.1238360     0.2887940     0.2038120
  C        1.0396170     0.1533370    -0.8629480
  C        2.9192610    -1.0021330     0.3722660
  C        3.0446920     1.4546940    -0.1566970
  C       -2.4716130     0.9595520     0.1214340
  C       -3.5526440     0.1784480    -0.6085900
  H        1.6262820     0.5245100     1.1534320
  H        0.5779620     1.1249640    -1.0704080
  H        1.4790150    -0.2072190    -1.8028130
  H        3.4447910    -1.2503440    -0.5572920
  H        3.6685600    -0.8925200     1.1622280
  H        2.2689210    -1.8409590     0.6321870
  H        3.5354319     1.2739050    -1.0968462
  H        3.8190690     1.5865110     0.6053070
  H        2.4877540     2.3935860    -0.2389230
  H       -2.9081880     1.6071800     0.8902120
  H       -1.9135990     1.6021400    -0.5664420
  H       -3.1113200    -0.4862750    -1.3548320
  H       -4.1326660    -0.4262330     0.0924510
  H       -4.2326140     0.8656560    -1.1221410
units angstrom
no_reorient  #important for SAPT in psi4, default
symmetry c1  #important for SAPT in psi4, default
}

set PROPERTIES_ORIGIN ["COM"]
properties('MP2/aug-cc-pvtz', properties = ['dipole'])
--------------------------------------------------------------------------

    Molecular point group: c1
  Charge       = 0
  Multiplicity = 1
  Basis Set: AUG-CC-PVTZ
    Blend: AUG-CC-PVTZ
  Basis Set: (AUG-CC-PVTZ AUX)
    Blend: AUG-CC-PVTZ-JKFIT

    Orbital Energies [Eh]
    ---------------------

    Doubly Occupied:

       1A    -91.967460     2A    -91.966935     3A    -11.262064
       4A    -11.257516     5A    -11.230680     6A    -11.221255
       7A    -11.214303     8A    -11.210044     9A     -8.966301
      10A     -8.965705    11A     -6.647406    12A     -6.646759
      13A     -6.646133    14A     -6.645568    15A     -6.645313
      16A     -6.644768    17A     -1.110725    18A     -1.076599
      19A     -1.011861    20A     -0.935151    21A     -0.932155
      22A     -0.861115    23A     -0.793997    24A     -0.752069
      25A     -0.643778    26A     -0.629827    27A     -0.605070
      28A     -0.591588    29A     -0.585573    30A     -0.552963
      31A     -0.541525    32A     -0.535829    33A     -0.513682
      34A     -0.508014    35A     -0.492663    36A     -0.475288
      37A     -0.472101    38A     -0.452574    39A     -0.428650
      40A     -0.352853    41A     -0.344049

  @DF-RHF Final Energy: -1030.54809751296648

   => Energetics <=

    Nuclear Repulsion Energy =            555.8113971817914489
    One-Electron Energy =               -2522.0431677537608266
    Two-Electron Energy =                 935.6836730590027855
    Total Energy =                      -1030.5480975129664785
  Basis Set: (AUG-CC-PVTZ AUX)
    Blend: AUG-CC-PVTZ-RI
    Molecular point group: c1

    Geometry (in Angstrom), charge = 0, multiplicity = 1:

       Center              X                  Y                   Z               Mass
    ------------   -----------------  -----------------  -----------------  -----------------
         S           -0.240797654343    -1.003136515976    -0.503975035510    31.972071174400
         S           -1.249480654343    -0.048912515976     1.015151964490    31.972071174400
         C            2.167366345657     0.327384484024     0.182034964490    12.000000000000
         C            1.083147345657     0.191927484024    -0.884725035510    12.000000000000
         C            2.962791345657    -0.963542515976     0.350488964490    12.000000000000
         C            3.088222345657     1.493284484024    -0.178474035510    12.000000000000
         C           -2.428082654343     0.998142484024     0.099656964490    12.000000000000
         C           -3.509113654343     0.217038484024    -0.630367035510    12.000000000000
         H            1.669812345657     0.563100484024     1.131654964490     1.007825032230
         H            0.621492345657     1.163554484024    -1.092185035510     1.007825032230
         H            1.522545345657    -0.168628515976    -1.824590035510     1.007825032230
         H            3.488321345657    -1.211753515976    -0.579069035510     1.007825032230
         H            3.712090345657    -0.853929515976     1.140450964490     1.007825032230
         H            2.312451345657    -1.802368515976     0.610409964490     1.007825032230
         H            3.578962245657     1.312495484024    -1.118623235510     1.007825032230
         H            3.862599345657     1.625101484024     0.583529964490     1.007825032230
         H            2.531284345657     2.432176484024    -0.260700035510     1.007825032230
         H           -2.864657654343     1.645770484024     0.868434964490     1.007825032230
         H           -1.870068654343     1.640730484024    -0.588219035510     1.007825032230
         H           -3.067789654343    -0.447684515976    -1.376609035510     1.007825032230
         H           -4.089135654343    -0.387642515976     0.070673964490     1.007825032230
         H           -4.189083654343     0.904246484024    -1.143918035510     1.007825032230

  Basis Set: AUG-CC-PVTZ
    Blend: AUG-CC-PVTZ
  Basis Set: (AUG-CC-PVTZ AUX)
    Blend: AUG-CC-PVTZ-JKFIT
	 Reference Energy          =   -1030.5480975129664785 [Eh]
	 Singles Energy            =      -0.0000000000000000 [Eh]
	 Same-Spin Energy          =      -0.3701055626189819 [Eh]
	 Opposite-Spin Energy      =      -1.2687847521958326 [Eh]
	 Correlation Energy        =      -1.6388903148148146 [Eh]
	 Total Energy              =   -1032.1869878277811949 [Eh]

	 ================> DF-SCS-MP2 Energies <==================
	-----------------------------------------------------------
	 SCS Same-Spin Scale       =       0.3333333333333333 [-]
	 SCS Opposite-Spin Scale   =       1.2000000000000000 [-]
	 SCS Same-Spin Energy      =      -0.1233685208729940 [Eh]
	 SCS Opposite-Spin Energy  =      -1.5225417026349992 [Eh]
	 SCS Correlation Energy    =      -1.6459102235079932 [Eh]
	 SCS Total Energy          =   -1032.1940077364745321 [Eh]
	-----------------------------------------------------------

  Dipole Moment: [D]
     X:     0.1247      Y:     1.7682      Z:    -0.8721     Total:     1.9755

*** Psi4 exiting successfully. Buy a developer a beer!
