                               Psi4 1.4a3.dev225

  ==> Input File <==

--------------------------------------------------------------------------
#psi4
#
memory 32 gb

molecule  {
0 1
  S       -0.2843280    -1.0417270    -0.4821980
  S       -1.2930110    -0.0875030     1.0369290
  C        2.1238360     0.2887940     0.2038120
  C        1.0396170     0.1533370    -0.8629480
  C        2.9192610    -1.0021330     0.3722660
  C        3.0446920     1.4546940    -0.1566970
  C       -2.4716130     0.9595520     0.1214340
  C       -3.5526440     0.1784480    -0.6085900
  H        1.6262820     0.5245100     1.1534320
  H        0.5779620     1.1249640    -1.0704080
  H        1.4790150    -0.2072190    -1.8028130
  H        3.4447910    -1.2503440    -0.5572920
  H        3.6685600    -0.8925200     1.1622280
  H        2.2808237    -1.8256066     0.6274299
  H        3.5445550     1.2705440    -1.1143240
  H        3.8190690     1.5865110     0.6053070
  H        2.4877540     2.3935860    -0.2389230
  H       -2.9081880     1.6071800     0.8902120
  H       -1.9135990     1.6021400    -0.5664420
  H       -3.1113200    -0.4862750    -1.3548320
  H       -4.1326660    -0.4262330     0.0924510
  H       -4.2326140     0.8656560    -1.1221410
units angstrom
no_reorient  #important for SAPT in psi4, default
symmetry c1  #important for SAPT in psi4, default
}

set PROPERTIES_ORIGIN ["COM"]
properties('MP2/aug-cc-pvtz', properties = ['dipole'])
--------------------------------------------------------------------------

    Molecular point group: c1
  Charge       = 0
  Multiplicity = 1
  Basis Set: AUG-CC-PVTZ
    Blend: AUG-CC-PVTZ
  Basis Set: (AUG-CC-PVTZ AUX)
    Blend: AUG-CC-PVTZ-JKFIT

    Orbital Energies [Eh]
    ---------------------

    Doubly Occupied:

       1A    -91.967528     2A    -91.967029     3A    -11.262122
       4A    -11.257531     5A    -11.230746     6A    -11.221301
       7A    -11.216647     8A    -11.207706     9A     -8.966370
      10A     -8.965797    11A     -6.647477    12A     -6.646849
      13A     -6.646202    14A     -6.645661    15A     -6.645382
      16A     -6.644861    17A     -1.110745    18A     -1.076607
      19A     -1.011786    20A     -0.935405    21A     -0.932264
      22A     -0.860998    23A     -0.793796    24A     -0.752033
      25A     -0.643755    26A     -0.629970    27A     -0.606032
      28A     -0.592176    29A     -0.585667    30A     -0.551366
      31A     -0.541283    32A     -0.534868    33A     -0.514115
      34A     -0.509057    35A     -0.492716    36A     -0.475706
      37A     -0.471607    38A     -0.452767    39A     -0.428820
      40A     -0.352966    41A     -0.344139

  @DF-RHF Final Energy: -1030.54814549565890

   => Energetics <=

    Nuclear Repulsion Energy =            555.7965240718152700
    One-Electron Energy =               -2522.0096364646510665
    Two-Electron Energy =                 935.6649668971767824
    Total Energy =                      -1030.5481454956589005
  Basis Set: (AUG-CC-PVTZ AUX)
    Blend: AUG-CC-PVTZ-RI
    Molecular point group: c1

    Geometry (in Angstrom), charge = 0, multiplicity = 1:

       Center              X                  Y                   Z               Mass
    ------------   -----------------  -----------------  -----------------  -----------------
         S           -0.240938872644    -1.003217055367    -0.503825696375    31.972071174400
         S           -1.249621872644    -0.048993055367     1.015301303625    31.972071174400
         C            2.167225127356     0.327303944633     0.182184303625    12.000000000000
         C            1.083006127356     0.191846944633    -0.884575696375    12.000000000000
         C            2.962650127356    -0.963623055367     0.350638303625    12.000000000000
         C            3.088081127356     1.493203944633    -0.178324696375    12.000000000000
         C           -2.428223872644     0.998061944633     0.099806303625    12.000000000000
         C           -3.509254872644     0.216957944633    -0.630217696375    12.000000000000
         H            1.669671127356     0.563019944633     1.131804303625     1.007825032230
         H            0.621351127356     1.163473944633    -1.092035696375     1.007825032230
         H            1.522404127356    -0.168709055367    -1.824440696375     1.007825032230
         H            3.488180127356    -1.211834055367    -0.578919696375     1.007825032230
         H            3.711949127356    -0.854010055367     1.140600303625     1.007825032230
         H            2.324212827356    -1.787096655367     0.605802203625     1.007825032230
         H            3.587944127356     1.309053944633    -1.135951696375     1.007825032230
         H            3.862458127356     1.625020944633     0.583679303625     1.007825032230
         H            2.531143127356     2.432095944633    -0.260550696375     1.007825032230
         H           -2.864798872644     1.645689944633     0.868584303625     1.007825032230
         H           -1.870209872644     1.640649944633    -0.588069696375     1.007825032230
         H           -3.067930872644    -0.447765055367    -1.376459696375     1.007825032230
         H           -4.089276872644    -0.387723055367     0.070823303625     1.007825032230
         H           -4.189224872644     0.904165944633    -1.143768696375     1.007825032230

  Basis Set: AUG-CC-PVTZ
    Blend: AUG-CC-PVTZ
  Basis Set: (AUG-CC-PVTZ AUX)
    Blend: AUG-CC-PVTZ-JKFIT
	 Reference Energy          =   -1030.5481454956589005 [Eh]
	 Singles Energy            =      -0.0000000000000000 [Eh]
	 Same-Spin Energy          =      -0.3700790830364851 [Eh]
	 Opposite-Spin Energy      =      -1.2687501333539486 [Eh]
	 Correlation Energy        =      -1.6388292163904337 [Eh]
	 Total Energy              =   -1032.1869747120492775 [Eh]

	 ================> DF-SCS-MP2 Energies <==================
	-----------------------------------------------------------
	 SCS Same-Spin Scale       =       0.3333333333333333 [-]
	 SCS Opposite-Spin Scale   =       1.2000000000000000 [-]
	 SCS Same-Spin Energy      =      -0.1233596943454950 [Eh]
	 SCS Opposite-Spin Energy  =      -1.5225001600247383 [Eh]
	 SCS Correlation Energy    =      -1.6458598543702334 [Eh]
	 SCS Total Energy          =   -1032.1940053500291015 [Eh]
	-----------------------------------------------------------

  Dipole Moment: [D]
     X:     0.1137      Y:     1.7583      Z:    -0.8593     Total:     1.9604

*** Psi4 exiting successfully. Buy a developer a beer!
