                               Psi4 1.4a3.dev225

  ==> Input File <==

--------------------------------------------------------------------------
#psi4
#
memory 32 gb

molecule  {
0 1
  S       -0.2843280    -1.0417270    -0.4821980
  S       -1.2930110    -0.0875030     1.0369290
  C        2.1238360     0.2887940     0.2038120
  C        1.0396170     0.1533370    -0.8629480
  C        2.9192610    -1.0021330     0.3722660
  C        3.0446920     1.4546940    -0.1566970
  C       -2.4716130     0.9595520     0.1214340
  C       -3.5526440     0.1784480    -0.6085900
  H        1.6262820     0.5245100     1.1534320
  H        0.5779620     1.1249640    -1.0704080
  H        1.5190195    -0.2400455    -1.8883820
  H        3.4447910    -1.2503440    -0.5572920
  H        3.6685600    -0.8925200     1.1622280
  H        2.2689210    -1.8409590     0.6321870
  H        3.5445550     1.2705440    -1.1143240
  H        3.8190690     1.5865110     0.6053070
  H        2.4877540     2.3935860    -0.2389230
  H       -2.9081880     1.6071800     0.8902120
  H       -1.9135990     1.6021400    -0.5664420
  H       -3.1113200    -0.4862750    -1.3548320
  H       -4.1326660    -0.4262330     0.0924510
  H       -4.2326140     0.8656560    -1.1221410
units angstrom
no_reorient  #important for SAPT in psi4, default
symmetry c1  #important for SAPT in psi4, default
}

set PROPERTIES_ORIGIN ["COM"]
properties('MP2/aug-cc-pvtz', properties = ['dipole'])
--------------------------------------------------------------------------

    Molecular point group: c1
  Charge       = 0
  Multiplicity = 1
  Basis Set: AUG-CC-PVTZ
    Blend: AUG-CC-PVTZ
  Basis Set: (AUG-CC-PVTZ AUX)
    Blend: AUG-CC-PVTZ-JKFIT

    Orbital Energies [Eh]
    ---------------------

    Doubly Occupied:

       1A    -91.967970     2A    -91.967860     3A    -11.268791
       4A    -11.262431     5A    -11.231973     6A    -11.221523
       7A    -11.216873     8A    -11.210078     9A     -8.966836
      10A     -8.966525    11A     -6.647960    12A     -6.647537
      13A     -6.646654    14A     -6.646388    15A     -6.645835
      16A     -6.645582    17A     -1.109290    18A     -1.076686
      19A     -1.011291    20A     -0.931849    21A     -0.931105
      22A     -0.859736    23A     -0.793289    24A     -0.747310
      25A     -0.642115    26A     -0.629968    27A     -0.603705
      28A     -0.591562    29A     -0.583226    30A     -0.544844
      31A     -0.540919    32A     -0.534127    33A     -0.512631
      34A     -0.508488    35A     -0.492740    36A     -0.475757
      37A     -0.470569    38A     -0.452825    39A     -0.427607
      40A     -0.353317    41A     -0.344624

  @DF-RHF Final Energy: -1030.54150999931949

   => Energetics <=

    Nuclear Repulsion Energy =            555.1951845028272601
    One-Electron Energy =               -2520.8125979538708634
    Two-Electron Energy =                 935.0759034517240025
    Total Energy =                      -1030.5415099993197146
  Basis Set: (AUG-CC-PVTZ AUX)
    Blend: AUG-CC-PVTZ-RI
    Molecular point group: c1

    Geometry (in Angstrom), charge = 0, multiplicity = 1:

       Center              X                  Y                   Z               Mass
    ------------   -----------------  -----------------  -----------------  -----------------
         S           -0.241127616399    -1.002893465187    -0.503282928954    31.972071174400
         S           -1.249810616399    -0.048669465187     1.015844071046    31.972071174400
         C            2.167036383601     0.327627534813     0.182727071046    12.000000000000
         C            1.082817383601     0.192170534813    -0.884032928954    12.000000000000
         C            2.962461383601    -0.963299465187     0.351181071046    12.000000000000
         C            3.087892383601     1.493527534813    -0.177781928954    12.000000000000
         C           -2.428412616399     0.998385534813     0.100349071046    12.000000000000
         C           -3.509443616399     0.217281534813    -0.629674928954    12.000000000000
         H            1.669482383601     0.563343534813     1.132347071046     1.007825032230
         H            0.621162383601     1.163797534813    -1.091492928954     1.007825032230
         H            1.562219883601    -0.201211965187    -1.909466928954     1.007825032230
         H            3.487991383601    -1.211510465187    -0.578376928954     1.007825032230
         H            3.711760383601    -0.853686465187     1.141143071046     1.007825032230
         H            2.312121383601    -1.802125465187     0.611102071046     1.007825032230
         H            3.587755383601     1.309377534813    -1.135408928954     1.007825032230
         H            3.862269383601     1.625344534813     0.584222071046     1.007825032230
         H            2.530954383601     2.432419534813    -0.260007928954     1.007825032230
         H           -2.864987616399     1.646013534813     0.869127071046     1.007825032230
         H           -1.870398616399     1.640973534813    -0.587526928954     1.007825032230
         H           -3.068119616399    -0.447441465187    -1.375916928954     1.007825032230
         H           -4.089465616399    -0.387399465187     0.071366071046     1.007825032230
         H           -4.189413616399     0.904489534813    -1.143225928954     1.007825032230

  Basis Set: AUG-CC-PVTZ
    Blend: AUG-CC-PVTZ
  Basis Set: (AUG-CC-PVTZ AUX)
    Blend: AUG-CC-PVTZ-JKFIT
	 Reference Energy          =   -1030.5415099993194872 [Eh]
	 Singles Energy            =      -0.0000000000000000 [Eh]
	 Same-Spin Energy          =      -0.3703083582839478 [Eh]
	 Opposite-Spin Energy      =      -1.2697719261443867 [Eh]
	 Correlation Energy        =      -1.6400802844283344 [Eh]
	 Total Energy              =   -1032.1815902837477097 [Eh]

	 ================> DF-SCS-MP2 Energies <==================
	-----------------------------------------------------------
	 SCS Same-Spin Scale       =       0.3333333333333333 [-]
	 SCS Opposite-Spin Scale   =       1.2000000000000000 [-]
	 SCS Same-Spin Energy      =      -0.1234361194279826 [Eh]
	 SCS Opposite-Spin Energy  =      -1.5237263113732640 [Eh]
	 SCS Correlation Energy    =      -1.6471624308012465 [Eh]
	 SCS Total Energy          =   -1032.1886724301207323 [Eh]
	-----------------------------------------------------------

  Dipole Moment: [D]
     X:     0.0919      Y:     1.7733      Z:    -0.8149     Total:     1.9538

*** Psi4 exiting successfully. Buy a developer a beer!
