                               Psi4 1.4a3.dev225

  ==> Input File <==

--------------------------------------------------------------------------
#psi4
#
memory 32 gb

molecule  {
0 1
  S       -0.2843280    -1.0417270    -0.4821980
  S       -1.2930110    -0.0875030     1.0369290
  C        2.1238360     0.2887940     0.2038120
  C        1.0396170     0.1533370    -0.8629480
  C        2.9192610    -1.0021330     0.3722660
  C        3.0446920     1.4546940    -0.1566970
  C       -2.4716130     0.9595520     0.1214340
  C       -3.6240805     0.2266165    -0.5466309
  H        1.6262820     0.5245100     1.1534320
  H        0.5779620     1.1249640    -1.0704080
  H        1.4790150    -0.2072190    -1.8028130
  H        3.4447910    -1.2503440    -0.5572920
  H        3.6685600    -0.8925200     1.1622280
  H        2.2689210    -1.8409590     0.6321870
  H        3.5445550     1.2705440    -1.1143240
  H        3.8190690     1.5865110     0.6053070
  H        2.4877540     2.3935860    -0.2389230
  H       -2.9081880     1.6071800     0.8902120
  H       -1.9135990     1.6021400    -0.5664420
  H       -3.1113200    -0.4862750    -1.3548320
  H       -4.1326660    -0.4262330     0.0924510
  H       -4.2326140     0.8656560    -1.1221410
units angstrom
no_reorient  #important for SAPT in psi4, default
symmetry c1  #important for SAPT in psi4, default
}

set PROPERTIES_ORIGIN ["COM"]
properties('MP2/aug-cc-pvtz', properties = ['dipole'])
--------------------------------------------------------------------------

    Molecular point group: c1
  Charge       = 0
  Multiplicity = 1
  Basis Set: AUG-CC-PVTZ
    Blend: AUG-CC-PVTZ
  Basis Set: (AUG-CC-PVTZ AUX)
    Blend: AUG-CC-PVTZ-JKFIT

    Orbital Energies [Eh]
    ---------------------

    Doubly Occupied:

       1A    -91.968895     2A    -91.966958     3A    -11.262247
       4A    -11.257597     5A    -11.231051     6A    -11.222513
       7A    -11.216900     8A    -11.210148     9A     -8.967583
      10A     -8.965728    11A     -6.648666    12A     -6.647434
      13A     -6.646780    14A     -6.646604    15A     -6.645575
      16A     -6.644773    17A     -1.110646    18A     -1.076327
      19A     -1.012526    20A     -0.936288    21A     -0.931221
      22A     -0.860939    23A     -0.793878    24A     -0.752335
      25A     -0.643786    26A     -0.629790    27A     -0.606506
      28A     -0.596186    29A     -0.586743    30A     -0.555168
      31A     -0.543624    32A     -0.535048    33A     -0.514349
      34A     -0.504095    35A     -0.482449    36A     -0.472787
      37A     -0.469966    38A     -0.454007    39A     -0.428020
      40A     -0.353072    41A     -0.345083

  @DF-RHF Final Energy: -1030.53704679767361

   => Energetics <=

    Nuclear Repulsion Energy =            555.0230230937154374
    One-Electron Energy =               -2520.4315632767361421
    Two-Electron Energy =                 934.8714933853470939
    Total Energy =                      -1030.5370467976736109
  Basis Set: (AUG-CC-PVTZ AUX)
    Blend: AUG-CC-PVTZ-RI
    Molecular point group: c1

    Geometry (in Angstrom), charge = 0, multiplicity = 1:

       Center              X                  Y                   Z               Mass
    ------------   -----------------  -----------------  -----------------  -----------------
         S           -0.235146053935    -1.006966043189    -0.508812601465    31.972071174400
         S           -1.243829053935    -0.052742043189     1.010314398535    31.972071174400
         C            2.173017946065     0.323554956811     0.177197398535    12.000000000000
         C            1.088798946065     0.188097956811    -0.889562601465    12.000000000000
         C            2.968442946065    -0.967372043189     0.345651398535    12.000000000000
         C            3.093873946065     1.489454956811    -0.183311601465    12.000000000000
         C           -2.422431053935     0.994312956811     0.094819398535    12.000000000000
         C           -3.574898553935     0.261377456811    -0.573245501465    12.000000000000
         H            1.675463946065     0.559270956811     1.126817398535     1.007825032230
         H            0.627143946065     1.159724956811    -1.097022601465     1.007825032230
         H            1.528196946065    -0.172458043189    -1.829427601465     1.007825032230
         H            3.493972946065    -1.215583043189    -0.583906601465     1.007825032230
         H            3.717741946065    -0.857759043189     1.135613398535     1.007825032230
         H            2.318102946065    -1.806198043189     0.605572398535     1.007825032230
         H            3.593736946065     1.305304956811    -1.140938601465     1.007825032230
         H            3.868250946065     1.621271956811     0.578692398535     1.007825032230
         H            2.536935946065     2.428346956811    -0.265537601465     1.007825032230
         H           -2.859006053935     1.641940956811     0.863597398535     1.007825032230
         H           -1.864417053935     1.636900956811    -0.593056601465     1.007825032230
         H           -3.062138053935    -0.451514043189    -1.381446601465     1.007825032230
         H           -4.083484053935    -0.391472043189     0.065836398535     1.007825032230
         H           -4.183432053935     0.900416956811    -1.148755601465     1.007825032230

  Basis Set: AUG-CC-PVTZ
    Blend: AUG-CC-PVTZ
  Basis Set: (AUG-CC-PVTZ AUX)
    Blend: AUG-CC-PVTZ-JKFIT
	 Reference Energy          =   -1030.5370467976736109 [Eh]
	 Singles Energy            =      -0.0000000000000000 [Eh]
	 Same-Spin Energy          =      -0.3703167732194200 [Eh]
	 Opposite-Spin Energy      =      -1.2694553150629349 [Eh]
	 Correlation Energy        =      -1.6397720882823550 [Eh]
	 Total Energy              =   -1032.1768188859559814 [Eh]

	 ================> DF-SCS-MP2 Energies <==================
	-----------------------------------------------------------
	 SCS Same-Spin Scale       =       0.3333333333333333 [-]
	 SCS Opposite-Spin Scale   =       1.2000000000000000 [-]
	 SCS Same-Spin Energy      =      -0.1234389244064733 [Eh]
	 SCS Opposite-Spin Energy  =      -1.5233463780755219 [Eh]
	 SCS Correlation Energy    =      -1.6467853024819952 [Eh]
	 SCS Total Energy          =   -1032.1838321001555414 [Eh]
	-----------------------------------------------------------

  Dipole Moment: [D]
     X:     0.1338      Y:     1.7756      Z:    -0.8320     Total:     1.9654

*** Psi4 exiting successfully. Buy a developer a beer!
