                               Psi4 1.4a3.dev225

  ==> Input File <==

--------------------------------------------------------------------------
#psi4
#
memory 32 gb

molecule  {
0 1
  S       -0.2843280    -1.0417270    -0.4821980
  S       -1.2930110    -0.0875030     1.0369290
  C        2.1827622     0.3308975     0.2818805
  C        1.0396170     0.1533370    -0.8629480
  C        2.9192610    -1.0021330     0.3722660
  C        3.0446920     1.4546940    -0.1566970
  C       -2.4716130     0.9595520     0.1214340
  C       -3.5526440     0.1784480    -0.6085900
  H        1.6262820     0.5245100     1.1534320
  H        0.5779620     1.1249640    -1.0704080
  H        1.4790150    -0.2072190    -1.8028130
  H        3.4447910    -1.2503440    -0.5572920
  H        3.6685600    -0.8925200     1.1622280
  H        2.2689210    -1.8409590     0.6321870
  H        3.5445550     1.2705440    -1.1143240
  H        3.8190690     1.5865110     0.6053070
  H        2.4877540     2.3935860    -0.2389230
  H       -2.9081880     1.6071800     0.8902120
  H       -1.9135990     1.6021400    -0.5664420
  H       -3.1113200    -0.4862750    -1.3548320
  H       -4.1326660    -0.4262330     0.0924510
  H       -4.2326140     0.8656560    -1.1221410
units angstrom
no_reorient  #important for SAPT in psi4, default
symmetry c1  #important for SAPT in psi4, default
}

set PROPERTIES_ORIGIN ["COM"]
properties('MP2/aug-cc-pvtz', properties = ['dipole'])
--------------------------------------------------------------------------

    Molecular point group: c1
  Charge       = 0
  Multiplicity = 1
  Basis Set: AUG-CC-PVTZ
    Blend: AUG-CC-PVTZ
  Basis Set: (AUG-CC-PVTZ AUX)
    Blend: AUG-CC-PVTZ-JKFIT

    Orbital Energies [Eh]
    ---------------------

    Doubly Occupied:

       1A    -91.966812     2A    -91.966126     3A    -11.261540
       4A    -11.257792     5A    -11.231751     6A    -11.220837
       7A    -11.216223     8A    -11.210761     9A     -8.965661
      10A     -8.964774    11A     -6.646763    12A     -6.645865
      13A     -6.645502    14A     -6.644694    15A     -6.644628
      16A     -6.643851    17A     -1.105075    18A     -1.076760
      19A     -1.013378    20A     -0.935147    21A     -0.930962
      22A     -0.856008    23A     -0.795258    24A     -0.755013
      25A     -0.639727    26A     -0.629848    27A     -0.605721
      28A     -0.591636    29A     -0.584264    30A     -0.554265
      31A     -0.542243    32A     -0.534978    33A     -0.512644
      34A     -0.508666    35A     -0.488747    36A     -0.482926
      37A     -0.477353    38A     -0.442911    39A     -0.427802
      40A     -0.351323    41A     -0.340209

  @DF-RHF Final Energy: -1030.53847930999564

   => Energetics <=

    Nuclear Repulsion Energy =            554.5976984460252197
    One-Electron Energy =               -2519.6394620288983788
    Two-Electron Energy =                 934.5032842728772948
    Total Energy =                      -1030.5384793099956369
  Basis Set: (AUG-CC-PVTZ AUX)
    Blend: AUG-CC-PVTZ-RI
    Molecular point group: c1

    Geometry (in Angstrom), charge = 0, multiplicity = 1:

       Center              X                  Y                   Z               Mass
    ------------   -----------------  -----------------  -----------------  -----------------
         S           -0.245571338183    -1.006481016805    -0.510100892319    31.972071174400
         S           -1.254254338183    -0.052257016805     1.009026107681    31.972071174400
         C            2.221518861817     0.366143483195     0.253977607681    12.000000000000
         C            1.078373661817     0.188582983195    -0.890850892319    12.000000000000
         C            2.958017661817    -0.966887016805     0.344363107681    12.000000000000
         C            3.083448661817     1.489939983195    -0.184599892319    12.000000000000
         C           -2.432856338183     0.994797983195     0.093531107681    12.000000000000
         C           -3.513887338183     0.213693983195    -0.636492892319    12.000000000000
         H            1.665038661817     0.559755983195     1.125529107681     1.007825032230
         H            0.616718661817     1.160209983195    -1.098310892319     1.007825032230
         H            1.517771661817    -0.171973016805    -1.830715892319     1.007825032230
         H            3.483547661817    -1.215098016805    -0.585194892319     1.007825032230
         H            3.707316661817    -0.857274016805     1.134325107681     1.007825032230
         H            2.307677661817    -1.805713016805     0.604284107681     1.007825032230
         H            3.583311661817     1.305789983195    -1.142226892319     1.007825032230
         H            3.857825661817     1.621756983195     0.577404107681     1.007825032230
         H            2.526510661817     2.428831983195    -0.266825892319     1.007825032230
         H           -2.869431338183     1.642425983195     0.862309107681     1.007825032230
         H           -1.874842338183     1.637385983195    -0.594344892319     1.007825032230
         H           -3.072563338183    -0.451029016805    -1.382734892319     1.007825032230
         H           -4.093909338183    -0.390987016805     0.064548107681     1.007825032230
         H           -4.193857338183     0.900901983195    -1.150043892319     1.007825032230

  Basis Set: AUG-CC-PVTZ
    Blend: AUG-CC-PVTZ
  Basis Set: (AUG-CC-PVTZ AUX)
    Blend: AUG-CC-PVTZ-JKFIT
	 Reference Energy          =   -1030.5384793099956369 [Eh]
	 Singles Energy            =      -0.0000000000000000 [Eh]
	 Same-Spin Energy          =      -0.3701939405837912 [Eh]
	 Opposite-Spin Energy      =      -1.2692828625873205 [Eh]
	 Correlation Energy        =      -1.6394768031711116 [Eh]
	 Total Energy              =   -1032.1779561131668288 [Eh]

	 ================> DF-SCS-MP2 Energies <==================
	-----------------------------------------------------------
	 SCS Same-Spin Scale       =       0.3333333333333333 [-]
	 SCS Opposite-Spin Scale   =       1.2000000000000000 [-]
	 SCS Same-Spin Energy      =      -0.1233979801945971 [Eh]
	 SCS Opposite-Spin Energy  =      -1.5231394351047844 [Eh]
	 SCS Correlation Energy    =      -1.6465374152993815 [Eh]
	 SCS Total Energy          =   -1032.1850167252950996 [Eh]
	-----------------------------------------------------------

  Dipole Moment: [D]
     X:     0.1805      Y:     1.7919      Z:    -0.8585     Total:     1.9951

*** Psi4 exiting successfully. Buy a developer a beer!
