                               Psi4 1.4a3.dev225

  ==> Input File <==

--------------------------------------------------------------------------
#psi4
#
memory 32 gb

molecule  {
0 1
  S       -0.2843280    -1.0417270    -0.4821980
  S       -1.2930110    -0.0875030     1.0369290
  C        2.1238360     0.2887940     0.2038120
  C        1.0396170     0.1533370    -0.8629480
  C        2.9192610    -1.0021330     0.3722660
  C        3.0446920     1.4546940    -0.1566970
  C       -2.4716130     0.9595520     0.1214340
  C       -3.5149280     0.1557768    -0.6382540
  H        1.6262820     0.5245100     1.1534320
  H        0.5779620     1.1249640    -1.0704080
  H        1.4790150    -0.2072190    -1.8028130
  H        3.4447910    -1.2503440    -0.5572920
  H        3.6685600    -0.8925200     1.1622280
  H        2.2689210    -1.8409590     0.6321870
  H        3.5445550     1.2705440    -1.1143240
  H        3.8190690     1.5865110     0.6053070
  H        2.4877540     2.3935860    -0.2389230
  H       -2.9081880     1.6071800     0.8902120
  H       -1.9135990     1.6021400    -0.5664420
  H       -3.1113200    -0.4862750    -1.3548320
  H       -4.1326660    -0.4262330     0.0924510
  H       -4.2326140     0.8656560    -1.1221410
units angstrom
no_reorient  #important for SAPT in psi4, default
symmetry c1  #important for SAPT in psi4, default
}

set PROPERTIES_ORIGIN ["COM"]
properties('MP2/aug-cc-pvtz', properties = ['dipole'])
--------------------------------------------------------------------------

    Molecular point group: c1
  Charge       = 0
  Multiplicity = 1
  Basis Set: AUG-CC-PVTZ
    Blend: AUG-CC-PVTZ
  Basis Set: (AUG-CC-PVTZ AUX)
    Blend: AUG-CC-PVTZ-JKFIT

    Orbital Energies [Eh]
    ---------------------

    Doubly Occupied:

       1A    -91.967068     2A    -91.966908     3A    -11.262672
       4A    -11.257594     5A    -11.230916     6A    -11.222090
       7A    -11.216831     8A    -11.210078     9A     -8.965930
      10A     -8.965734    11A     -6.647084    12A     -6.646735
      13A     -6.645725    14A     -6.645643    15A     -6.644907
      16A     -6.644836    17A     -1.110779    18A     -1.076994
      19A     -1.011566    20A     -0.934854    21A     -0.931106
      22A     -0.861797    23A     -0.793875    24A     -0.752020
      25A     -0.643878    26A     -0.631680    27A     -0.604589
      28A     -0.592013    29A     -0.582032    30A     -0.550623
      31A     -0.548167    32A     -0.535652    33A     -0.510584
      34A     -0.509822    35A     -0.491420    36A     -0.475656
      37A     -0.470904    38A     -0.451420    39A     -0.428826
      40A     -0.352899    41A     -0.343630

  @DF-RHF Final Energy: -1030.54489156541058

   => Energetics <=

    Nuclear Repulsion Energy =            556.0982861315779928
    One-Electron Energy =               -2522.6112777342550544
    Two-Electron Energy =                 935.9681000372665949
    Total Energy =                      -1030.5448915654105804
  Basis Set: (AUG-CC-PVTZ AUX)
    Blend: AUG-CC-PVTZ-RI
    Molecular point group: c1

    Geometry (in Angstrom), charge = 0, multiplicity = 1:

       Center              X                  Y                   Z               Mass
    ------------   -----------------  -----------------  -----------------  -----------------
         S           -0.243875129345    -1.001300895040    -0.501485376260    31.972071174400
         S           -1.252558129345    -0.047076895040     1.017641623740    31.972071174400
         C            2.164288870655     0.329220104960     0.184524623740    12.000000000000
         C            1.080069870655     0.193763104960    -0.882235376260    12.000000000000
         C            2.959713870655    -0.961706895040     0.352978623740    12.000000000000
         C            3.085144870655     1.495120104960    -0.175984376260    12.000000000000
         C           -2.431160129345     0.999978104960     0.102146623740    12.000000000000
         C           -3.474475129345     0.196202904960    -0.657541376260    12.000000000000
         H            1.666734870655     0.564936104960     1.134144623740     1.007825032230
         H            0.618414870655     1.165390104960    -1.089695376260     1.007825032230
         H            1.519467870655    -0.166792895040    -1.822100376260     1.007825032230
         H            3.485243870655    -1.209917895040    -0.576579376260     1.007825032230
         H            3.709012870655    -0.852093895040     1.142940623740     1.007825032230
         H            2.309373870655    -1.800532895040     0.612899623740     1.007825032230
         H            3.585007870655     1.310970104960    -1.133611376260     1.007825032230
         H            3.859521870655     1.626937104960     0.586019623740     1.007825032230
         H            2.528206870655     2.434012104960    -0.258210376260     1.007825032230
         H           -2.867735129345     1.647606104960     0.870924623740     1.007825032230
         H           -1.873146129345     1.642566104960    -0.585729376260     1.007825032230
         H           -3.070867129345    -0.445848895040    -1.374119376260     1.007825032230
         H           -4.092213129345    -0.385806895040     0.073163623740     1.007825032230
         H           -4.192161129345     0.906082104960    -1.141428376260     1.007825032230

  Basis Set: AUG-CC-PVTZ
    Blend: AUG-CC-PVTZ
  Basis Set: (AUG-CC-PVTZ AUX)
    Blend: AUG-CC-PVTZ-JKFIT
	 Reference Energy          =   -1030.5448915654105804 [Eh]
	 Singles Energy            =      -0.0000000000000000 [Eh]
	 Same-Spin Energy          =      -0.3701432486640951 [Eh]
	 Opposite-Spin Energy      =      -1.2690422639638790 [Eh]
	 Correlation Energy        =      -1.6391855126279742 [Eh]
	 Total Energy              =   -1032.1840770780386265 [Eh]

	 ================> DF-SCS-MP2 Energies <==================
	-----------------------------------------------------------
	 SCS Same-Spin Scale       =       0.3333333333333333 [-]
	 SCS Opposite-Spin Scale   =       1.2000000000000000 [-]
	 SCS Same-Spin Energy      =      -0.1233810828880317 [Eh]
	 SCS Opposite-Spin Energy  =      -1.5228507167566547 [Eh]
	 SCS Correlation Energy    =      -1.6462317996446865 [Eh]
	 SCS Total Energy          =   -1032.1911233650553186 [Eh]
	-----------------------------------------------------------

  Dipole Moment: [D]
     X:     0.1170      Y:     1.7696      Z:    -0.8684     Total:     1.9746

*** Psi4 exiting successfully. Buy a developer a beer!
