                               Psi4 1.4a3.dev225

  ==> Input File <==

--------------------------------------------------------------------------
#psi4
#
memory 32 gb

molecule  {
0 1
  S       -0.2843280    -1.0417270    -0.4821980
  S       -1.2930110    -0.0875030     1.0369290
  C        2.1238360     0.2887940     0.2038120
  C        1.0396170     0.1533370    -0.8629480
  C        2.9192610    -1.0021330     0.3722660
  C        3.0748087     1.4928249    -0.1684875
  C       -2.4716130     0.9595520     0.1214340
  C       -3.5526440     0.1784480    -0.6085900
  H        1.6262820     0.5245100     1.1534320
  H        0.5779620     1.1249640    -1.0704080
  H        1.4790150    -0.2072190    -1.8028130
  H        3.4447910    -1.2503440    -0.5572920
  H        3.6685600    -0.8925200     1.1622280
  H        2.2689210    -1.8409590     0.6321870
  H        3.5445550     1.2705440    -1.1143240
  H        3.8190690     1.5865110     0.6053070
  H        2.4877540     2.3935860    -0.2389230
  H       -2.9081880     1.6071800     0.8902120
  H       -1.9135990     1.6021400    -0.5664420
  H       -3.1113200    -0.4862750    -1.3548320
  H       -4.1326660    -0.4262330     0.0924510
  H       -4.2326140     0.8656560    -1.1221410
units angstrom
no_reorient  #important for SAPT in psi4, default
symmetry c1  #important for SAPT in psi4, default
}

set PROPERTIES_ORIGIN ["COM"]
properties('MP2/aug-cc-pvtz', properties = ['dipole'])
--------------------------------------------------------------------------

    Molecular point group: c1
  Charge       = 0
  Multiplicity = 1
  Basis Set: AUG-CC-PVTZ
    Blend: AUG-CC-PVTZ
  Basis Set: (AUG-CC-PVTZ AUX)
    Blend: AUG-CC-PVTZ-JKFIT

    Orbital Energies [Eh]
    ---------------------

    Doubly Occupied:

       1A    -91.967420     2A    -91.966894     3A    -11.262049
       4A    -11.257419     5A    -11.233001     6A    -11.221241
       7A    -11.214793     8A    -11.209974     9A     -8.966261
      10A     -8.965664    11A     -6.647366    12A     -6.646717
      13A     -6.646094    14A     -6.645525    15A     -6.645274
      16A     -6.644725    17A     -1.107667    18A     -1.074511
      19A     -1.010139    20A     -0.934872    21A     -0.931957
      22A     -0.861396    23A     -0.793663    24A     -0.750962
      25A     -0.642653    26A     -0.629163    27A     -0.604302
      28A     -0.590762    29A     -0.584572    30A     -0.554264
      31A     -0.541685    32A     -0.539360    33A     -0.513633
      34A     -0.508587    35A     -0.493634    36A     -0.476069
      37A     -0.472682    38A     -0.446240    39A     -0.427925
      40A     -0.352773    41A     -0.343931

  @DF-RHF Final Energy: -1030.54648472675512

   => Energetics <=

    Nuclear Repulsion Energy =            554.8475300711236287
    One-Electron Energy =               -2520.1323889408445211
    Two-Electron Energy =                 934.7383741429658812
    Total Energy =                      -1030.5464847267548976
  Basis Set: (AUG-CC-PVTZ AUX)
    Blend: AUG-CC-PVTZ-RI
    Molecular point group: c1

    Geometry (in Angstrom), charge = 0, multiplicity = 1:

       Center              X                  Y                   Z               Mass
    ------------   -----------------  -----------------  -----------------  -----------------
         S           -0.243267402882    -1.006163322525    -0.502914744615    31.972071174400
         S           -1.251950402882    -0.051939322525     1.016212255385    31.972071174400
         C            2.164896597118     0.324357677475     0.183095255385    12.000000000000
         C            1.080677597118     0.188900677475    -0.883664744615    12.000000000000
         C            2.960321597118    -0.966569322525     0.351549255385    12.000000000000
         C            3.115869297118     1.528388577475    -0.189204244615    12.000000000000
         C           -2.430552402882     0.995115677475     0.100717255385    12.000000000000
         C           -3.511583402882     0.214011677475    -0.629306744615    12.000000000000
         H            1.667342597118     0.560073677475     1.132715255385     1.007825032230
         H            0.619022597118     1.160527677475    -1.091124744615     1.007825032230
         H            1.520075597118    -0.171655322525    -1.823529744615     1.007825032230
         H            3.485851597118    -1.214780322525    -0.578008744615     1.007825032230
         H            3.709620597118    -0.856956322525     1.141511255385     1.007825032230
         H            2.309981597118    -1.805395322525     0.611470255385     1.007825032230
         H            3.585615597118     1.306107677475    -1.135040744615     1.007825032230
         H            3.860129597118     1.622074677475     0.584590255385     1.007825032230
         H            2.528814597118     2.429149677475    -0.259639744615     1.007825032230
         H           -2.867127402882     1.642743677475     0.869495255385     1.007825032230
         H           -1.872538402882     1.637703677475    -0.587158744615     1.007825032230
         H           -3.070259402882    -0.450711322525    -1.375548744615     1.007825032230
         H           -4.091605402882    -0.390669322525     0.071734255385     1.007825032230
         H           -4.191553402882     0.901219677475    -1.142857744615     1.007825032230

  Basis Set: AUG-CC-PVTZ
    Blend: AUG-CC-PVTZ
  Basis Set: (AUG-CC-PVTZ AUX)
    Blend: AUG-CC-PVTZ-JKFIT
	 Reference Energy          =   -1030.5464847267551249 [Eh]
	 Singles Energy            =      -0.0000000000000000 [Eh]
	 Same-Spin Energy          =      -0.3698508312619118 [Eh]
	 Opposite-Spin Energy      =      -1.2687564286647826 [Eh]
	 Correlation Energy        =      -1.6386072599266943 [Eh]
	 Total Energy              =   -1032.1850919866817549 [Eh]

	 ================> DF-SCS-MP2 Energies <==================
	-----------------------------------------------------------
	 SCS Same-Spin Scale       =       0.3333333333333333 [-]
	 SCS Opposite-Spin Scale   =       1.2000000000000000 [-]
	 SCS Same-Spin Energy      =      -0.1232836104206372 [Eh]
	 SCS Opposite-Spin Energy  =      -1.5225077143977390 [Eh]
	 SCS Correlation Energy    =      -1.6457913248183762 [Eh]
	 SCS Total Energy          =   -1032.1922760515735717 [Eh]
	-----------------------------------------------------------

  Dipole Moment: [D]
     X:     0.1156      Y:     1.7612      Z:    -0.8626     Total:     1.9645

*** Psi4 exiting successfully. Buy a developer a beer!
