                               Psi4 1.4a3.dev225

  ==> Input File <==

--------------------------------------------------------------------------
#psi4
#
memory 32 gb

molecule  {
0 1
  S       -0.2843280    -1.0417270    -0.4821980
  S       -1.2930110    -0.0875030     1.0369290
  C        2.1238360     0.2887940     0.2038120
  C        1.0396170     0.1533370    -0.8629480
  C        2.9192610    -1.0021330     0.3722660
  C        3.0446920     1.4546940    -0.1566970
  C       -2.4716130     0.9595520     0.1214340
  C       -3.5668641     0.1681732    -0.6181929
  H        1.6262820     0.5245100     1.1534320
  H        0.5779620     1.1249640    -1.0704080
  H        1.4790150    -0.2072190    -1.8028130
  H        3.4447910    -1.2503440    -0.5572920
  H        3.6685600    -0.8925200     1.1622280
  H        2.2689210    -1.8409590     0.6321870
  H        3.5445550     1.2705440    -1.1143240
  H        3.8190690     1.5865110     0.6053070
  H        2.4877540     2.3935860    -0.2389230
  H       -2.9081880     1.6071800     0.8902120
  H       -1.9135990     1.6021400    -0.5664420
  H       -3.1113200    -0.4862750    -1.3548320
  H       -4.1326660    -0.4262330     0.0924510
  H       -4.2326140     0.8656560    -1.1221410
units angstrom
no_reorient  #important for SAPT in psi4, default
symmetry c1  #important for SAPT in psi4, default
}

set PROPERTIES_ORIGIN ["COM"]
properties('MP2/aug-cc-pvtz', properties = ['dipole'])
--------------------------------------------------------------------------

    Molecular point group: c1
  Charge       = 0
  Multiplicity = 1
  Basis Set: AUG-CC-PVTZ
    Blend: AUG-CC-PVTZ
  Basis Set: (AUG-CC-PVTZ AUX)
    Blend: AUG-CC-PVTZ-JKFIT

    Orbital Energies [Eh]
    ---------------------

    Doubly Occupied:

       1A    -91.967482     2A    -91.966916     3A    -11.262756
       4A    -11.257521     5A    -11.230906     6A    -11.220701
       7A    -11.216808     8A    -11.210053     9A     -8.966296
      10A     -8.965688    11A     -6.647405    12A     -6.646743
      13A     -6.646130    14A     -6.645552    15A     -6.645313
      16A     -6.644752    17A     -1.110387    18A     -1.074697
      19A     -1.010548    20A     -0.935226    21A     -0.931100
      22A     -0.861855    23A     -0.793576    24A     -0.751717
      25A     -0.643383    26A     -0.629290    27A     -0.604966
      28A     -0.591821    29A     -0.585505    30A     -0.551573
      31A     -0.538179    32A     -0.533675    33A     -0.516529
      34A     -0.508450    35A     -0.493959    36A     -0.475653
      37A     -0.471851    38A     -0.452602    39A     -0.428676
      40A     -0.352647    41A     -0.343807

  @DF-RHF Final Energy: -1030.54794652590135

   => Energetics <=

    Nuclear Repulsion Energy =            555.4004743706821046
    One-Electron Energy =               -2521.2314547775704341
    Two-Electron Energy =                 935.2830338809869772
    Total Energy =                      -1030.5479465259013523
  Basis Set: (AUG-CC-PVTZ AUX)
    Blend: AUG-CC-PVTZ-RI
    Molecular point group: c1

    Geometry (in Angstrom), charge = 0, multiplicity = 1:

       Center              X                  Y                   Z               Mass
    ------------   -----------------  -----------------  -----------------  -----------------
         S           -0.239721728063    -1.002292252182    -0.503089689993    31.972071174400
         S           -1.248404728063    -0.048068252182     1.016037310007    31.972071174400
         C            2.168442271937     0.328228747818     0.182920310007    12.000000000000
         C            1.084223271937     0.192771747818    -0.883839689993    12.000000000000
         C            2.963867271937    -0.962698252182     0.351374310007    12.000000000000
         C            3.089298271937     1.494128747818    -0.177588689993    12.000000000000
         C           -2.427006728063     0.998986747818     0.100542310007    12.000000000000
         C           -3.522257828063     0.207607947818    -0.639084589993    12.000000000000
         H            1.670888271937     0.563944747818     1.132540310007     1.007825032230
         H            0.622568271937     1.164398747818    -1.091299689993     1.007825032230
         H            1.523621271937    -0.167784252182    -1.823704689993     1.007825032230
         H            3.489397271937    -1.210909252182    -0.578183689993     1.007825032230
         H            3.713166271937    -0.853085252182     1.141336310007     1.007825032230
         H            2.313527271937    -1.801524252182     0.611295310007     1.007825032230
         H            3.589161271937     1.309978747818    -1.135215689993     1.007825032230
         H            3.863675271937     1.625945747818     0.584415310007     1.007825032230
         H            2.532360271937     2.433020747818    -0.259814689993     1.007825032230
         H           -2.863581728063     1.646614747818     0.869320310007     1.007825032230
         H           -1.868992728063     1.641574747818    -0.587333689993     1.007825032230
         H           -3.066713728063    -0.446840252182    -1.375723689993     1.007825032230
         H           -4.088059728063    -0.386798252182     0.071559310007     1.007825032230
         H           -4.188007728063     0.905090747818    -1.143032689993     1.007825032230

  Basis Set: AUG-CC-PVTZ
    Blend: AUG-CC-PVTZ
  Basis Set: (AUG-CC-PVTZ AUX)
    Blend: AUG-CC-PVTZ-JKFIT
	 Reference Energy          =   -1030.5479465259013523 [Eh]
	 Singles Energy            =      -0.0000000000000000 [Eh]
	 Same-Spin Energy          =      -0.3699799027573393 [Eh]
	 Opposite-Spin Energy      =      -1.2688036695872162 [Eh]
	 Correlation Energy        =      -1.6387835723445554 [Eh]
	 Total Energy              =   -1032.1867300982460165 [Eh]

	 ================> DF-SCS-MP2 Energies <==================
	-----------------------------------------------------------
	 SCS Same-Spin Scale       =       0.3333333333333333 [-]
	 SCS Opposite-Spin Scale   =       1.2000000000000000 [-]
	 SCS Same-Spin Energy      =      -0.1233266342524464 [Eh]
	 SCS Opposite-Spin Energy  =      -1.5225644035046595 [Eh]
	 SCS Correlation Energy    =      -1.6458910377571059 [Eh]
	 SCS Total Energy          =   -1032.1938375636584624 [Eh]
	-----------------------------------------------------------

  Dipole Moment: [D]
     X:     0.1169      Y:     1.7694      Z:    -0.8597     Total:     1.9707

*** Psi4 exiting successfully. Buy a developer a beer!
