                               Psi4 1.4a3.dev225

  ==> Input File <==

--------------------------------------------------------------------------
#psi4
#
memory 32 gb

molecule  {
0 1
  S       -0.2843280    -1.0417270    -0.4821980
  S       -1.2930110    -0.0875030     1.0369290
  C        2.1238360     0.2887940     0.2038120
  C        1.0396170     0.1533370    -0.8629480
  C        2.9192610    -1.0021330     0.3722660
  C        2.9844586     1.3784322    -0.1331160
  C       -2.4716130     0.9595520     0.1214340
  C       -3.5526440     0.1784480    -0.6085900
  H        1.6262820     0.5245100     1.1534320
  H        0.5779620     1.1249640    -1.0704080
  H        1.4790150    -0.2072190    -1.8028130
  H        3.4447910    -1.2503440    -0.5572920
  H        3.6685600    -0.8925200     1.1622280
  H        2.2689210    -1.8409590     0.6321870
  H        3.5445550     1.2705440    -1.1143240
  H        3.8190690     1.5865110     0.6053070
  H        2.4877540     2.3935860    -0.2389230
  H       -2.9081880     1.6071800     0.8902120
  H       -1.9135990     1.6021400    -0.5664420
  H       -3.1113200    -0.4862750    -1.3548320
  H       -4.1326660    -0.4262330     0.0924510
  H       -4.2326140     0.8656560    -1.1221410
units angstrom
no_reorient  #important for SAPT in psi4, default
symmetry c1  #important for SAPT in psi4, default
}

set PROPERTIES_ORIGIN ["COM"]
properties('MP2/aug-cc-pvtz', properties = ['dipole'])
--------------------------------------------------------------------------

    Molecular point group: c1
  Charge       = 0
  Multiplicity = 1
  Basis Set: AUG-CC-PVTZ
    Blend: AUG-CC-PVTZ
  Basis Set: (AUG-CC-PVTZ AUX)
    Blend: AUG-CC-PVTZ-JKFIT

    Orbital Energies [Eh]
    ---------------------

    Doubly Occupied:

       1A    -91.967782     2A    -91.967254     3A    -11.262284
       4A    -11.258215     5A    -11.226292     6A    -11.222897
       7A    -11.221432     8A    -11.210724     9A     -8.966623
      10A     -8.966026    11A     -6.647728    12A     -6.647081
      13A     -6.646455    14A     -6.645891    15A     -6.645636
      16A     -6.645092    17A     -1.120294    18A     -1.080688
      19A     -1.015213    20A     -0.936001    21A     -0.930232
      22A     -0.859911    23A     -0.792820    24A     -0.754205
      25A     -0.646844    26A     -0.631759    27A     -0.609843
      28A     -0.595487    29A     -0.587169    30A     -0.549232
      31A     -0.541196    32A     -0.527620    33A     -0.513720
      34A     -0.507540    35A     -0.491411    36A     -0.476963
      37A     -0.463350    38A     -0.455049    39A     -0.429455
      40A     -0.353250    41A     -0.344328

  @DF-RHF Final Energy: -1030.53639425275537

   => Energetics <=

    Nuclear Repulsion Energy =            557.5601821377734950
    One-Electron Energy =               -2525.4711679041897696
    Two-Electron Energy =                 937.3745915136607891
    Total Energy =                      -1030.5363942527553718
  Basis Set: (AUG-CC-PVTZ AUX)
    Blend: AUG-CC-PVTZ-RI
    Molecular point group: c1

    Geometry (in Angstrom), charge = 0, multiplicity = 1:

       Center              X                  Y                   Z               Mass
    ------------   -----------------  -----------------  -----------------  -----------------
         S           -0.236041981236    -0.997015181120    -0.505743452073    31.972071174400
         S           -1.244724981236    -0.042791181120     1.013383547927    31.972071174400
         C            2.172122018764     0.333505818880     0.180266547927    12.000000000000
         C            1.087903018764     0.198048818880    -0.886493452073    12.000000000000
         C            2.967547018764    -0.957421181120     0.348720547927    12.000000000000
         C            3.032744618764     1.423144018880    -0.156661452073    12.000000000000
         C           -2.423326981236     1.004263818880     0.097888547927    12.000000000000
         C           -3.504357981236     0.223159818880    -0.632135452073    12.000000000000
         H            1.674568018764     0.569221818880     1.129886547927     1.007825032230
         H            0.626248018764     1.169675818880    -1.093953452073     1.007825032230
         H            1.527301018764    -0.162507181120    -1.826358452073     1.007825032230
         H            3.493077018764    -1.205632181120    -0.580837452073     1.007825032230
         H            3.716846018764    -0.847808181120     1.138682547927     1.007825032230
         H            2.317207018764    -1.796247181120     0.608641547927     1.007825032230
         H            3.592841018764     1.315255818880    -1.137869452073     1.007825032230
         H            3.867355018764     1.631222818880     0.581761547927     1.007825032230
         H            2.536040018764     2.438297818880    -0.262468452073     1.007825032230
         H           -2.859901981236     1.651891818880     0.866666547927     1.007825032230
         H           -1.865312981236     1.646851818880    -0.589987452073     1.007825032230
         H           -3.063033981236    -0.441563181120    -1.378377452073     1.007825032230
         H           -4.084379981236    -0.381521181120     0.068905547927     1.007825032230
         H           -4.184327981236     0.910367818880    -1.145686452073     1.007825032230

  Basis Set: AUG-CC-PVTZ
    Blend: AUG-CC-PVTZ
  Basis Set: (AUG-CC-PVTZ AUX)
    Blend: AUG-CC-PVTZ-JKFIT
	 Reference Energy          =   -1030.5363942527553718 [Eh]
	 Singles Energy            =      -0.0000000000000000 [Eh]
	 Same-Spin Energy          =      -0.3712097842777631 [Eh]
	 Opposite-Spin Energy      =      -1.2702035265135811 [Eh]
	 Correlation Energy        =      -1.6414133107913442 [Eh]
	 Total Energy              =   -1032.1778075635468213 [Eh]

	 ================> DF-SCS-MP2 Energies <==================
	-----------------------------------------------------------
	 SCS Same-Spin Scale       =       0.3333333333333333 [-]
	 SCS Opposite-Spin Scale   =       1.2000000000000000 [-]
	 SCS Same-Spin Energy      =      -0.1237365947592544 [Eh]
	 SCS Opposite-Spin Energy  =      -1.5242442318162974 [Eh]
	 SCS Correlation Energy    =      -1.6479808265755518 [Eh]
	 SCS Total Energy          =   -1032.1843750793309482 [Eh]
	-----------------------------------------------------------

  Dipole Moment: [D]
     X:     0.0958      Y:     1.7538      Z:    -0.8524     Total:     1.9524

*** Psi4 exiting successfully. Buy a developer a beer!
