                               Psi4 1.4a3.dev225

  ==> Input File <==

--------------------------------------------------------------------------
#psi4
#
memory 32 gb

molecule  {
0 1
  S       -0.2843280    -1.0417270    -0.4821980
  S       -1.2930110    -0.0875030     1.0369290
  C        2.1238360     0.2887940     0.2038120
  C        1.0396170     0.1533370    -0.8629480
  C        2.9192610    -1.0021330     0.3722660
  C        3.1651589     1.6072177    -0.2038590
  C       -2.4716130     0.9595520     0.1214340
  C       -3.5526440     0.1784480    -0.6085900
  H        1.6262820     0.5245100     1.1534320
  H        0.5779620     1.1249640    -1.0704080
  H        1.4790150    -0.2072190    -1.8028130
  H        3.4447910    -1.2503440    -0.5572920
  H        3.6685600    -0.8925200     1.1622280
  H        2.2689210    -1.8409590     0.6321870
  H        3.5445550     1.2705440    -1.1143240
  H        3.8190690     1.5865110     0.6053070
  H        2.4877540     2.3935860    -0.2389230
  H       -2.9081880     1.6071800     0.8902120
  H       -1.9135990     1.6021400    -0.5664420
  H       -3.1113200    -0.4862750    -1.3548320
  H       -4.1326660    -0.4262330     0.0924510
  H       -4.2326140     0.8656560    -1.1221410
units angstrom
no_reorient  #important for SAPT in psi4, default
symmetry c1  #important for SAPT in psi4, default
}

set PROPERTIES_ORIGIN ["COM"]
properties('MP2/aug-cc-pvtz', properties = ['dipole'])
--------------------------------------------------------------------------

    Molecular point group: c1
  Charge       = 0
  Multiplicity = 1
  Basis Set: AUG-CC-PVTZ
    Blend: AUG-CC-PVTZ
  Basis Set: (AUG-CC-PVTZ AUX)
    Blend: AUG-CC-PVTZ-JKFIT

    Orbital Energies [Eh]
    ---------------------

    Doubly Occupied:

       1A    -91.967433     2A    -91.966948     3A    -11.262083
       4A    -11.257651     5A    -11.238520     6A    -11.221272
       7A    -11.213286     8A    -11.210411     9A     -8.966275
      10A     -8.965725    11A     -6.647382    12A     -6.646766
      13A     -6.646106    14A     -6.645582    15A     -6.645286
      16A     -6.644778    17A     -1.102823    18A     -1.069562
      19A     -1.006362    20A     -0.936659    21A     -0.933422
      22A     -0.862506    23A     -0.793721    24A     -0.749038
      25A     -0.641572    26A     -0.628447    27A     -0.607351
      28A     -0.591950    29A     -0.583559    30A     -0.563988
      31A     -0.551643    32A     -0.542086    33A     -0.513739
      34A     -0.509506    35A     -0.495051    36A     -0.479841
      37A     -0.471846    38A     -0.431668    39A     -0.409847
      40A     -0.352663    41A     -0.343129

  @DF-RHF Final Energy: -1030.52177030861139

   => Energetics <=

    Nuclear Repulsion Energy =            552.3418211844866619
    One-Electron Energy =               -2515.0922172717732792
    Two-Electron Energy =                 932.2286257786752230
    Total Energy =                      -1030.5217703086113943
  Basis Set: (AUG-CC-PVTZ AUX)
    Blend: AUG-CC-PVTZ-RI
    Molecular point group: c1

    Geometry (in Angstrom), charge = 0, multiplicity = 1:

       Center              X                  Y                   Z               Mass
    ------------   -----------------  -----------------  -----------------  -----------------
         S           -0.250492832525    -1.015311471926    -0.500086037156    31.972071174400
         S           -1.259175832525    -0.061087471926     1.019040962844    31.972071174400
         C            2.157671167475     0.315209528074     0.185923962844    12.000000000000
         C            1.073452167475     0.179752528074    -0.880836037156    12.000000000000
         C            2.953096167475    -0.975717471926     0.354377962844    12.000000000000
         C            3.198994067475     1.633633228074    -0.221747037156    12.000000000000
         C           -2.437777832525     0.985967528074     0.103545962844    12.000000000000
         C           -3.518808832525     0.204863528074    -0.626478037156    12.000000000000
         H            1.660117167475     0.550925528074     1.135543962844     1.007825032230
         H            0.611797167475     1.151379528074    -1.088296037156     1.007825032230
         H            1.512850167475    -0.180803471926    -1.820701037156     1.007825032230
         H            3.478626167475    -1.223928471926    -0.575180037156     1.007825032230
         H            3.702395167475    -0.866104471926     1.144339962844     1.007825032230
         H            2.302756167475    -1.814543471926     0.614298962844     1.007825032230
         H            3.578390167475     1.296959528074    -1.132212037156     1.007825032230
         H            3.852904167475     1.612926528074     0.587418962844     1.007825032230
         H            2.521589167475     2.420001528074    -0.256811037156     1.007825032230
         H           -2.874352832525     1.633595528074     0.872323962844     1.007825032230
         H           -1.879763832525     1.628555528074    -0.584330037156     1.007825032230
         H           -3.077484832525    -0.459859471926    -1.372720037156     1.007825032230
         H           -4.098830832525    -0.399817471926     0.074562962844     1.007825032230
         H           -4.198778832525     0.892071528074    -1.140029037156     1.007825032230

  Basis Set: AUG-CC-PVTZ
    Blend: AUG-CC-PVTZ
  Basis Set: (AUG-CC-PVTZ AUX)
    Blend: AUG-CC-PVTZ-JKFIT
	 Reference Energy          =   -1030.5217703086113943 [Eh]
	 Singles Energy            =      -0.0000000000000000 [Eh]
	 Same-Spin Energy          =      -0.3701150407555315 [Eh]
	 Opposite-Spin Energy      =      -1.2701664320225841 [Eh]
	 Correlation Energy        =      -1.6402814727781156 [Eh]
	 Total Energy              =   -1032.1620517813894367 [Eh]

	 ================> DF-SCS-MP2 Energies <==================
	-----------------------------------------------------------
	 SCS Same-Spin Scale       =       0.3333333333333333 [-]
	 SCS Opposite-Spin Scale   =       1.2000000000000000 [-]
	 SCS Same-Spin Energy      =      -0.1233716802518438 [Eh]
	 SCS Opposite-Spin Energy  =      -1.5241997184271008 [Eh]
	 SCS Correlation Energy    =      -1.6475713986789446 [Eh]
	 SCS Total Energy          =   -1032.1693417072904140 [Eh]
	-----------------------------------------------------------

  Dipole Moment: [D]
     X:     0.0601      Y:     1.6866      Z:    -0.8485     Total:     1.8890

*** Psi4 exiting successfully. Buy a developer a beer!
