                               Psi4 1.4a3.dev225

  ==> Input File <==

--------------------------------------------------------------------------
#psi4
#
memory 32 gb

molecule  {
0 1
  S       -0.2843280    -1.0417270    -0.4821980
  S       -1.2930110    -0.0875030     1.0369290
  C        2.0687850     0.2404013     0.1265642
  C        1.0396170     0.1533370    -0.8629480
  C        2.9192610    -1.0021330     0.3722660
  C        3.0446920     1.4546940    -0.1566970
  C       -2.4716130     0.9595520     0.1214340
  C       -3.5526440     0.1784480    -0.6085900
  H        1.6262820     0.5245100     1.1534320
  H        0.5779620     1.1249640    -1.0704080
  H        1.4790150    -0.2072190    -1.8028130
  H        3.4447910    -1.2503440    -0.5572920
  H        3.6685600    -0.8925200     1.1622280
  H        2.2689210    -1.8409590     0.6321870
  H        3.5445550     1.2705440    -1.1143240
  H        3.8190690     1.5865110     0.6053070
  H        2.4877540     2.3935860    -0.2389230
  H       -2.9081880     1.6071800     0.8902120
  H       -1.9135990     1.6021400    -0.5664420
  H       -3.1113200    -0.4862750    -1.3548320
  H       -4.1326660    -0.4262330     0.0924510
  H       -4.2326140     0.8656560    -1.1221410
units angstrom
no_reorient  #important for SAPT in psi4, default
symmetry c1  #important for SAPT in psi4, default
}

set PROPERTIES_ORIGIN ["COM"]
properties('MP2/aug-cc-pvtz', properties = ['dipole'])
--------------------------------------------------------------------------

    Molecular point group: c1
  Charge       = 0
  Multiplicity = 1
  Basis Set: AUG-CC-PVTZ
    Blend: AUG-CC-PVTZ
  Basis Set: (AUG-CC-PVTZ AUX)
    Blend: AUG-CC-PVTZ-JKFIT

    Orbital Energies [Eh]
    ---------------------

    Doubly Occupied:

       1A    -91.967980     2A    -91.967403     3A    -11.262459
       4A    -11.255676     5A    -11.233084     6A    -11.221536
       7A    -11.218789     8A    -11.211086     9A     -8.966799
      10A     -8.966319    11A     -6.647901    12A     -6.647339
      13A     -6.646619    14A     -6.646182    15A     -6.645798
      16A     -6.645361    17A     -1.120317    18A     -1.077330
      19A     -1.009441    20A     -0.940182    21A     -0.927731
      22A     -0.866292    23A     -0.793603    24A     -0.747478
      25A     -0.649784    26A     -0.630187    27A     -0.605610
      28A     -0.592194    29A     -0.586738    30A     -0.550925
      31A     -0.540347    32A     -0.534684    33A     -0.519419
      34A     -0.511708    35A     -0.503941    36A     -0.476520
      37A     -0.462833    38A     -0.433539    39A     -0.427547
      40A     -0.354306    41A     -0.345777

  @DF-RHF Final Energy: -1030.53521345873537

   => Energetics <=

    Nuclear Repulsion Energy =            556.8611791727273612
    One-Electron Energy =               -2524.0752631420291436
    Two-Electron Energy =                 936.6788705105665258
    Total Energy =                      -1030.5352134587351429
  Basis Set: (AUG-CC-PVTZ AUX)
    Blend: AUG-CC-PVTZ-RI
    Molecular point group: c1

    Geometry (in Angstrom), charge = 0, multiplicity = 1:

       Center              X                  Y                   Z               Mass
    ------------   -----------------  -----------------  -----------------  -----------------
         S           -0.236456424885    -0.999243911342    -0.497680034390    31.972071174400
         S           -1.245139424885    -0.045019911342     1.021446965610    31.972071174400
         C            2.116656575115     0.282884388658     0.111082165610    12.000000000000
         C            1.087488575115     0.195820088658    -0.878430034390    12.000000000000
         C            2.967132575115    -0.959649911342     0.356783965610    12.000000000000
         C            3.092563575115     1.497177088658    -0.172179034390    12.000000000000
         C           -2.423741424885     1.002035088658     0.105951965610    12.000000000000
         C           -3.504772424885     0.220931088658    -0.624072034390    12.000000000000
         H            1.674153575115     0.566993088658     1.137949965610     1.007825032230
         H            0.625833575115     1.167447088658    -1.085890034390     1.007825032230
         H            1.526886575115    -0.164735911342    -1.818295034390     1.007825032230
         H            3.492662575115    -1.207860911342    -0.572774034390     1.007825032230
         H            3.716431575115    -0.850036911342     1.146745965610     1.007825032230
         H            2.316792575115    -1.798475911342     0.616704965610     1.007825032230
         H            3.592426575115     1.313027088658    -1.129806034390     1.007825032230
         H            3.866940575115     1.628994088658     0.589824965610     1.007825032230
         H            2.535625575115     2.436069088658    -0.254405034390     1.007825032230
         H           -2.860316424885     1.649663088658     0.874729965610     1.007825032230
         H           -1.865727424885     1.644623088658    -0.581924034390     1.007825032230
         H           -3.063448424885    -0.443791911342    -1.370314034390     1.007825032230
         H           -4.084794424885    -0.383749911342     0.076968965610     1.007825032230
         H           -4.184742424885     0.908139088658    -1.137623034390     1.007825032230

  Basis Set: AUG-CC-PVTZ
    Blend: AUG-CC-PVTZ
  Basis Set: (AUG-CC-PVTZ AUX)
    Blend: AUG-CC-PVTZ-JKFIT
	 Reference Energy          =   -1030.5352134587353703 [Eh]
	 Singles Energy            =      -0.0000000000000000 [Eh]
	 Same-Spin Energy          =      -0.3710177805287836 [Eh]
	 Opposite-Spin Energy      =      -1.2702753765213735 [Eh]
	 Correlation Energy        =      -1.6412931570501570 [Eh]
	 Total Energy              =   -1032.1765066157854562 [Eh]

	 ================> DF-SCS-MP2 Energies <==================
	-----------------------------------------------------------
	 SCS Same-Spin Scale       =       0.3333333333333333 [-]
	 SCS Opposite-Spin Scale   =       1.2000000000000000 [-]
	 SCS Same-Spin Energy      =      -0.1236725935095945 [Eh]
	 SCS Opposite-Spin Energy  =      -1.5243304518256482 [Eh]
	 SCS Correlation Energy    =      -1.6480030453352428 [Eh]
	 SCS Total Energy          =   -1032.1832165040705149 [Eh]
	-----------------------------------------------------------

  Dipole Moment: [D]
     X:     0.0813      Y:     1.7451      Z:    -0.8600     Total:     1.9472

*** Psi4 exiting successfully. Buy a developer a beer!
