                               Psi4 1.4a3.dev225

  ==> Input File <==

--------------------------------------------------------------------------
#psi4
#
memory 32 gb

molecule  {
0 1
  S       -0.2843280    -1.0417270    -0.4821980
  S       -1.2930110    -0.0875030     1.0369290
  C        2.1238360     0.2887940     0.2038120
  C        1.0396170     0.1533370    -0.8629480
  C        2.9192610    -1.0021330     0.3722660
  C        3.0446920     1.4546940    -0.1566970
  C       -2.4716130     0.9595520     0.1214340
  C       -3.5526440     0.1784480    -0.6085900
  H        1.6262820     0.5245100     1.1534320
  H        0.5779620     1.1249640    -1.0704080
  H        1.4790150    -0.2072190    -1.8028130
  H        3.4447910    -1.2503440    -0.5572920
  H        3.6685600    -0.8925200     1.1622280
  H        2.2689210    -1.8409590     0.6321870
  H        3.5445550     1.2705440    -1.1143240
  H        3.8190690     1.5865110     0.6053070
  H        2.4877540     2.3935860    -0.2389230
  H       -2.9081880     1.6071800     0.8902120
  H       -1.9135990     1.6021400    -0.5664420
  H       -3.1113200    -0.4862750    -1.3548320
  H       -4.1857580    -0.4815821     0.1566204
  H       -4.2326140     0.8656560    -1.1221410
units angstrom
no_reorient  #important for SAPT in psi4, default
symmetry c1  #important for SAPT in psi4, default
}

set PROPERTIES_ORIGIN ["COM"]
properties('MP2/aug-cc-pvtz', properties = ['dipole'])
--------------------------------------------------------------------------

    Molecular point group: c1
  Charge       = 0
  Multiplicity = 1
  Basis Set: AUG-CC-PVTZ
    Blend: AUG-CC-PVTZ
  Basis Set: (AUG-CC-PVTZ AUX)
    Blend: AUG-CC-PVTZ-JKFIT

    Orbital Energies [Eh]
    ---------------------

    Doubly Occupied:

       1A    -91.967740     2A    -91.967245     3A    -11.263218
       4A    -11.257770     5A    -11.233125     6A    -11.231095
       7A    -11.216976     8A    -11.210213     9A     -8.966576
      10A     -8.966010    11A     -6.647679    12A     -6.647061
      13A     -6.646406    14A     -6.645873    15A     -6.645581
      16A     -6.645075    17A     -1.110795    18A     -1.075929
      19A     -1.010509    20A     -0.933075    21A     -0.931071
      22A     -0.858090    23A     -0.792619    24A     -0.751407
      25A     -0.643397    26A     -0.626625    27A     -0.604999
      28A     -0.592474    29A     -0.585352    30A     -0.550516
      31A     -0.540636    32A     -0.535172    33A     -0.509558
      34A     -0.499951    35A     -0.492053    36A     -0.475663
      37A     -0.471744    38A     -0.452953    39A     -0.428877
      40A     -0.353218    41A     -0.344348

  @DF-RHF Final Energy: -1030.54164211684224

   => Energetics <=

    Nuclear Repulsion Energy =            555.3041058254780182
    One-Electron Energy =               -2521.0341466612471777
    Two-Electron Energy =                 935.1883987189269192
    Total Energy =                      -1030.5416421168422403
  Basis Set: (AUG-CC-PVTZ AUX)
    Blend: AUG-CC-PVTZ-RI
    Molecular point group: c1

    Geometry (in Angstrom), charge = 0, multiplicity = 1:

       Center              X                  Y                   Z               Mass
    ------------   -----------------  -----------------  -----------------  -----------------
         S           -0.240502340331    -1.002742193735    -0.504288636345    31.972071174400
         S           -1.249185340331    -0.048518193735     1.014838363655    31.972071174400
         C            2.167661659669     0.327778806265     0.181721363655    12.000000000000
         C            1.083442659669     0.192321806265    -0.885038636345    12.000000000000
         C            2.963086659669    -0.963148193735     0.350175363655    12.000000000000
         C            3.088517659669     1.493678806265    -0.178787636345    12.000000000000
         C           -2.427787340331     0.998536806265     0.099343363655    12.000000000000
         C           -3.508818340331     0.217432806265    -0.630680636345    12.000000000000
         H            1.670107659669     0.563494806265     1.131341363655     1.007825032230
         H            0.621787659669     1.163948806265    -1.092498636345     1.007825032230
         H            1.522840659669    -0.168234193735    -1.824903636345     1.007825032230
         H            3.488616659669    -1.211359193735    -0.579382636345     1.007825032230
         H            3.712385659669    -0.853535193735     1.140137363655     1.007825032230
         H            2.312746659669    -1.801974193735     0.610096363655     1.007825032230
         H            3.588380659669     1.309528806265    -1.136414636345     1.007825032230
         H            3.862894659669     1.625495806265     0.583216363655     1.007825032230
         H            2.531579659669     2.432570806265    -0.261013636345     1.007825032230
         H           -2.864362340331     1.646164806265     0.868121363655     1.007825032230
         H           -1.869773340331     1.641124806265    -0.588532636345     1.007825032230
         H           -3.067494340331    -0.447290193735    -1.376922636345     1.007825032230
         H           -4.141932340331    -0.442597293735     0.134529763655     1.007825032230
         H           -4.188788340331     0.904640806265    -1.144231636345     1.007825032230

  Basis Set: AUG-CC-PVTZ
    Blend: AUG-CC-PVTZ
  Basis Set: (AUG-CC-PVTZ AUX)
    Blend: AUG-CC-PVTZ-JKFIT
	 Reference Energy          =   -1030.5416421168422403 [Eh]
	 Singles Energy            =      -0.0000000000000000 [Eh]
	 Same-Spin Energy          =      -0.3700890826901369 [Eh]
	 Opposite-Spin Energy      =      -1.2695833502311356 [Eh]
	 Correlation Energy        =      -1.6396724329212724 [Eh]
	 Total Energy              =   -1032.1813145497635560 [Eh]

	 ================> DF-SCS-MP2 Energies <==================
	-----------------------------------------------------------
	 SCS Same-Spin Scale       =       0.3333333333333333 [-]
	 SCS Opposite-Spin Scale   =       1.2000000000000000 [-]
	 SCS Same-Spin Energy      =      -0.1233630275633790 [Eh]
	 SCS Opposite-Spin Energy  =      -1.5235000202773625 [Eh]
	 SCS Correlation Energy    =      -1.6468630478407416 [Eh]
	 SCS Total Energy          =   -1032.1885051646829652 [Eh]
	-----------------------------------------------------------

  Dipole Moment: [D]
     X:     0.1643      Y:     1.7943      Z:    -0.8821     Total:     2.0061

*** Psi4 exiting successfully. Buy a developer a beer!
