                               Psi4 1.4a3.dev225

  ==> Input File <==

--------------------------------------------------------------------------
#psi4
#
memory 32 gb

molecule  {
0 1
  S       -0.2843280    -1.0417270    -0.4821980
  S       -1.2930110    -0.0875030     1.0369290
  C        2.1238360     0.2887940     0.2038120
  C        1.0396170     0.1533370    -0.8629480
  C        2.9192610    -1.0021330     0.3722660
  C        3.0446920     1.4546940    -0.1566970
  C       -2.4716130     0.9595520     0.1214340
  C       -3.4357301     0.1133988    -0.6947703
  H        1.6262820     0.5245100     1.1534320
  H        0.5779620     1.1249640    -1.0704080
  H        1.4790150    -0.2072190    -1.8028130
  H        3.4447910    -1.2503440    -0.5572920
  H        3.6685600    -0.8925200     1.1622280
  H        2.2689210    -1.8409590     0.6321870
  H        3.5445550     1.2705440    -1.1143240
  H        3.8190690     1.5865110     0.6053070
  H        2.4877540     2.3935860    -0.2389230
  H       -2.9081880     1.6071800     0.8902120
  H       -1.9135990     1.6021400    -0.5664420
  H       -3.1113200    -0.4862750    -1.3548320
  H       -4.1326660    -0.4262330     0.0924510
  H       -4.2326140     0.8656560    -1.1221410
units angstrom
no_reorient  #important for SAPT in psi4, default
symmetry c1  #important for SAPT in psi4, default
}

set PROPERTIES_ORIGIN ["COM"]
properties('MP2/aug-cc-pvtz', properties = ['dipole'])
--------------------------------------------------------------------------

    Molecular point group: c1
  Charge       = 0
  Multiplicity = 1
  Basis Set: AUG-CC-PVTZ
    Blend: AUG-CC-PVTZ
  Basis Set: (AUG-CC-PVTZ AUX)
    Blend: AUG-CC-PVTZ-JKFIT

    Orbital Energies [Eh]
    ---------------------

    Doubly Occupied:

       1A    -91.967473     2A    -91.965980     3A    -11.265229
       4A    -11.257817     5A    -11.230995     6A    -11.226436
       7A    -11.216921     8A    -11.210173     9A     -8.966274
      10A     -8.965029    11A     -6.647376    12A     -6.646175
      13A     -6.646016    14A     -6.645322    15A     -6.644900
      16A     -6.644057    17A     -1.111270    18A     -1.078631
      19A     -1.011929    20A     -0.935628    21A     -0.931223
      22A     -0.866065    23A     -0.795655    24A     -0.753058
      25A     -0.645843    26A     -0.635940    27A     -0.604356
      28A     -0.596524    29A     -0.574888    30A     -0.570871
      31A     -0.548974    32A     -0.535912    33A     -0.511567
      34A     -0.500188    35A     -0.482596    36A     -0.475782
      37A     -0.467895    38A     -0.447061    39A     -0.428940
      40A     -0.353143    41A     -0.342787

  @DF-RHF Final Energy: -1030.51637762006521

   => Energetics <=

    Nuclear Repulsion Energy =            556.9173599860783952
    One-Electron Energy =               -2524.1616788234596243
    Two-Electron Energy =                 936.7279412173161290
    Total Energy =                      -1030.5163776200652137
  Basis Set: (AUG-CC-PVTZ AUX)
    Blend: AUG-CC-PVTZ-RI
    Molecular point group: c1

    Geometry (in Angstrom), charge = 0, multiplicity = 1:

       Center              X                  Y                   Z               Mass
    ------------   -----------------  -----------------  -----------------  -----------------
         S           -0.250208694232    -0.997911868149    -0.496965690091    31.972071174400
         S           -1.258891694232    -0.043687868149     1.022161309909    31.972071174400
         C            2.157955305768     0.332609131851     0.189044309909    12.000000000000
         C            1.073736305768     0.197152131851    -0.877715690091    12.000000000000
         C            2.953380305768    -0.958317868149     0.357498309909    12.000000000000
         C            3.078811305768     1.498509131851    -0.171464690091    12.000000000000
         C           -2.437493694232     1.003367131851     0.106666309909    12.000000000000
         C           -3.401610794232     0.157213931851    -0.709537990091    12.000000000000
         H            1.660401305768     0.568325131851     1.138664309909     1.007825032230
         H            0.612081305768     1.168779131851    -1.085175690091     1.007825032230
         H            1.513134305768    -0.163403868149    -1.817580690091     1.007825032230
         H            3.478910305768    -1.206528868149    -0.572059690091     1.007825032230
         H            3.702679305768    -0.848704868149     1.147460309909     1.007825032230
         H            2.303040305768    -1.797143868149     0.617419309909     1.007825032230
         H            3.578674305768     1.314359131851    -1.129091690091     1.007825032230
         H            3.853188305768     1.630326131851     0.590539309909     1.007825032230
         H            2.521873305768     2.437401131851    -0.253690690091     1.007825032230
         H           -2.874068694232     1.650995131851     0.875444309909     1.007825032230
         H           -1.879479694232     1.645955131851    -0.581209690091     1.007825032230
         H           -3.077200694232    -0.442459868149    -1.369599690091     1.007825032230
         H           -4.098546694232    -0.382417868149     0.077683309909     1.007825032230
         H           -4.198494694232     0.909471131851    -1.136908690091     1.007825032230

  Basis Set: AUG-CC-PVTZ
    Blend: AUG-CC-PVTZ
  Basis Set: (AUG-CC-PVTZ AUX)
    Blend: AUG-CC-PVTZ-JKFIT
	 Reference Energy          =   -1030.5163776200652137 [Eh]
	 Singles Energy            =      -0.0000000000000000 [Eh]
	 Same-Spin Energy          =      -0.3705484344306793 [Eh]
	 Opposite-Spin Energy      =      -1.2702941606973992 [Eh]
	 Correlation Energy        =      -1.6408425951280785 [Eh]
	 Total Energy              =   -1032.1572202151933197 [Eh]

	 ================> DF-SCS-MP2 Energies <==================
	-----------------------------------------------------------
	 SCS Same-Spin Scale       =       0.3333333333333333 [-]
	 SCS Opposite-Spin Scale   =       1.2000000000000000 [-]
	 SCS Same-Spin Energy      =      -0.1235161448102264 [Eh]
	 SCS Opposite-Spin Energy  =      -1.5243529928368791 [Eh]
	 SCS Correlation Energy    =      -1.6478691376471055 [Eh]
	 SCS Total Energy          =   -1032.1642467577123625 [Eh]
	-----------------------------------------------------------

  Dipole Moment: [D]
     X:     0.1373      Y:     1.7878      Z:    -0.8619     Total:     1.9895

*** Psi4 exiting successfully. Buy a developer a beer!
