                               Psi4 1.4a3.dev225

  ==> Input File <==

--------------------------------------------------------------------------
#psi4
#
memory 32 gb

molecule  {
0 1
  S       -0.2843280    -1.0417270    -0.4821980
  S       -1.2930110    -0.0875030     1.0369290
  C        2.1238360     0.2887940     0.2038120
  C        1.0396170     0.1533370    -0.8629480
  C        2.9192610    -1.0021330     0.3722660
  C        3.0446920     1.4546940    -0.1566970
  C       -2.4716130     0.9595520     0.1214340
  C       -3.5526440     0.1784480    -0.6085900
  H        1.6262820     0.5245100     1.1534320
  H        0.5779620     1.1249640    -1.0704080
  H        1.4790150    -0.2072190    -1.8028130
  H        3.4447910    -1.2503440    -0.5572920
  H        3.6834235    -0.8629825     1.1431076
  H        2.2689210    -1.8409590     0.6321870
  H        3.5445550     1.2705440    -1.1143240
  H        3.8190690     1.5865110     0.6053070
  H        2.4877540     2.3935860    -0.2389230
  H       -2.9081880     1.6071800     0.8902120
  H       -1.9135990     1.6021400    -0.5664420
  H       -3.1113200    -0.4862750    -1.3548320
  H       -4.1326660    -0.4262330     0.0924510
  H       -4.2326140     0.8656560    -1.1221410
units angstrom
no_reorient  #important for SAPT in psi4, default
symmetry c1  #important for SAPT in psi4, default
}

set PROPERTIES_ORIGIN ["COM"]
properties('MP2/aug-cc-pvtz', properties = ['dipole'])
--------------------------------------------------------------------------

    Molecular point group: c1
  Charge       = 0
  Multiplicity = 1
  Basis Set: AUG-CC-PVTZ
    Blend: AUG-CC-PVTZ
  Basis Set: (AUG-CC-PVTZ AUX)
    Blend: AUG-CC-PVTZ-JKFIT

    Orbital Energies [Eh]
    ---------------------

    Doubly Occupied:

       1A    -91.967516     2A    -91.967011     3A    -11.262111
       4A    -11.257409     5A    -11.230729     6A    -11.221292
       7A    -11.216924     8A    -11.210149     9A     -8.966359
      10A     -8.965781    11A     -6.647465    12A     -6.646834
      13A     -6.646191    14A     -6.645645    15A     -6.645370
      16A     -6.644846    17A     -1.110709    18A     -1.076601
      19A     -1.011802    20A     -0.935125    21A     -0.931006
      22A     -0.860962    23A     -0.793508    24A     -0.751842
      25A     -0.642863    26A     -0.629590    27A     -0.606296
      28A     -0.592085    29A     -0.585742    30A     -0.551364
      31A     -0.541056    32A     -0.533860    33A     -0.514124
      34A     -0.509120    35A     -0.492614    36A     -0.474853
      37A     -0.471505    38A     -0.452783    39A     -0.428748
      40A     -0.352912    41A     -0.344092

  @DF-RHF Final Energy: -1030.54793198825018

   => Energetics <=

    Nuclear Repulsion Energy =            555.7445993286021348
    One-Electron Energy =               -2521.9114682935469318
    Two-Electron Energy =                 935.6189369766946129
    Total Energy =                      -1030.5479319882501841
  Basis Set: (AUG-CC-PVTZ AUX)
    Blend: AUG-CC-PVTZ-RI
    Molecular point group: c1

    Geometry (in Angstrom), charge = 0, multiplicity = 1:

       Center              X                  Y                   Z               Mass
    ------------   -----------------  -----------------  -----------------  -----------------
         S           -0.240958758648    -1.003312328590    -0.503729226284    31.972071174400
         S           -1.249641758648    -0.049088328590     1.015397773716    31.972071174400
         C            2.167205241352     0.327208671410     0.182280773716    12.000000000000
         C            1.082986241352     0.191751671410    -0.884479226284    12.000000000000
         C            2.962630241352    -0.963718328590     0.350734773716    12.000000000000
         C            3.088061241352     1.493108671410    -0.178228226284    12.000000000000
         C           -2.428243758648     0.997966671410     0.099902773716    12.000000000000
         C           -3.509274758648     0.216862671410    -0.630121226284    12.000000000000
         H            1.669651241352     0.562924671410     1.131900773716     1.007825032230
         H            0.621331241352     1.163378671410    -1.091939226284     1.007825032230
         H            1.522384241352    -0.168804328590    -1.824344226284     1.007825032230
         H            3.488160241352    -1.211929328590    -0.578823226284     1.007825032230
         H            3.726792741352    -0.824567828590     1.121576373716     1.007825032230
         H            2.312290241352    -1.802544328590     0.610655773716     1.007825032230
         H            3.587924241352     1.308958671410    -1.135855226284     1.007825032230
         H            3.862438241352     1.624925671410     0.583775773716     1.007825032230
         H            2.531123241352     2.432000671410    -0.260454226284     1.007825032230
         H           -2.864818758648     1.645594671410     0.868680773716     1.007825032230
         H           -1.870229758648     1.640554671410    -0.587973226284     1.007825032230
         H           -3.067950758648    -0.447860328590    -1.376363226284     1.007825032230
         H           -4.089296758648    -0.387818328590     0.070919773716     1.007825032230
         H           -4.189244758648     0.904070671410    -1.143672226284     1.007825032230

  Basis Set: AUG-CC-PVTZ
    Blend: AUG-CC-PVTZ
  Basis Set: (AUG-CC-PVTZ AUX)
    Blend: AUG-CC-PVTZ-JKFIT
	 Reference Energy          =   -1030.5479319882501841 [Eh]
	 Singles Energy            =      -0.0000000000000000 [Eh]
	 Same-Spin Energy          =      -0.3701210332595578 [Eh]
	 Opposite-Spin Energy      =      -1.2689337698971324 [Eh]
	 Correlation Energy        =      -1.6390548031566901 [Eh]
	 Total Energy              =   -1032.1869867914069800 [Eh]

	 ================> DF-SCS-MP2 Energies <==================
	-----------------------------------------------------------
	 SCS Same-Spin Scale       =       0.3333333333333333 [-]
	 SCS Opposite-Spin Scale   =       1.2000000000000000 [-]
	 SCS Same-Spin Energy      =      -0.1233736777531859 [Eh]
	 SCS Opposite-Spin Energy  =      -1.5227205238765589 [Eh]
	 SCS Correlation Energy    =      -1.6460942016297448 [Eh]
	 SCS Total Energy          =   -1032.1940261898798781 [Eh]
	-----------------------------------------------------------

  Dipole Moment: [D]
     X:     0.1187      Y:     1.7772      Z:    -0.8711     Total:     1.9828

*** Psi4 exiting successfully. Buy a developer a beer!
