                               Psi4 1.4a3.dev225

  ==> Input File <==

--------------------------------------------------------------------------
#psi4
#
memory 32 gb

molecule  {
0 1
  S       -0.2843280    -1.0417270    -0.4821980
  S       -1.2930110    -0.0875030     1.0369290
  C        2.1238360     0.2887940     0.2038120
  C        1.0396170     0.1533370    -0.8629480
  C        3.0235354    -1.1713641     0.3943491
  C        3.0446920     1.4546940    -0.1566970
  C       -2.4716130     0.9595520     0.1214340
  C       -3.5526440     0.1784480    -0.6085900
  H        1.6262820     0.5245100     1.1534320
  H        0.5779620     1.1249640    -1.0704080
  H        1.4790150    -0.2072190    -1.8028130
  H        3.4447910    -1.2503440    -0.5572920
  H        3.6685600    -0.8925200     1.1622280
  H        2.2689210    -1.8409590     0.6321870
  H        3.5445550     1.2705440    -1.1143240
  H        3.8190690     1.5865110     0.6053070
  H        2.4877540     2.3935860    -0.2389230
  H       -2.9081880     1.6071800     0.8902120
  H       -1.9135990     1.6021400    -0.5664420
  H       -3.1113200    -0.4862750    -1.3548320
  H       -4.1326660    -0.4262330     0.0924510
  H       -4.2326140     0.8656560    -1.1221410
units angstrom
no_reorient  #important for SAPT in psi4, default
symmetry c1  #important for SAPT in psi4, default
}

set PROPERTIES_ORIGIN ["COM"]
properties('MP2/aug-cc-pvtz', properties = ['dipole'])
--------------------------------------------------------------------------

    Molecular point group: c1
  Charge       = 0
  Multiplicity = 1
  Basis Set: AUG-CC-PVTZ
    Blend: AUG-CC-PVTZ
  Basis Set: (AUG-CC-PVTZ AUX)
    Blend: AUG-CC-PVTZ-JKFIT

    Orbital Energies [Eh]
    ---------------------

    Doubly Occupied:

       1A    -91.967550     2A    -91.967141     3A    -11.262150
       4A    -11.257885     5A    -11.238078     6A    -11.221316
       7A    -11.217185     8A    -11.207510     9A     -8.966395
      10A     -8.965903    11A     -6.647507    12A     -6.646952
      13A     -6.646226    14A     -6.645776    15A     -6.645403
      16A     -6.644975    17A     -1.102682    18A     -1.070069
      19A     -1.007526    20A     -0.936361    21A     -0.932787
      22A     -0.861336    23A     -0.793580    24A     -0.749997
      25A     -0.639001    26A     -0.628023    27A     -0.606831
      28A     -0.594023    29A     -0.584951    30A     -0.559951
      31A     -0.549510    32A     -0.540731    33A     -0.530807
      34A     -0.512040    35A     -0.494718    36A     -0.478076
      37A     -0.455342    38A     -0.433643    39A     -0.414540
      40A     -0.352667    41A     -0.344156

  @DF-RHF Final Energy: -1030.52169520572420

   => Energetics <=

    Nuclear Repulsion Energy =            552.3915987548716657
    One-Electron Energy =               -2515.1839847794494744
    Two-Electron Energy =                 932.2706908188536090
    Total Energy =                      -1030.5216952057241997
  Basis Set: (AUG-CC-PVTZ AUX)
    Blend: AUG-CC-PVTZ-RI
    Molecular point group: c1

    Geometry (in Angstrom), charge = 0, multiplicity = 1:

       Center              X                  Y                   Z               Mass
    ------------   -----------------  -----------------  -----------------  -----------------
         S           -0.249197896050    -0.989580298451    -0.505623662952    31.972071174400
         S           -1.257880896050    -0.035356298451     1.013503337048    31.972071174400
         C            2.158966103950     0.340940701549     0.180386337048    12.000000000000
         C            1.074747103950     0.205483701549    -0.886373662952    12.000000000000
         C            3.058665503950    -1.119217398451     0.370923437048    12.000000000000
         C            3.079822103950     1.506840701549    -0.180122662952    12.000000000000
         C           -2.436482896050     1.011698701549     0.098008337048    12.000000000000
         C           -3.517513896050     0.230594701549    -0.632015662952    12.000000000000
         H            1.661412103950     0.576656701549     1.130006337048     1.007825032230
         H            0.613092103950     1.177110701549    -1.093833662952     1.007825032230
         H            1.514145103950    -0.155072298451    -1.826238662952     1.007825032230
         H            3.479921103950    -1.198197298451    -0.580717662952     1.007825032230
         H            3.703690103950    -0.840373298451     1.138802337048     1.007825032230
         H            2.304051103950    -1.788812298451     0.608761337048     1.007825032230
         H            3.579685103950     1.322690701549    -1.137749662952     1.007825032230
         H            3.854199103950     1.638657701549     0.581881337048     1.007825032230
         H            2.522884103950     2.445732701549    -0.262348662952     1.007825032230
         H           -2.873057896050     1.659326701549     0.866786337048     1.007825032230
         H           -1.878468896050     1.654286701549    -0.589867662952     1.007825032230
         H           -3.076189896050    -0.434128298451    -1.378257662952     1.007825032230
         H           -4.097535896050    -0.374086298451     0.069025337048     1.007825032230
         H           -4.197483896050     0.917802701549    -1.145566662952     1.007825032230

  Basis Set: AUG-CC-PVTZ
    Blend: AUG-CC-PVTZ
  Basis Set: (AUG-CC-PVTZ AUX)
    Blend: AUG-CC-PVTZ-JKFIT
	 Reference Energy          =   -1030.5216952057241997 [Eh]
	 Singles Energy            =      -0.0000000000000000 [Eh]
	 Same-Spin Energy          =      -0.3699586731155311 [Eh]
	 Opposite-Spin Energy      =      -1.2700428195734637 [Eh]
	 Correlation Energy        =      -1.6400014926889948 [Eh]
	 Total Energy              =   -1032.1616966984131523 [Eh]

	 ================> DF-SCS-MP2 Energies <==================
	-----------------------------------------------------------
	 SCS Same-Spin Scale       =       0.3333333333333333 [-]
	 SCS Opposite-Spin Scale   =       1.2000000000000000 [-]
	 SCS Same-Spin Energy      =      -0.1233195577051770 [Eh]
	 SCS Opposite-Spin Energy  =      -1.5240513834881564 [Eh]
	 SCS Correlation Energy    =      -1.6473709411933335 [Eh]
	 SCS Total Energy          =   -1032.1690661469174302 [Eh]
	-----------------------------------------------------------

  Dipole Moment: [D]
     X:     0.0715      Y:     1.8632      Z:    -0.8916     Total:     2.0668

*** Psi4 exiting successfully. Buy a developer a beer!
