                               Psi4 1.4a3.dev225

  ==> Input File <==

--------------------------------------------------------------------------
#psi4
#
memory 32 gb

molecule  {
0 1
  S       -0.2843280    -1.0417270    -0.4821980
  S       -1.2930110    -0.0875030     1.0369290
  C        2.1238360     0.2887940     0.2038120
  C        1.0396170     0.1533370    -0.8629480
  C        2.9192610    -1.0021330     0.3722660
  C        3.0446920     1.4546940    -0.1566970
  C       -2.4716130     0.9595520     0.1214340
  C       -3.5526440     0.1784480    -0.6085900
  H        1.6262820     0.5245100     1.1534320
  H        0.5779620     1.1249640    -1.0704080
  H        1.4790150    -0.2072190    -1.8028130
  H        3.4447910    -1.2503440    -0.5572920
  H        3.6685600    -0.8925200     1.1622280
  H        2.2689210    -1.8409590     0.6321870
  H        3.5445550     1.2705440    -1.1143240
  H        3.8190690     1.5865110     0.6053070
  H        2.4877540     2.3935860    -0.2389230
  H       -2.9081880     1.6071800     0.8902120
  H       -1.9135990     1.6021400    -0.5664420
  H       -3.1113200    -0.4862750    -1.3548320
  H       -4.1220476    -0.4151632     0.0796171
  H       -4.2326140     0.8656560    -1.1221410
units angstrom
no_reorient  #important for SAPT in psi4, default
symmetry c1  #important for SAPT in psi4, default
}

set PROPERTIES_ORIGIN ["COM"]
properties('MP2/aug-cc-pvtz', properties = ['dipole'])
--------------------------------------------------------------------------

    Molecular point group: c1
  Charge       = 0
  Multiplicity = 1
  Basis Set: AUG-CC-PVTZ
    Blend: AUG-CC-PVTZ
  Basis Set: (AUG-CC-PVTZ AUX)
    Blend: AUG-CC-PVTZ-JKFIT

    Orbital Energies [Eh]
    ---------------------

    Doubly Occupied:

       1A    -91.967463     2A    -91.966925     3A    -11.261904
       4A    -11.257520     5A    -11.230905     6A    -11.218833
       7A    -11.216806     8A    -11.210054     9A     -8.966305
      10A     -8.965696    11A     -6.647411    12A     -6.646751
      13A     -6.646138    14A     -6.645558    15A     -6.645319
      16A     -6.644759    17A     -1.110653    18A     -1.076743
      19A     -1.012045    20A     -0.935640    21A     -0.931110
      22A     -0.861653    23A     -0.793816    24A     -0.752042
      25A     -0.643628    26A     -0.630592    27A     -0.604982
      28A     -0.591509    29A     -0.585798    30A     -0.551768
      31A     -0.541433    32A     -0.534915    33A     -0.515630
      34A     -0.508274    35A     -0.492655    36A     -0.475392
      37A     -0.471690    38A     -0.452591    39A     -0.428665
      40A     -0.352834    41A     -0.344056

  @DF-RHF Final Energy: -1030.54809845401405

   => Energetics <=

    Nuclear Repulsion Energy =            555.8119728816121778
    One-Electron Energy =               -2522.0432209333403080
    Two-Electron Energy =                 935.6831495977138502
    Total Energy =                      -1030.5480984540140525
  Basis Set: (AUG-CC-PVTZ AUX)
    Blend: AUG-CC-PVTZ-RI
    Molecular point group: c1

    Geometry (in Angstrom), charge = 0, multiplicity = 1:

       Center              X                  Y                   Z               Mass
    ------------   -----------------  -----------------  -----------------  -----------------
         S           -0.240930246733    -1.003188291587    -0.503771449118    31.972071174400
         S           -1.249613246733    -0.048964291587     1.015355550882    31.972071174400
         C            2.167233753267     0.327332708413     0.182238550882    12.000000000000
         C            1.083014753267     0.191875708413    -0.884521449118    12.000000000000
         C            2.962658753267    -0.963594291587     0.350692550882    12.000000000000
         C            3.088089753267     1.493232708413    -0.178270449118    12.000000000000
         C           -2.428215246733     0.998090708413     0.099860550882    12.000000000000
         C           -3.509246246733     0.216986708413    -0.630163449118    12.000000000000
         H            1.669679753267     0.563048708413     1.131858550882     1.007825032230
         H            0.621359753267     1.163502708413    -1.091981449118     1.007825032230
         H            1.522412753267    -0.168680291587    -1.824386449118     1.007825032230
         H            3.488188753267    -1.211805291587    -0.578865449118     1.007825032230
         H            3.711957753267    -0.853981291587     1.140654550882     1.007825032230
         H            2.312318753267    -1.802420291587     0.610613550882     1.007825032230
         H            3.587952753267     1.309082708413    -1.135897449118     1.007825032230
         H            3.862466753267     1.625049708413     0.583733550882     1.007825032230
         H            2.531151753267     2.432124708413    -0.260496449118     1.007825032230
         H           -2.864790246733     1.645718708413     0.868638550882     1.007825032230
         H           -1.870201246733     1.640678708413    -0.588015449118     1.007825032230
         H           -3.067922246733    -0.447736291587    -1.376405449118     1.007825032230
         H           -4.078649846733    -0.376624491587     0.058043650882     1.007825032230
         H           -4.189216246733     0.904194708413    -1.143714449118     1.007825032230

  Basis Set: AUG-CC-PVTZ
    Blend: AUG-CC-PVTZ
  Basis Set: (AUG-CC-PVTZ AUX)
    Blend: AUG-CC-PVTZ-JKFIT
	 Reference Energy          =   -1030.5480984540140525 [Eh]
	 Singles Energy            =      -0.0000000000000000 [Eh]
	 Same-Spin Energy          =      -0.3701070434652678 [Eh]
	 Opposite-Spin Energy      =      -1.2687834104128839 [Eh]
	 Correlation Energy        =      -1.6388904538781517 [Eh]
	 Total Energy              =   -1032.1869889078921005 [Eh]

	 ================> DF-SCS-MP2 Energies <==================
	-----------------------------------------------------------
	 SCS Same-Spin Scale       =       0.3333333333333333 [-]
	 SCS Opposite-Spin Scale   =       1.2000000000000000 [-]
	 SCS Same-Spin Energy      =      -0.1233690144884226 [Eh]
	 SCS Opposite-Spin Energy  =      -1.5225400924954606 [Eh]
	 SCS Correlation Energy    =      -1.6459091069838832 [Eh]
	 SCS Total Energy          =   -1032.1940075609979885 [Eh]
	-----------------------------------------------------------

  Dipole Moment: [D]
     X:     0.1089      Y:     1.7629      Z:    -0.8586     Total:     1.9639

*** Psi4 exiting successfully. Buy a developer a beer!
