                               Psi4 1.4a3.dev225

  ==> Input File <==

--------------------------------------------------------------------------
#psi4
#
memory 32 gb

molecule  {
0 1
  S       -0.2843280    -1.0417270    -0.4821980
  S       -1.2930110    -0.0875030     1.0369290
  C        2.1238360     0.2887940     0.2038120
  C        1.0717614     0.0527643    -0.8775230
  C        2.9192610    -1.0021330     0.3722660
  C        3.0446920     1.4546940    -0.1566970
  C       -2.4716130     0.9595520     0.1214340
  C       -3.5526440     0.1784480    -0.6085900
  H        1.6262820     0.5245100     1.1534320
  H        0.5779620     1.1249640    -1.0704080
  H        1.4790150    -0.2072190    -1.8028130
  H        3.4447910    -1.2503440    -0.5572920
  H        3.6685600    -0.8925200     1.1622280
  H        2.2689210    -1.8409590     0.6321870
  H        3.5445550     1.2705440    -1.1143240
  H        3.8190690     1.5865110     0.6053070
  H        2.4877540     2.3935860    -0.2389230
  H       -2.9081880     1.6071800     0.8902120
  H       -1.9135990     1.6021400    -0.5664420
  H       -3.1113200    -0.4862750    -1.3548320
  H       -4.1326660    -0.4262330     0.0924510
  H       -4.2326140     0.8656560    -1.1221410
units angstrom
no_reorient  #important for SAPT in psi4, default
symmetry c1  #important for SAPT in psi4, default
}

set PROPERTIES_ORIGIN ["COM"]
properties('MP2/aug-cc-pvtz', properties = ['dipole'])
--------------------------------------------------------------------------

    Molecular point group: c1
  Charge       = 0
  Multiplicity = 1
  Basis Set: AUG-CC-PVTZ
    Blend: AUG-CC-PVTZ
  Basis Set: (AUG-CC-PVTZ AUX)
    Blend: AUG-CC-PVTZ-JKFIT

    Orbital Energies [Eh]
    ---------------------

    Doubly Occupied:

       1A    -91.969645     2A    -91.967330     3A    -11.262615
       4A    -11.258962     5A    -11.231157     6A    -11.221769
       7A    -11.217350     8A    -11.208495     9A     -8.968390
      10A     -8.966536    11A     -6.649463    12A     -6.648219
      13A     -6.647630    14A     -6.647393    15A     -6.646528
      16A     -6.645641    17A     -1.112934    18A     -1.077256
      19A     -1.014713    20A     -0.936926    21A     -0.930125
      22A     -0.860424    23A     -0.795774    24A     -0.753653
      25A     -0.634177    26A     -0.630646    27A     -0.608470
      28A     -0.590550    29A     -0.584270    30A     -0.558075
      31A     -0.541285    32A     -0.535271    33A     -0.516262
      34A     -0.503853    35A     -0.492374    36A     -0.476894
      37A     -0.469095    38A     -0.455640    39A     -0.424547
      40A     -0.352136    41A     -0.344617

  @DF-RHF Final Energy: -1030.53672777209295

   => Energetics <=

    Nuclear Repulsion Energy =            556.0068449105818900
    One-Electron Energy =               -2522.3729709062922666
    Two-Electron Energy =                 935.8293982236174315
    Total Energy =                      -1030.5367277720929451
  Basis Set: (AUG-CC-PVTZ AUX)
    Blend: AUG-CC-PVTZ-RI
    Molecular point group: c1

    Geometry (in Angstrom), charge = 0, multiplicity = 1:

       Center              X                  Y                   Z               Mass
    ------------   -----------------  -----------------  -----------------  -----------------
         S           -0.243429560837    -0.995071005042    -0.502692064323    31.972071174400
         S           -1.252112560837    -0.040847005042     1.016434935677    31.972071174400
         C            2.164734439163     0.335449994958     0.183317935677    12.000000000000
         C            1.112659839163     0.099420294958    -0.898017064323    12.000000000000
         C            2.960159439163    -0.955477005042     0.351771935677    12.000000000000
         C            3.085590439163     1.501349994958    -0.177191064323    12.000000000000
         C           -2.430714560837     1.006207994958     0.100939935677    12.000000000000
         C           -3.511745560837     0.225103994958    -0.629084064323    12.000000000000
         H            1.667180439163     0.571165994958     1.132937935677     1.007825032230
         H            0.618860439163     1.171619994958    -1.090902064323     1.007825032230
         H            1.519913439163    -0.160563005042    -1.823307064323     1.007825032230
         H            3.485689439163    -1.203688005042    -0.577786064323     1.007825032230
         H            3.709458439163    -0.845864005042     1.141733935677     1.007825032230
         H            2.309819439163    -1.794303005042     0.611692935677     1.007825032230
         H            3.585453439163     1.317199994958    -1.134818064323     1.007825032230
         H            3.859967439163     1.633166994958     0.584812935677     1.007825032230
         H            2.528652439163     2.440241994958    -0.259417064323     1.007825032230
         H           -2.867289560837     1.653835994958     0.869717935677     1.007825032230
         H           -1.872700560837     1.648795994958    -0.586936064323     1.007825032230
         H           -3.070421560837    -0.439619005042    -1.375326064323     1.007825032230
         H           -4.091767560837    -0.379577005042     0.071956935677     1.007825032230
         H           -4.191715560837     0.912311994958    -1.142635064323     1.007825032230

  Basis Set: AUG-CC-PVTZ
    Blend: AUG-CC-PVTZ
  Basis Set: (AUG-CC-PVTZ AUX)
    Blend: AUG-CC-PVTZ-JKFIT
	 Reference Energy          =   -1030.5367277720929451 [Eh]
	 Singles Energy            =      -0.0000000000000000 [Eh]
	 Same-Spin Energy          =      -0.3704908005136495 [Eh]
	 Opposite-Spin Energy      =      -1.2695914649515139 [Eh]
	 Correlation Energy        =      -1.6400822654651634 [Eh]
	 Total Energy              =   -1032.1768100375581980 [Eh]

	 ================> DF-SCS-MP2 Energies <==================
	-----------------------------------------------------------
	 SCS Same-Spin Scale       =       0.3333333333333333 [-]
	 SCS Opposite-Spin Scale   =       1.2000000000000000 [-]
	 SCS Same-Spin Energy      =      -0.1234969335045498 [Eh]
	 SCS Opposite-Spin Energy  =      -1.5235097579418166 [Eh]
	 SCS Correlation Energy    =      -1.6470066914463666 [Eh]
	 SCS Total Energy          =   -1032.1837344635393947 [Eh]
	-----------------------------------------------------------

  Dipole Moment: [D]
     X:     0.0685      Y:     1.7624      Z:    -0.8411     Total:     1.9541

*** Psi4 exiting successfully. Buy a developer a beer!
