                               Psi4 1.4a3.dev225

  ==> Input File <==

--------------------------------------------------------------------------
#psi4
#
memory 32 gb

molecule  {
0 1
  S       -0.2843280    -1.0417270    -0.4821980
  S       -1.2930110    -0.0875030     1.0369290
  C        2.1238360     0.2887940     0.2038120
  C        1.0396170     0.1533370    -0.8629480
  C        2.9192610    -1.0021330     0.3722660
  C        3.0446920     1.4546940    -0.1566970
  C       -2.4716130     0.9595520     0.1214340
  C       -3.5526440     0.1784480    -0.6085900
  H        1.6262820     0.5245100     1.1534320
  H        0.5779620     1.1249640    -1.0704080
  H        1.4790150    -0.2072190    -1.8028130
  H        3.4447910    -1.2503440    -0.5572920
  H        3.6685600    -0.8925200     1.1622280
  H        2.2689210    -1.8409590     0.6321870
  H        3.5445550     1.2705440    -1.1143240
  H        3.8190690     1.5865110     0.6053070
  H        2.4877540     2.3935860    -0.2389230
  H       -2.9281062     1.6367272     0.9252866
  H       -1.9135990     1.6021400    -0.5664420
  H       -3.1113200    -0.4862750    -1.3548320
  H       -4.1326660    -0.4262330     0.0924510
  H       -4.2326140     0.8656560    -1.1221410
units angstrom
no_reorient  #important for SAPT in psi4, default
symmetry c1  #important for SAPT in psi4, default
}

set PROPERTIES_ORIGIN ["COM"]
properties('MP2/aug-cc-pvtz', properties = ['dipole'])
--------------------------------------------------------------------------

    Molecular point group: c1
  Charge       = 0
  Multiplicity = 1
  Basis Set: AUG-CC-PVTZ
    Blend: AUG-CC-PVTZ
  Basis Set: (AUG-CC-PVTZ AUX)
    Blend: AUG-CC-PVTZ-JKFIT

    Orbital Energies [Eh]
    ---------------------

    Doubly Occupied:

       1A    -91.967905     2A    -91.967156     3A    -11.267845
       4A    -11.257690     5A    -11.231026     6A    -11.221735
       7A    -11.216895     8A    -11.210169     9A     -8.966697
      10A     -8.965934    11A     -6.647787    12A     -6.646996
      13A     -6.646523    14A     -6.645794    15A     -6.645701
      16A     -6.644995    17A     -1.110629    18A     -1.075338
      19A     -1.011154    20A     -0.935292    21A     -0.931197
      22A     -0.858909    23A     -0.792122    24A     -0.751114
      25A     -0.643126    26A     -0.626464    27A     -0.605058
      28A     -0.590880    29A     -0.585867    30A     -0.551571
      31A     -0.540998    32A     -0.534861    33A     -0.513447
      34A     -0.506527    35A     -0.491854    36A     -0.474913
      37A     -0.471832    38A     -0.452861    39A     -0.428151
      40A     -0.353073    41A     -0.344327

  @DF-RHF Final Energy: -1030.54594958951930

   => Energetics <=

    Nuclear Repulsion Energy =            555.4639178210256887
    One-Electron Energy =               -2521.3549093661458755
    Two-Electron Energy =                 935.3450419556007773
    Total Energy =                      -1030.5459495895192958
  Basis Set: (AUG-CC-PVTZ AUX)
    Blend: AUG-CC-PVTZ-RI
    Molecular point group: c1

    Geometry (in Angstrom), charge = 0, multiplicity = 1:

       Center              X                  Y                   Z               Mass
    ------------   -----------------  -----------------  -----------------  -----------------
         S           -0.240725149816    -1.003312393739    -0.504093223175    31.972071174400
         S           -1.249408149816    -0.049088393739     1.015033776825    31.972071174400
         C            2.167438850184     0.327208606261     0.181916776825    12.000000000000
         C            1.083219850184     0.191751606261    -0.884843223175    12.000000000000
         C            2.962863850184    -0.963718393739     0.350370776825    12.000000000000
         C            3.088294850184     1.493108606261    -0.178592223175    12.000000000000
         C           -2.428010149816     0.997966606261     0.099538776825    12.000000000000
         C           -3.509041149816     0.216862606261    -0.630485223175    12.000000000000
         H            1.669884850184     0.562924606261     1.131536776825     1.007825032230
         H            0.621564850184     1.163378606261    -1.092303223175     1.007825032230
         H            1.522617850184    -0.168804393739    -1.824708223175     1.007825032230
         H            3.488393850184    -1.211929393739    -0.579187223175     1.007825032230
         H            3.712162850184    -0.854105393739     1.140332776825     1.007825032230
         H            2.312523850184    -1.802544393739     0.610291776825     1.007825032230
         H            3.588157850184     1.308958606261    -1.136219223175     1.007825032230
         H            3.862671850184     1.624925606261     0.583411776825     1.007825032230
         H            2.531356850184     2.432000606261    -0.260818223175     1.007825032230
         H           -2.884503349816     1.675141806261     0.903391376825     1.007825032230
         H           -1.869996149816     1.640554606261    -0.588337223175     1.007825032230
         H           -3.067717149816    -0.447860393739    -1.376727223175     1.007825032230
         H           -4.089063149816    -0.387818393739     0.070555776825     1.007825032230
         H           -4.189011149816     0.904070606261    -1.144036223175     1.007825032230

  Basis Set: AUG-CC-PVTZ
    Blend: AUG-CC-PVTZ
  Basis Set: (AUG-CC-PVTZ AUX)
    Blend: AUG-CC-PVTZ-JKFIT
	 Reference Energy          =   -1030.5459495895192958 [Eh]
	 Singles Energy            =      -0.0000000000000000 [Eh]
	 Same-Spin Energy          =      -0.3701603006399408 [Eh]
	 Opposite-Spin Energy      =      -1.2692608385935409 [Eh]
	 Correlation Energy        =      -1.6394211392334817 [Eh]
	 Total Energy              =   -1032.1853707287527868 [Eh]

	 ================> DF-SCS-MP2 Energies <==================
	-----------------------------------------------------------
	 SCS Same-Spin Scale       =       0.3333333333333333 [-]
	 SCS Opposite-Spin Scale   =       1.2000000000000000 [-]
	 SCS Same-Spin Energy      =      -0.1233867668799803 [Eh]
	 SCS Opposite-Spin Energy  =      -1.5231130063122491 [Eh]
	 SCS Correlation Energy    =      -1.6464997731922293 [Eh]
	 SCS Total Energy          =   -1032.1924493627116135 [Eh]
	-----------------------------------------------------------

  Dipole Moment: [D]
     X:     0.1257      Y:     1.7490      Z:    -0.8752     Total:     1.9598

*** Psi4 exiting successfully. Buy a developer a beer!
