                               Psi4 1.4a3.dev225

  ==> Input File <==

--------------------------------------------------------------------------
#psi4
#
memory 32 gb

molecule  {
0 1
  S       -0.2843280    -1.0417270    -0.4821980
  S       -1.2930110    -0.0875030     1.0369290
  C        2.1238360     0.2887940     0.2038120
  C        1.0396170     0.1533370    -0.8629480
  C        2.9192610    -1.0021330     0.3722660
  C        3.0446920     1.4546940    -0.1566970
  C       -2.4716130     0.9595520     0.1214340
  C       -3.5213059     0.2259860    -0.6981465
  H        1.6262820     0.5245100     1.1534320
  H        0.5779620     1.1249640    -1.0704080
  H        1.4790150    -0.2072190    -1.8028130
  H        3.4447910    -1.2503440    -0.5572920
  H        3.6685600    -0.8925200     1.1622280
  H        2.2689210    -1.8409590     0.6321870
  H        3.5445550     1.2705440    -1.1143240
  H        3.8190690     1.5865110     0.6053070
  H        2.4877540     2.3935860    -0.2389230
  H       -2.9081880     1.6071800     0.8902120
  H       -1.9135990     1.6021400    -0.5664420
  H       -3.1113200    -0.4862750    -1.3548320
  H       -4.1326660    -0.4262330     0.0924510
  H       -4.2326140     0.8656560    -1.1221410
units angstrom
no_reorient  #important for SAPT in psi4, default
symmetry c1  #important for SAPT in psi4, default
}

set PROPERTIES_ORIGIN ["COM"]
properties('MP2/aug-cc-pvtz', properties = ['dipole'])
--------------------------------------------------------------------------

    Molecular point group: c1
  Charge       = 0
  Multiplicity = 1
  Basis Set: AUG-CC-PVTZ
    Blend: AUG-CC-PVTZ
  Basis Set: (AUG-CC-PVTZ AUX)
    Blend: AUG-CC-PVTZ-JKFIT

    Orbital Energies [Eh]
    ---------------------

    Doubly Occupied:

       1A    -91.969141     2A    -91.967687     3A    -11.262231
       4A    -11.257927     5A    -11.231331     6A    -11.222719
       7A    -11.217086     8A    -11.210380     9A     -8.967824
      10A     -8.966473    11A     -6.648914    12A     -6.647702
      13A     -6.647502    14A     -6.646836    15A     -6.646323
      16A     -6.645526    17A     -1.111039    18A     -1.076521
      19A     -1.012385    20A     -0.936624    21A     -0.931432
      22A     -0.861993    23A     -0.793770    24A     -0.752104
      25A     -0.643377    26A     -0.628947    27A     -0.607469
      28A     -0.601133    29A     -0.586288    30A     -0.551022
      31A     -0.547033    32A     -0.535800    33A     -0.510179
      34A     -0.500873    35A     -0.481685    36A     -0.476733
      37A     -0.471982    38A     -0.455294    39A     -0.428931
      40A     -0.352891    41A     -0.345649

  @DF-RHF Final Energy: -1030.53709102129937

   => Energetics <=

    Nuclear Repulsion Energy =            555.6434543995729882
    One-Electron Energy =               -2521.6475758914989456
    Two-Electron Energy =                 935.4670304706266961
    Total Energy =                      -1030.5370910212993749
  Basis Set: (AUG-CC-PVTZ AUX)
    Blend: AUG-CC-PVTZ-RI
    Molecular point group: c1

    Geometry (in Angstrom), charge = 0, multiplicity = 1:

       Center              X                  Y                   Z               Mass
    ------------   -----------------  -----------------  -----------------  -----------------
         S           -0.243365079918    -1.006915621238    -0.496695690737    31.972071174400
         S           -1.252048079918    -0.052691621238     1.022431309263    31.972071174400
         C            2.164798920082     0.323605378762     0.189314309263    12.000000000000
         C            1.080579920082     0.188148378762    -0.877445690737    12.000000000000
         C            2.960223920082    -0.967321621238     0.357768309263    12.000000000000
         C            3.085654920082     1.489505378762    -0.171194690737    12.000000000000
         C           -2.430650079918     0.994363378762     0.106936309263    12.000000000000
         C           -3.480342979918     0.260797378762    -0.712644190737    12.000000000000
         H            1.667244920082     0.559321378762     1.138934309263     1.007825032230
         H            0.618924920082     1.159775378762    -1.084905690737     1.007825032230
         H            1.519977920082    -0.172407621238    -1.817310690737     1.007825032230
         H            3.485753920082    -1.215532621238    -0.571789690737     1.007825032230
         H            3.709522920082    -0.857708621238     1.147730309263     1.007825032230
         H            2.309883920082    -1.806147621238     0.617689309263     1.007825032230
         H            3.585517920082     1.305355378762    -1.128821690737     1.007825032230
         H            3.860031920082     1.621322378762     0.590809309263     1.007825032230
         H            2.528716920082     2.428397378762    -0.253420690737     1.007825032230
         H           -2.867225079918     1.641991378762     0.875714309263     1.007825032230
         H           -1.872636079918     1.636951378762    -0.580939690737     1.007825032230
         H           -3.070357079918    -0.451463621238    -1.369329690737     1.007825032230
         H           -4.091703079918    -0.391421621238     0.077953309263     1.007825032230
         H           -4.191651079918     0.900467378762    -1.136638690737     1.007825032230

  Basis Set: AUG-CC-PVTZ
    Blend: AUG-CC-PVTZ
  Basis Set: (AUG-CC-PVTZ AUX)
    Blend: AUG-CC-PVTZ-JKFIT
	 Reference Energy          =   -1030.5370910212993749 [Eh]
	 Singles Energy            =      -0.0000000000000000 [Eh]
	 Same-Spin Energy          =      -0.3701957203015896 [Eh]
	 Opposite-Spin Energy      =      -1.2694073608338661 [Eh]
	 Correlation Energy        =      -1.6396030811354558 [Eh]
	 Total Energy              =   -1032.1766941024347943 [Eh]

	 ================> DF-SCS-MP2 Energies <==================
	-----------------------------------------------------------
	 SCS Same-Spin Scale       =       0.3333333333333333 [-]
	 SCS Opposite-Spin Scale   =       1.2000000000000000 [-]
	 SCS Same-Spin Energy      =      -0.1233985734338632 [Eh]
	 SCS Opposite-Spin Energy  =      -1.5232888330006393 [Eh]
	 SCS Correlation Energy    =      -1.6466874064345025 [Eh]
	 SCS Total Energy          =   -1032.1837784277338415 [Eh]
	-----------------------------------------------------------

  Dipole Moment: [D]
     X:     0.1901      Y:     1.7896      Z:    -0.8856     Total:     2.0058

*** Psi4 exiting successfully. Buy a developer a beer!
