                               Psi4 1.4a3.dev225

  ==> Input File <==

--------------------------------------------------------------------------
#psi4
#
memory 32 gb

molecule  {
0 1
  S       -0.2843280    -1.0417270    -0.4821980
  S       -1.2930110    -0.0875030     1.0369290
  C        2.1238360     0.2887940     0.2038120
  C        1.0396170     0.1533370    -0.8629480
  C        2.9192610    -1.0021330     0.3722660
  C        3.0446920     1.4546940    -0.1566970
  C       -2.4716130     0.9595520     0.1214340
  C       -3.5526440     0.1784480    -0.6085900
  H        1.6262820     0.5245100     1.1534320
  H        0.5779620     1.1249640    -1.0704080
  H        1.4790150    -0.2072190    -1.8028130
  H        3.4447910    -1.2503440    -0.5572920
  H        3.6822545    -0.8905167     1.1766657
  H        2.2689210    -1.8409590     0.6321870
  H        3.5445550     1.2705440    -1.1143240
  H        3.8190690     1.5865110     0.6053070
  H        2.4877540     2.3935860    -0.2389230
  H       -2.9081880     1.6071800     0.8902120
  H       -1.9135990     1.6021400    -0.5664420
  H       -3.1113200    -0.4862750    -1.3548320
  H       -4.1326660    -0.4262330     0.0924510
  H       -4.2326140     0.8656560    -1.1221410
units angstrom
no_reorient  #important for SAPT in psi4, default
symmetry c1  #important for SAPT in psi4, default
}

set PROPERTIES_ORIGIN ["COM"]
properties('MP2/aug-cc-pvtz', properties = ['dipole'])
--------------------------------------------------------------------------

    Molecular point group: c1
  Charge       = 0
  Multiplicity = 1
  Basis Set: AUG-CC-PVTZ
    Blend: AUG-CC-PVTZ
  Basis Set: (AUG-CC-PVTZ AUX)
    Blend: AUG-CC-PVTZ-JKFIT

    Orbital Energies [Eh]
    ---------------------

    Doubly Occupied:

       1A    -91.967585     2A    -91.967085     3A    -11.262167
       4A    -11.257738     5A    -11.231127     6A    -11.221338
       7A    -11.216830     8A    -11.212551     9A     -8.966426
      10A     -8.965855    11A     -6.647533    12A     -6.646906
      13A     -6.646258    14A     -6.645718    15A     -6.645438
      16A     -6.644918    17A     -1.110695    18A     -1.076536
      19A     -1.011626    20A     -0.934899    21A     -0.930087
      22A     -0.860919    23A     -0.793370    24A     -0.751887
      25A     -0.643014    26A     -0.629796    27A     -0.604528
      28A     -0.591599    29A     -0.585744    30A     -0.551422
      31A     -0.541232    32A     -0.534184    33A     -0.513506
      34A     -0.507297    35A     -0.492100    36A     -0.475552
      37A     -0.471607    38A     -0.452700    39A     -0.428800
      40A     -0.352993    41A     -0.344193

  @DF-RHF Final Energy: -1030.54758628625450

   => Energetics <=

    Nuclear Repulsion Energy =            555.6281313971527425
    One-Electron Energy =               -2521.6799120891209895
    Two-Electron Energy =                 935.5041944057139744
    Total Energy =                      -1030.5475862862545000
  Basis Set: (AUG-CC-PVTZ AUX)
    Blend: AUG-CC-PVTZ-RI
    Molecular point group: c1

    Geometry (in Angstrom), charge = 0, multiplicity = 1:

       Center              X                  Y                   Z               Mass
    ------------   -----------------  -----------------  -----------------  -----------------
         S           -0.240950907142    -1.003127397080    -0.503954616893    31.972071174400
         S           -1.249633907142    -0.048903397080     1.015172383107    31.972071174400
         C            2.167213092858     0.327393602920     0.182055383107    12.000000000000
         C            1.082994092858     0.191936602920    -0.884704616893    12.000000000000
         C            2.962638092858    -0.963533397080     0.350509383107    12.000000000000
         C            3.088069092858     1.493293602920    -0.178453616893    12.000000000000
         C           -2.428235907142     0.998151602920     0.099677383107    12.000000000000
         C           -3.509266907142     0.217047602920    -0.630346616893    12.000000000000
         H            1.669659092858     0.563109602920     1.131675383107     1.007825032230
         H            0.621339092858     1.163563602920    -1.092164616893     1.007825032230
         H            1.522392092858    -0.168619397080    -1.824569616893     1.007825032230
         H            3.488168092858    -1.211744397080    -0.579048616893     1.007825032230
         H            3.725631592858    -0.851917097080     1.154909083107     1.007825032230
         H            2.312298092858    -1.802359397080     0.610430383107     1.007825032230
         H            3.587932092858     1.309143602920    -1.136080616893     1.007825032230
         H            3.862446092858     1.625110602920     0.583550383107     1.007825032230
         H            2.531131092858     2.432185602920    -0.260679616893     1.007825032230
         H           -2.864810907142     1.645779602920     0.868455383107     1.007825032230
         H           -1.870221907142     1.640739602920    -0.588198616893     1.007825032230
         H           -3.067942907142    -0.447675397080    -1.376588616893     1.007825032230
         H           -4.089288907142    -0.387633397080     0.070694383107     1.007825032230
         H           -4.189236907142     0.904255602920    -1.143897616893     1.007825032230

  Basis Set: AUG-CC-PVTZ
    Blend: AUG-CC-PVTZ
  Basis Set: (AUG-CC-PVTZ AUX)
    Blend: AUG-CC-PVTZ-JKFIT
	 Reference Energy          =   -1030.5475862862545000 [Eh]
	 Singles Energy            =      -0.0000000000000000 [Eh]
	 Same-Spin Energy          =      -0.3700985009152439 [Eh]
	 Opposite-Spin Energy      =      -1.2690223283455493 [Eh]
	 Correlation Energy        =      -1.6391208292607933 [Eh]
	 Total Energy              =   -1032.1867071155152189 [Eh]

	 ================> DF-SCS-MP2 Energies <==================
	-----------------------------------------------------------
	 SCS Same-Spin Scale       =       0.3333333333333333 [-]
	 SCS Opposite-Spin Scale   =       1.2000000000000000 [-]
	 SCS Same-Spin Energy      =      -0.1233661669717480 [Eh]
	 SCS Opposite-Spin Energy  =      -1.5228267940146591 [Eh]
	 SCS Correlation Energy    =      -1.6461929609864072 [Eh]
	 SCS Total Energy          =   -1032.1937792472408546 [Eh]
	-----------------------------------------------------------

  Dipole Moment: [D]
     X:     0.1032      Y:     1.7694      Z:    -0.8706     Total:     1.9747

*** Psi4 exiting successfully. Buy a developer a beer!
