                               Psi4 1.4a3.dev225

  ==> Input File <==

--------------------------------------------------------------------------
#psi4
#
memory 32 gb

molecule  {
0 1
  S       -0.2843280    -1.0417270    -0.4821980
  S       -1.2930110    -0.0875030     1.0369290
  C        2.1238360     0.2887940     0.2038120
  C        1.0396170     0.1533370    -0.8629480
  C        2.9192610    -1.0021330     0.3722660
  C        3.0446920     1.4546940    -0.1566970
  C       -2.4716130     0.9595520     0.1214340
  C       -3.5526440     0.1784480    -0.6085900
  H        1.6262820     0.5245100     1.1534320
  H        0.5779620     1.1249640    -1.0704080
  H        1.3990059    -0.1415661    -1.6316749
  H        3.4447910    -1.2503440    -0.5572920
  H        3.6685600    -0.8925200     1.1622280
  H        2.2689210    -1.8409590     0.6321870
  H        3.5445550     1.2705440    -1.1143240
  H        3.8190690     1.5865110     0.6053070
  H        2.4877540     2.3935860    -0.2389230
  H       -2.9081880     1.6071800     0.8902120
  H       -1.9135990     1.6021400    -0.5664420
  H       -3.1113200    -0.4862750    -1.3548320
  H       -4.1326660    -0.4262330     0.0924510
  H       -4.2326140     0.8656560    -1.1221410
units angstrom
no_reorient  #important for SAPT in psi4, default
symmetry c1  #important for SAPT in psi4, default
}

set PROPERTIES_ORIGIN ["COM"]
properties('MP2/aug-cc-pvtz', properties = ['dipole'])
--------------------------------------------------------------------------

    Molecular point group: c1
  Charge       = 0
  Multiplicity = 1
  Basis Set: AUG-CC-PVTZ
    Blend: AUG-CC-PVTZ
  Basis Set: (AUG-CC-PVTZ AUX)
    Blend: AUG-CC-PVTZ-JKFIT

    Orbital Energies [Eh]
    ---------------------

    Doubly Occupied:

       1A    -91.967135     2A    -91.965839     3A    -11.261771
       4A    -11.233546     5A    -11.229453     6A    -11.221036
       7A    -11.216812     8A    -11.210142     9A     -8.965941
      10A     -8.964742    11A     -6.647035    12A     -6.645888
      13A     -6.645732    14A     -6.644956    15A     -6.644625
      16A     -6.643838    17A     -1.117182    18A     -1.076829
      19A     -1.014412    20A     -0.946880    21A     -0.931127
      22A     -0.865440    23A     -0.795715    24A     -0.764304
      25A     -0.648743    26A     -0.629736    27A     -0.611324
      28A     -0.593933    29A     -0.589287    30A     -0.561118
      31A     -0.541156    32A     -0.535410    33A     -0.514675
      34A     -0.507643    35A     -0.492781    36A     -0.475046
      37A     -0.472945    38A     -0.452474    39A     -0.430096
      40A     -0.352472    41A     -0.343524

  @DF-RHF Final Energy: -1030.51553270642489

   => Energetics <=

    Nuclear Repulsion Energy =            556.9541289516814686
    One-Electron Energy =               -2524.1938353014243148
    Two-Electron Energy =                 936.7241736433179540
    Total Energy =                      -1030.5155327064248922
  Basis Set: (AUG-CC-PVTZ AUX)
    Blend: AUG-CC-PVTZ-RI
    Molecular point group: c1

    Geometry (in Angstrom), charge = 0, multiplicity = 1:

       Center              X                  Y                   Z               Mass
    ------------   -----------------  -----------------  -----------------  -----------------
         S           -0.240321553529    -1.003554895124    -0.505007084065    31.972071174400
         S           -1.249004553529    -0.049330895124     1.014119915935    31.972071174400
         C            2.167842446471     0.326966104876     0.181002915935    12.000000000000
         C            1.083623446471     0.191509104876    -0.885757084065    12.000000000000
         C            2.963267446471    -0.963960895124     0.349456915935    12.000000000000
         C            3.088698446471     1.492866104876    -0.179506084065    12.000000000000
         C           -2.427606553529     0.997724104876     0.098624915935    12.000000000000
         C           -3.508637553529     0.216620104876    -0.631399084065    12.000000000000
         H            1.670288446471     0.562682104876     1.130622915935     1.007825032230
         H            0.621968446471     1.163136104876    -1.093217084065     1.007825032230
         H            1.443012346471    -0.103393995124    -1.654483984065     1.007825032230
         H            3.488797446471    -1.212171895124    -0.580101084065     1.007825032230
         H            3.712566446471    -0.854347895124     1.139418915935     1.007825032230
         H            2.312927446471    -1.802786895124     0.609377915935     1.007825032230
         H            3.588561446471     1.308716104876    -1.137133084065     1.007825032230
         H            3.863075446471     1.624683104876     0.582497915935     1.007825032230
         H            2.531760446471     2.431758104876    -0.261732084065     1.007825032230
         H           -2.864181553529     1.645352104876     0.867402915935     1.007825032230
         H           -1.869592553529     1.640312104876    -0.589251084065     1.007825032230
         H           -3.067313553529    -0.448102895124    -1.377641084065     1.007825032230
         H           -4.088659553529    -0.388060895124     0.069641915935     1.007825032230
         H           -4.188607553529     0.903828104876    -1.144950084065     1.007825032230

  Basis Set: AUG-CC-PVTZ
    Blend: AUG-CC-PVTZ
  Basis Set: (AUG-CC-PVTZ AUX)
    Blend: AUG-CC-PVTZ-JKFIT
	 Reference Energy          =   -1030.5155327064248922 [Eh]
	 Singles Energy            =      -0.0000000000000000 [Eh]
	 Same-Spin Energy          =      -0.3698264447043665 [Eh]
	 Opposite-Spin Energy      =      -1.2680966618086287 [Eh]
	 Correlation Energy        =      -1.6379231065129951 [Eh]
	 Total Energy              =   -1032.1534558129378638 [Eh]

	 ================> DF-SCS-MP2 Energies <==================
	-----------------------------------------------------------
	 SCS Same-Spin Scale       =       0.3333333333333333 [-]
	 SCS Opposite-Spin Scale   =       1.2000000000000000 [-]
	 SCS Same-Spin Energy      =      -0.1232754815681222 [Eh]
	 SCS Opposite-Spin Energy  =      -1.5217159941703544 [Eh]
	 SCS Correlation Energy    =      -1.6449914757384765 [Eh]
	 SCS Total Energy          =   -1032.1605241821632717 [Eh]
	-----------------------------------------------------------

  Dipole Moment: [D]
     X:     0.1375      Y:     1.7631      Z:    -0.9118     Total:     1.9897

*** Psi4 exiting successfully. Buy a developer a beer!
