                               Psi4 1.4a3.dev225

  ==> Input File <==

--------------------------------------------------------------------------
#psi4
#
memory 32 gb

molecule  {
0 1
  S       -0.2843280    -1.0417270    -0.4821980
  S       -1.2930110    -0.0875030     1.0369290
  C        2.1238360     0.2887940     0.2038120
  C        1.0396170     0.1533370    -0.8629480
  C        2.9192610    -1.0021330     0.3722660
  C        3.0446920     1.4546940    -0.1566970
  C       -2.4716130     0.9595520     0.1214340
  C       -3.5384239     0.1887228    -0.5989871
  H        1.6262820     0.5245100     1.1534320
  H        0.5779620     1.1249640    -1.0704080
  H        1.4790150    -0.2072190    -1.8028130
  H        3.4447910    -1.2503440    -0.5572920
  H        3.6685600    -0.8925200     1.1622280
  H        2.2689210    -1.8409590     0.6321870
  H        3.5445550     1.2705440    -1.1143240
  H        3.8190690     1.5865110     0.6053070
  H        2.4877540     2.3935860    -0.2389230
  H       -2.9081880     1.6071800     0.8902120
  H       -1.9135990     1.6021400    -0.5664420
  H       -3.1113200    -0.4862750    -1.3548320
  H       -4.1326660    -0.4262330     0.0924510
  H       -4.2326140     0.8656560    -1.1221410
units angstrom
no_reorient  #important for SAPT in psi4, default
symmetry c1  #important for SAPT in psi4, default
}

set PROPERTIES_ORIGIN ["COM"]
properties('MP2/aug-cc-pvtz', properties = ['dipole'])
--------------------------------------------------------------------------

    Molecular point group: c1
  Charge       = 0
  Multiplicity = 1
  Basis Set: AUG-CC-PVTZ
    Blend: AUG-CC-PVTZ
  Basis Set: (AUG-CC-PVTZ AUX)
    Blend: AUG-CC-PVTZ-JKFIT

    Orbital Energies [Eh]
    ---------------------

    Doubly Occupied:

       1A    -91.967523     2A    -91.967029     3A    -11.261392
       4A    -11.257591     5A    -11.230957     6A    -11.221982
       7A    -11.216852     8A    -11.210101     9A     -8.966391
      10A     -8.965796    11A     -6.647492    12A     -6.646849
      13A     -6.646222    14A     -6.645657    15A     -6.645399
      16A     -6.644858    17A     -1.110994    18A     -1.078533
      19A     -1.012869    20A     -0.934960    21A     -0.931129
      22A     -0.859984    23A     -0.793561    24A     -0.752108
      25A     -0.643740    26A     -0.630383    27A     -0.605011
      28A     -0.591686    29A     -0.586134    30A     -0.551378
      31A     -0.544880    32A     -0.535367    33A     -0.511718
      34A     -0.506462    35A     -0.491393    36A     -0.475170
      37A     -0.471447    38A     -0.452538    39A     -0.428704
      40A     -0.353134    41A     -0.344348

  @DF-RHF Final Energy: -1030.54748818288954

   => Energetics <=

    Nuclear Repulsion Energy =            556.0483393887948296
    One-Electron Energy =               -2522.5122079659922747
    Two-Electron Energy =                 935.9163803943079074
    Total Energy =                      -1030.5474881828895377
  Basis Set: (AUG-CC-PVTZ AUX)
    Blend: AUG-CC-PVTZ-RI
    Molecular point group: c1

    Geometry (in Angstrom), charge = 0, multiplicity = 1:

       Center              X                  Y                   Z               Mass
    ------------   -----------------  -----------------  -----------------  -----------------
         S           -0.241996129936    -1.003935631931    -0.504625604209    31.972071174400
         S           -1.250679129936    -0.049711631931     1.014501395791    31.972071174400
         C            2.166167870064     0.326585368069     0.181384395791    12.000000000000
         C            1.081948870064     0.191128368069    -0.885375604209    12.000000000000
         C            2.961592870064    -0.964341631931     0.349838395791    12.000000000000
         C            3.087023870064     1.492485368069    -0.179124604209    12.000000000000
         C           -2.429281129936     0.997343368069     0.099006395791    12.000000000000
         C           -3.496092029936     0.226514168069    -0.621414704209    12.000000000000
         H            1.668613870064     0.562301368069     1.131004395791     1.007825032230
         H            0.620293870064     1.162755368069    -1.092835604209     1.007825032230
         H            1.521346870064    -0.169427631931    -1.825240604209     1.007825032230
         H            3.487122870064    -1.212552631931    -0.579719604209     1.007825032230
         H            3.710891870064    -0.854728631931     1.139800395791     1.007825032230
         H            2.311252870064    -1.803167631931     0.609759395791     1.007825032230
         H            3.586886870064     1.308335368069    -1.136751604209     1.007825032230
         H            3.861400870064     1.624302368069     0.582879395791     1.007825032230
         H            2.530085870064     2.431377368069    -0.261350604209     1.007825032230
         H           -2.865856129936     1.644971368069     0.867784395791     1.007825032230
         H           -1.871267129936     1.639931368069    -0.588869604209     1.007825032230
         H           -3.068988129936    -0.448483631931    -1.377259604209     1.007825032230
         H           -4.090334129936    -0.388441631931     0.070023395791     1.007825032230
         H           -4.190282129936     0.903447368069    -1.144568604209     1.007825032230

  Basis Set: AUG-CC-PVTZ
    Blend: AUG-CC-PVTZ
  Basis Set: (AUG-CC-PVTZ AUX)
    Blend: AUG-CC-PVTZ-JKFIT
	 Reference Energy          =   -1030.5474881828895377 [Eh]
	 Singles Energy            =      -0.0000000000000000 [Eh]
	 Same-Spin Energy          =      -0.3702551183644684 [Eh]
	 Opposite-Spin Energy      =      -1.2690395426520467 [Eh]
	 Correlation Energy        =      -1.6392946610165151 [Eh]
	 Total Energy              =   -1032.1867828439060304 [Eh]

	 ================> DF-SCS-MP2 Energies <==================
	-----------------------------------------------------------
	 SCS Same-Spin Scale       =       0.3333333333333333 [-]
	 SCS Opposite-Spin Scale   =       1.2000000000000000 [-]
	 SCS Same-Spin Energy      =      -0.1234183727881561 [Eh]
	 SCS Opposite-Spin Energy  =      -1.5228474511824559 [Eh]
	 SCS Correlation Energy    =      -1.6462658239706121 [Eh]
	 SCS Total Energy          =   -1032.1937540068602175 [Eh]
	-----------------------------------------------------------

  Dipole Moment: [D]
     X:     0.1176      Y:     1.7655      Z:    -0.8640     Total:     1.9691

*** Psi4 exiting successfully. Buy a developer a beer!
