                               Psi4 1.4a3.dev225

  ==> Input File <==

--------------------------------------------------------------------------
#psi4
#
memory 32 gb

molecule  {
0 1
  S       -0.2843280    -1.0417270    -0.4821980
  S       -1.2930110    -0.0875030     1.0369290
  C        2.1238360     0.2887940     0.2038120
  C        1.0396170     0.1533370    -0.8629480
  C        2.9192610    -1.0021330     0.3722660
  C        3.0446920     1.4546940    -0.1566970
  C       -2.4716130     0.9595520     0.1214340
  C       -3.4815433     0.2298221    -0.5605755
  H        1.6262820     0.5245100     1.1534320
  H        0.5779620     1.1249640    -1.0704080
  H        1.4790150    -0.2072190    -1.8028130
  H        3.4447910    -1.2503440    -0.5572920
  H        3.6685600    -0.8925200     1.1622280
  H        2.2689210    -1.8409590     0.6321870
  H        3.5445550     1.2705440    -1.1143240
  H        3.8190690     1.5865110     0.6053070
  H        2.4877540     2.3935860    -0.2389230
  H       -2.9081880     1.6071800     0.8902120
  H       -1.9135990     1.6021400    -0.5664420
  H       -3.1113200    -0.4862750    -1.3548320
  H       -4.1326660    -0.4262330     0.0924510
  H       -4.2326140     0.8656560    -1.1221410
units angstrom
no_reorient  #important for SAPT in psi4, default
symmetry c1  #important for SAPT in psi4, default
}

set PROPERTIES_ORIGIN ["COM"]
properties('MP2/aug-cc-pvtz', properties = ['dipole'])
--------------------------------------------------------------------------

    Molecular point group: c1
  Charge       = 0
  Multiplicity = 1
  Basis Set: AUG-CC-PVTZ
    Blend: AUG-CC-PVTZ
  Basis Set: (AUG-CC-PVTZ AUX)
    Blend: AUG-CC-PVTZ-JKFIT

    Orbital Energies [Eh]
    ---------------------

    Doubly Occupied:

       1A    -91.967691     2A    -91.967313     3A    -11.258085
       4A    -11.257753     5A    -11.231072     6A    -11.225909
       7A    -11.216950     8A    -11.210212     9A     -8.966670
      10A     -8.966069    11A     -6.647747    12A     -6.647118
      13A     -6.646492    14A     -6.645923    15A     -6.645654
      16A     -6.645126    17A     -1.113300    18A     -1.087978
      19A     -1.017619    20A     -0.934880    21A     -0.931215
      22A     -0.855668    23A     -0.793256    24A     -0.752928
      25A     -0.644978    26A     -0.633487    27A     -0.605532
      28A     -0.596784    29A     -0.589150    30A     -0.557901
      31A     -0.550543    32A     -0.535826    33A     -0.510887
      34A     -0.491945    35A     -0.486791    36A     -0.473800
      37A     -0.468899    38A     -0.450136    39A     -0.428559
      40A     -0.354127    41A     -0.345054

  @DF-RHF Final Energy: -1030.53634049189873

   => Energetics <=

    Nuclear Repulsion Energy =            557.3949481343009893
    One-Electron Energy =               -2525.1485231432388900
    Two-Electron Energy =                 937.2172345170389463
    Total Energy =                      -1030.5363404918989545
  Basis Set: (AUG-CC-PVTZ AUX)
    Blend: AUG-CC-PVTZ-RI
    Molecular point group: c1

    Geometry (in Angstrom), charge = 0, multiplicity = 1:

       Center              X                  Y                   Z               Mass
    ------------   -----------------  -----------------  -----------------  -----------------
         S           -0.246544949677    -1.007222399426    -0.507697432642    31.972071174400
         S           -1.255227949677    -0.052998399426     1.011429567358    31.972071174400
         C            2.161619050323     0.323298600574     0.178312567358    12.000000000000
         C            1.077400050323     0.187841600574    -0.888447432642    12.000000000000
         C            2.957044050323    -0.967628399426     0.346766567358    12.000000000000
         C            3.082475050323     1.489198600574    -0.182196432642    12.000000000000
         C           -2.433829949677     0.994056600574     0.095934567358    12.000000000000
         C           -3.443760249677     0.264326700574    -0.586074932642    12.000000000000
         H            1.664065050323     0.559014600574     1.127932567358     1.007825032230
         H            0.615745050323     1.159468600574    -1.095907432642     1.007825032230
         H            1.516798050323    -0.172714399426    -1.828312432642     1.007825032230
         H            3.482574050323    -1.215839399426    -0.582791432642     1.007825032230
         H            3.706343050323    -0.858015399426     1.136728567358     1.007825032230
         H            2.306704050323    -1.806454399426     0.606687567358     1.007825032230
         H            3.582338050323     1.305048600574    -1.139823432642     1.007825032230
         H            3.856852050323     1.621015600574     0.579807567358     1.007825032230
         H            2.525537050323     2.428090600574    -0.264422432642     1.007825032230
         H           -2.870404949677     1.641684600574     0.864712567358     1.007825032230
         H           -1.875815949677     1.636644600574    -0.591941432642     1.007825032230
         H           -3.073536949677    -0.451770399426    -1.380331432642     1.007825032230
         H           -4.094882949677    -0.391728399426     0.066951567358     1.007825032230
         H           -4.194830949677     0.900160600574    -1.147640432642     1.007825032230

  Basis Set: AUG-CC-PVTZ
    Blend: AUG-CC-PVTZ
  Basis Set: (AUG-CC-PVTZ AUX)
    Blend: AUG-CC-PVTZ-JKFIT
	 Reference Energy          =   -1030.5363404918987271 [Eh]
	 Singles Energy            =      -0.0000000000000000 [Eh]
	 Same-Spin Energy          =      -0.3711900786614045 [Eh]
	 Opposite-Spin Energy      =      -1.2701588059354887 [Eh]
	 Correlation Energy        =      -1.6413488845968933 [Eh]
	 Total Energy              =   -1032.1776893764956640 [Eh]

	 ================> DF-SCS-MP2 Energies <==================
	-----------------------------------------------------------
	 SCS Same-Spin Scale       =       0.3333333333333333 [-]
	 SCS Opposite-Spin Scale   =       1.2000000000000000 [-]
	 SCS Same-Spin Energy      =      -0.1237300262204682 [Eh]
	 SCS Opposite-Spin Energy  =      -1.5241905671225864 [Eh]
	 SCS Correlation Energy    =      -1.6479205933430545 [Eh]
	 SCS Total Energy          =   -1032.1842610852418147 [Eh]
	-----------------------------------------------------------

  Dipole Moment: [D]
     X:     0.1272      Y:     1.7592      Z:    -0.8706     Total:     1.9670

*** Psi4 exiting successfully. Buy a developer a beer!
