                               Psi4 1.4a3.dev225

  ==> Input File <==

--------------------------------------------------------------------------
#psi4
#
memory 32 gb

molecule  {
0 1
  S       -0.2843280    -1.0417270    -0.4821980
  S       -1.2930110    -0.0875030     1.0369290
  C        2.1238360     0.2887940     0.2038120
  C        1.0396170     0.1533370    -0.8629480
  C        2.9192610    -1.0021330     0.3722660
  C        3.0446920     1.4546940    -0.1566970
  C       -2.4716130     0.9595520     0.1214340
  C       -3.5526440     0.1784480    -0.6085900
  H        1.6262820     0.5245100     1.1534320
  H        0.5779620     1.1249640    -1.0704080
  H        1.4790150    -0.2072190    -1.8028130
  H        3.4447910    -1.2503440    -0.5572920
  H        3.6685600    -0.8925200     1.1622280
  H        2.2689210    -1.8409590     0.6321870
  H        3.6357858     1.2369345    -1.2891020
  H        3.8190690     1.5865110     0.6053070
  H        2.4877540     2.3935860    -0.2389230
  H       -2.9081880     1.6071800     0.8902120
  H       -1.9135990     1.6021400    -0.5664420
  H       -3.1113200    -0.4862750    -1.3548320
  H       -4.1326660    -0.4262330     0.0924510
  H       -4.2326140     0.8656560    -1.1221410
units angstrom
no_reorient  #important for SAPT in psi4, default
symmetry c1  #important for SAPT in psi4, default
}

set PROPERTIES_ORIGIN ["COM"]
properties('MP2/aug-cc-pvtz', properties = ['dipole'])
--------------------------------------------------------------------------

    Molecular point group: c1
  Charge       = 0
  Multiplicity = 1
  Basis Set: AUG-CC-PVTZ
    Blend: AUG-CC-PVTZ
  Basis Set: (AUG-CC-PVTZ AUX)
    Blend: AUG-CC-PVTZ-JKFIT

    Orbital Energies [Eh]
    ---------------------

    Doubly Occupied:

       1A    -91.968041     2A    -91.967480     3A    -11.262560
       4A    -11.258142     5A    -11.240592     6A    -11.234032
       7A    -11.221638     8A    -11.210602     9A     -8.966888
      10A     -8.966254    11A     -6.647993    12A     -6.647310
      13A     -6.646722    14A     -6.646113    15A     -6.645904
      16A     -6.645314    17A     -1.110878    18A     -1.076584
      19A     -1.011135    20A     -0.935411    21A     -0.924310
      22A     -0.859981    23A     -0.790938    24A     -0.750898
      25A     -0.642388    26A     -0.629872    27A     -0.605502
      28A     -0.592465    29A     -0.587161    30A     -0.547359
      31A     -0.540828    32A     -0.518932    33A     -0.510988
      34A     -0.508493    35A     -0.492813    36A     -0.477412
      37A     -0.464369    38A     -0.452207    39A     -0.429310
      40A     -0.353400    41A     -0.344738

  @DF-RHF Final Energy: -1030.52860649092463

   => Energetics <=

    Nuclear Repulsion Energy =            554.9303177999964873
    One-Electron Energy =               -2520.2499361183704423
    Two-Electron Energy =                 934.7910118274494380
    Total Energy =                      -1030.5286064909246306
  Basis Set: (AUG-CC-PVTZ AUX)
    Blend: AUG-CC-PVTZ-RI
    Molecular point group: c1

    Geometry (in Angstrom), charge = 0, multiplicity = 1:

       Center              X                  Y                   Z               Mass
    ------------   -----------------  -----------------  -----------------  -----------------
         S           -0.241471674226    -1.002888206223    -0.502683763005    31.972071174400
         S           -1.250154674226    -0.048664206223     1.016443236995    31.972071174400
         C            2.166692325774     0.327632793777     0.183326236995    12.000000000000
         C            1.082473325774     0.192175793777    -0.883433763005    12.000000000000
         C            2.962117325774    -0.963294206223     0.351780236995    12.000000000000
         C            3.087548325774     1.493532793777    -0.177182763005    12.000000000000
         C           -2.428756674226     0.998390793777     0.100948236995    12.000000000000
         C           -3.509787674226     0.217286793777    -0.629075763005    12.000000000000
         H            1.669138325774     0.563348793777     1.132946236995     1.007825032230
         H            0.620818325774     1.163802793777    -1.090893763005     1.007825032230
         H            1.521871325774    -0.168380206223    -1.823298763005     1.007825032230
         H            3.487647325774    -1.211505206223    -0.577777763005     1.007825032230
         H            3.711416325774    -0.853681206223     1.141742236995     1.007825032230
         H            2.311777325774    -1.802120206223     0.611701236995     1.007825032230
         H            3.678642125774     1.275773293777    -1.309587763005     1.007825032230
         H            3.861925325774     1.625349793777     0.584821236995     1.007825032230
         H            2.530610325774     2.432424793777    -0.259408763005     1.007825032230
         H           -2.865331674226     1.646018793777     0.869726236995     1.007825032230
         H           -1.870742674226     1.640978793777    -0.586927763005     1.007825032230
         H           -3.068463674226    -0.447436206223    -1.375317763005     1.007825032230
         H           -4.089809674226    -0.387394206223     0.071965236995     1.007825032230
         H           -4.189757674226     0.904494793777    -1.142626763005     1.007825032230

  Basis Set: AUG-CC-PVTZ
    Blend: AUG-CC-PVTZ
  Basis Set: (AUG-CC-PVTZ AUX)
    Blend: AUG-CC-PVTZ-JKFIT
	 Reference Energy          =   -1030.5286064909246306 [Eh]
	 Singles Energy            =      -0.0000000000000000 [Eh]
	 Same-Spin Energy          =      -0.3700698939867155 [Eh]
	 Opposite-Spin Energy      =      -1.2703721152399443 [Eh]
	 Correlation Energy        =      -1.6404420092266598 [Eh]
	 Total Energy              =   -1032.1690485001513480 [Eh]

	 ================> DF-SCS-MP2 Energies <==================
	-----------------------------------------------------------
	 SCS Same-Spin Scale       =       0.3333333333333333 [-]
	 SCS Opposite-Spin Scale   =       1.2000000000000000 [-]
	 SCS Same-Spin Energy      =      -0.1233566313289051 [Eh]
	 SCS Opposite-Spin Energy  =      -1.5244465382879331 [Eh]
	 SCS Correlation Energy    =      -1.6478031696168383 [Eh]
	 SCS Total Energy          =   -1032.1764096605413670 [Eh]
	-----------------------------------------------------------

  Dipole Moment: [D]
     X:     0.0174      Y:     1.7565      Z:    -0.7346     Total:     1.9040

*** Psi4 exiting successfully. Buy a developer a beer!
