                               Psi4 1.4a3.dev225

  ==> Input File <==

--------------------------------------------------------------------------
#psi4
#
memory 32 gb

molecule  {
0 1
  S       -0.2843280    -1.0417270    -0.4821980
  S       -1.2930110    -0.0875030     1.0369290
  C        2.1238360     0.2887940     0.2038120
  C        1.0396170     0.1533370    -0.8629480
  C        2.9192610    -1.0021330     0.3722660
  C        3.0446920     1.4546940    -0.1566970
  C       -2.4716130     0.9595520     0.1214340
  C       -3.5526440     0.1784480    -0.6085900
  H        1.6262820     0.5245100     1.1534320
  H        0.5779620     1.1249640    -1.0704080
  H        1.4790150    -0.2072190    -1.8028130
  H        3.4447910    -1.2503440    -0.5572920
  H        3.6685600    -0.8925200     1.1622280
  H        2.2689210    -1.8409590     0.6321870
  H        3.5445550     1.2705440    -1.1143240
  H        3.8190690     1.5865110     0.6053070
  H        2.4877540     2.3935860    -0.2389230
  H       -2.9081880     1.6071800     0.8902120
  H       -1.9135990     1.6021400    -0.5664420
  H       -3.1113200    -0.4862750    -1.3548320
  H       -4.1326660    -0.4262330     0.0924510
  H       -4.2015564     0.8342678    -1.0986846
units angstrom
no_reorient  #important for SAPT in psi4, default
symmetry c1  #important for SAPT in psi4, default
}

set PROPERTIES_ORIGIN ["COM"]
properties('MP2/aug-cc-pvtz', properties = ['dipole'])
--------------------------------------------------------------------------

    Molecular point group: c1
  Charge       = 0
  Multiplicity = 1
  Basis Set: AUG-CC-PVTZ
    Blend: AUG-CC-PVTZ
  Basis Set: (AUG-CC-PVTZ AUX)
    Blend: AUG-CC-PVTZ-JKFIT

    Orbital Energies [Eh]
    ---------------------

    Doubly Occupied:

       1A    -91.967093     2A    -91.966711     3A    -11.261691
       4A    -11.257363     5A    -11.230767     6A    -11.216709
       7A    -11.215047     8A    -11.209941     9A     -8.965940
      10A     -8.965473    11A     -6.647057    12A     -6.646517
      13A     -6.645773    14A     -6.645340    15A     -6.644951
      16A     -6.644542    17A     -1.110507    18A     -1.076932
      19A     -1.012663    20A     -0.936826    21A     -0.931031
      22A     -0.862661    23A     -0.793712    24A     -0.751762
      25A     -0.643397    26A     -0.629445    27A     -0.606153
      28A     -0.596821    29A     -0.587018    30A     -0.551551
      31A     -0.540726    32A     -0.534747    33A     -0.513300
      34A     -0.507803    35A     -0.494086    36A     -0.475518
      37A     -0.471939    38A     -0.452997    39A     -0.428422
      40A     -0.352574    41A     -0.343844

  @DF-RHF Final Energy: -1030.54705346827836

   => Energetics <=

    Nuclear Repulsion Energy =            555.9668511887477962
    One-Electron Energy =               -2522.3531087227038370
    Two-Electron Energy =                 935.8392040656776771
    Total Energy =                      -1030.5470534682783637
  Basis Set: (AUG-CC-PVTZ AUX)
    Blend: AUG-CC-PVTZ-RI
    Molecular point group: c1

    Geometry (in Angstrom), charge = 0, multiplicity = 1:

       Center              X                  Y                   Z               Mass
    ------------   -----------------  -----------------  -----------------  -----------------
         S           -0.241067525177    -1.002903125428    -0.504015190355    31.972071174400
         S           -1.249750525177    -0.048679125428     1.015111809645    31.972071174400
         C            2.167096474823     0.327617874572     0.181994809645    12.000000000000
         C            1.082877474823     0.192160874572    -0.884765190355    12.000000000000
         C            2.962521474823    -0.963309125428     0.350448809645    12.000000000000
         C            3.087952474823     1.493517874572    -0.178514190355    12.000000000000
         C           -2.428352525177     0.998375874572     0.099616809645    12.000000000000
         C           -3.509383525177     0.217271874572    -0.630407190355    12.000000000000
         H            1.669542474823     0.563333874572     1.131614809645     1.007825032230
         H            0.621222474823     1.163787874572    -1.092225190355     1.007825032230
         H            1.522275474823    -0.168395125428    -1.824630190355     1.007825032230
         H            3.488051474823    -1.211520125428    -0.579109190355     1.007825032230
         H            3.711820474823    -0.853696125428     1.140410809645     1.007825032230
         H            2.312181474823    -1.802135125428     0.610369809645     1.007825032230
         H            3.587815474823     1.309367874572    -1.136141190355     1.007825032230
         H            3.862329474823     1.625334874572     0.583489809645     1.007825032230
         H            2.531014474823     2.432409874572    -0.260740190355     1.007825032230
         H           -2.864927525177     1.646003874572     0.868394809645     1.007825032230
         H           -1.870338525177     1.640963874572    -0.588259190355     1.007825032230
         H           -3.068059525177    -0.447451125428    -1.376649190355     1.007825032230
         H           -4.089405525177    -0.387409125428     0.070633809645     1.007825032230
         H           -4.158295925177     0.873091674572    -1.120501790355     1.007825032230

  Basis Set: AUG-CC-PVTZ
    Blend: AUG-CC-PVTZ
  Basis Set: (AUG-CC-PVTZ AUX)
    Blend: AUG-CC-PVTZ-JKFIT
	 Reference Energy          =   -1030.5470534682783637 [Eh]
	 Singles Energy            =      -0.0000000000000000 [Eh]
	 Same-Spin Energy          =      -0.3701243813060296 [Eh]
	 Opposite-Spin Energy      =      -1.2686497582186529 [Eh]
	 Correlation Energy        =      -1.6387741395246826 [Eh]
	 Total Energy              =   -1032.1858276078030485 [Eh]

	 ================> DF-SCS-MP2 Energies <==================
	-----------------------------------------------------------
	 SCS Same-Spin Scale       =       0.3333333333333333 [-]
	 SCS Opposite-Spin Scale   =       1.2000000000000000 [-]
	 SCS Same-Spin Energy      =      -0.1233747937686765 [Eh]
	 SCS Opposite-Spin Energy  =      -1.5223797098623835 [Eh]
	 SCS Correlation Energy    =      -1.6457545036310599 [Eh]
	 SCS Total Energy          =   -1032.1928079719093603 [Eh]
	-----------------------------------------------------------

  Dipole Moment: [D]
     X:     0.0835      Y:     1.7813      Z:    -0.8784     Total:     1.9879

*** Psi4 exiting successfully. Buy a developer a beer!
