                               Psi4 1.4a3.dev225

  ==> Input File <==

--------------------------------------------------------------------------
#psi4
#
memory 32 gb

molecule  {
0 1
  S       -0.2843280    -1.0417270    -0.4821980
  S       -1.2930110    -0.0875030     1.0369290
  C        2.1238360     0.2887940     0.2038120
  C        1.0396170     0.1533370    -0.8629480
  C        2.9192610    -1.0021330     0.3722660
  C        3.0446920     1.4546940    -0.1566970
  C       -2.4716130     0.9595520     0.1214340
  C       -3.5710109     0.1901422    -0.5934222
  H        1.6262820     0.5245100     1.1534320
  H        0.5779620     1.1249640    -1.0704080
  H        1.4790150    -0.2072190    -1.8028130
  H        3.4447910    -1.2503440    -0.5572920
  H        3.6685600    -0.8925200     1.1622280
  H        2.2689210    -1.8409590     0.6321870
  H        3.5445550     1.2705440    -1.1143240
  H        3.8190690     1.5865110     0.6053070
  H        2.4877540     2.3935860    -0.2389230
  H       -2.9081880     1.6071800     0.8902120
  H       -1.9135990     1.6021400    -0.5664420
  H       -3.1113200    -0.4862750    -1.3548320
  H       -4.1326660    -0.4262330     0.0924510
  H       -4.2326140     0.8656560    -1.1221410
units angstrom
no_reorient  #important for SAPT in psi4, default
symmetry c1  #important for SAPT in psi4, default
}

set PROPERTIES_ORIGIN ["COM"]
properties('MP2/aug-cc-pvtz', properties = ['dipole'])
--------------------------------------------------------------------------

    Molecular point group: c1
  Charge       = 0
  Multiplicity = 1
  Basis Set: AUG-CC-PVTZ
    Blend: AUG-CC-PVTZ
  Basis Set: (AUG-CC-PVTZ AUX)
    Blend: AUG-CC-PVTZ-JKFIT

    Orbital Energies [Eh]
    ---------------------

    Doubly Occupied:

       1A    -91.967823     2A    -91.966945     3A    -11.261978
       4A    -11.257552     5A    -11.230950     6A    -11.221227
       7A    -11.216838     8A    -11.210085     9A     -8.966623
      10A     -8.965718    11A     -6.647717    12A     -6.646790
      13A     -6.646449    14A     -6.645644    15A     -6.645572
      16A     -6.644774    17A     -1.110634    18A     -1.076399
      19A     -1.011839    20A     -0.935295    21A     -0.931131
      22A     -0.860763    23A     -0.793552    24A     -0.751944
      25A     -0.643498    26A     -0.629187    27A     -0.605269
      28A     -0.592253    29A     -0.586758    30A     -0.552082
      31A     -0.540476    32A     -0.534597    33A     -0.514191
      34A     -0.506389    35A     -0.491764    36A     -0.475134
      37A     -0.472013    38A     -0.453112    39A     -0.428602
      40A     -0.352911    41A     -0.344337

  @DF-RHF Final Energy: -1030.54732988916476

   => Energetics <=

    Nuclear Repulsion Energy =            555.5418258221749284
    One-Electron Energy =               -2521.5046810346466373
    Two-Electron Energy =                 935.4155253233069516
    Total Energy =                      -1030.5473298891647573
  Basis Set: (AUG-CC-PVTZ AUX)
    Blend: AUG-CC-PVTZ-RI
    Molecular point group: c1

    Geometry (in Angstrom), charge = 0, multiplicity = 1:

       Center              X                  Y                   Z               Mass
    ------------   -----------------  -----------------  -----------------  -----------------
         S           -0.239390102769    -1.004049143299    -0.505070636909    31.972071174400
         S           -1.248073102769    -0.049825143299     1.014056363091    31.972071174400
         C            2.168773897231     0.326471856701     0.180939363091    12.000000000000
         C            1.084554897231     0.191014856701    -0.885820636909    12.000000000000
         C            2.964198897231    -0.964455143299     0.349393363091    12.000000000000
         C            3.089629897231     1.492371856701    -0.179569636909    12.000000000000
         C           -2.426675102769     0.997229856701     0.098561363091    12.000000000000
         C           -3.526073002769     0.227820056701    -0.616294836909    12.000000000000
         H            1.671219897231     0.562187856701     1.130559363091     1.007825032230
         H            0.622899897231     1.162641856701    -1.093280636909     1.007825032230
         H            1.523952897231    -0.169541143299    -1.825685636909     1.007825032230
         H            3.489728897231    -1.212666143299    -0.580164636909     1.007825032230
         H            3.713497897231    -0.854842143299     1.139355363091     1.007825032230
         H            2.313858897231    -1.803281143299     0.609314363091     1.007825032230
         H            3.589492897231     1.308221856701    -1.137196636909     1.007825032230
         H            3.864006897231     1.624188856701     0.582434363091     1.007825032230
         H            2.532691897231     2.431263856701    -0.261795636909     1.007825032230
         H           -2.863250102769     1.644857856701     0.867339363091     1.007825032230
         H           -1.868661102769     1.639817856701    -0.589314636909     1.007825032230
         H           -3.066382102769    -0.448597143299    -1.377704636909     1.007825032230
         H           -4.087728102769    -0.388555143299     0.069578363091     1.007825032230
         H           -4.187676102769     0.903333856701    -1.145013636909     1.007825032230

  Basis Set: AUG-CC-PVTZ
    Blend: AUG-CC-PVTZ
  Basis Set: (AUG-CC-PVTZ AUX)
    Blend: AUG-CC-PVTZ-JKFIT
	 Reference Energy          =   -1030.5473298891647573 [Eh]
	 Singles Energy            =      -0.0000000000000000 [Eh]
	 Same-Spin Energy          =      -0.3701200622573109 [Eh]
	 Opposite-Spin Energy      =      -1.2689320762664034 [Eh]
	 Correlation Energy        =      -1.6390521385237142 [Eh]
	 Total Energy              =   -1032.1863820276885235 [Eh]

	 ================> DF-SCS-MP2 Energies <==================
	-----------------------------------------------------------
	 SCS Same-Spin Scale       =       0.3333333333333333 [-]
	 SCS Opposite-Spin Scale   =       1.2000000000000000 [-]
	 SCS Same-Spin Energy      =      -0.1233733540857703 [Eh]
	 SCS Opposite-Spin Energy  =      -1.5227184915196841 [Eh]
	 SCS Correlation Energy    =      -1.6460918456054543 [Eh]
	 SCS Total Energy          =   -1032.1934217347702543 [Eh]
	-----------------------------------------------------------

  Dipole Moment: [D]
     X:     0.1191      Y:     1.7680      Z:    -0.8564     Total:     1.9681

*** Psi4 exiting successfully. Buy a developer a beer!
