                               Psi4 1.4a3.dev225

  ==> Input File <==

--------------------------------------------------------------------------
#psi4
#
memory 32 gb

molecule  {
0 1
  S       -0.2843280    -1.0417270    -0.4821980
  S       -1.2930110    -0.0875030     1.0369290
  C        2.1238360     0.2887940     0.2038120
  C        1.0396170     0.1533370    -0.8629480
  C        2.9192610    -1.0021330     0.3722660
  C        3.0446920     1.4546940    -0.1566970
  C       -2.4716130     0.9595520     0.1214340
  C       -3.5526440     0.1784480    -0.6085900
  H        1.6262820     0.5245100     1.1534320
  H        0.5779620     1.1249640    -1.0704080
  H        1.4790150    -0.2072190    -1.8028130
  H        3.4447910    -1.2503440    -0.5572920
  H        3.6685600    -0.8925200     1.1622280
  H        2.2689210    -1.8409590     0.6321870
  H        3.5445550     1.2705440    -1.1143240
  H        3.8190690     1.5865110     0.6053070
  H        2.4877540     2.3935860    -0.2389230
  H       -2.9081880     1.6071800     0.8902120
  H       -1.9135990     1.6021400    -0.5664420
  H       -3.1113200    -0.4862750    -1.3548320
  H       -4.1326660    -0.4262330     0.0924510
  H       -4.2326140     0.8656560    -1.1221410
units angstrom
no_reorient  #important for SAPT in psi4, default
symmetry c1  #important for SAPT in psi4, default
}

set PROPERTIES_ORIGIN ["COM"]
properties('MP2/aug-cc-pvtz', properties = ['dipole'])
--------------------------------------------------------------------------

    Molecular point group: c1
  Charge       = 0
  Multiplicity = 1
  Basis Set: AUG-CC-PVTZ
    Blend: AUG-CC-PVTZ
  Basis Set: (AUG-CC-PVTZ AUX)
    Blend: AUG-CC-PVTZ-JKFIT

    Orbital Energies [Eh]
    ---------------------

    Doubly Occupied:

       1A    -91.967499     2A    -91.966970     3A    -11.262098
       4A    -11.257555     5A    -11.230931     6A    -11.221281
       7A    -11.216830     8A    -11.210076     9A     -8.966340
      10A     -8.965740    11A     -6.647445    12A     -6.646794
      13A     -6.646173    14A     -6.645602    15A     -6.645353
      16A     -6.644803    17A     -1.110664    18A     -1.076538
      19A     -1.011699    20A     -0.935075    21A     -0.931114
      22A     -0.860945    23A     -0.793576    24A     -0.751910
      25A     -0.643547    26A     -0.629795    27A     -0.604977
      28A     -0.591645    29A     -0.585682    30A     -0.551444
      31A     -0.541180    32A     -0.534940    33A     -0.513641
      34A     -0.508079    35A     -0.492684    36A     -0.475430
      37A     -0.471707    38A     -0.452644    39A     -0.428695
      40A     -0.352890    41A     -0.344095

  @DF-RHF Final Energy: -1030.54809389594993

   => Energetics <=

    Nuclear Repulsion Energy =            555.7225509167776636
    One-Electron Energy =               -2521.8691149924047750
    Two-Electron Energy =                 935.5984701796771787
    Total Energy =                      -1030.5480938959499326
  Basis Set: (AUG-CC-PVTZ AUX)
    Blend: AUG-CC-PVTZ-RI
    Molecular point group: c1

    Geometry (in Angstrom), charge = 0, multiplicity = 1:

       Center              X                  Y                   Z               Mass
    ------------   -----------------  -----------------  -----------------  -----------------
         S           -0.240858929000    -1.003113942057    -0.503857647101    31.972071174400
         S           -1.249541929000    -0.048889942057     1.015269352899    31.972071174400
         C            2.167305071000     0.327407057943     0.182152352899    12.000000000000
         C            1.083086071000     0.191950057943    -0.884607647101    12.000000000000
         C            2.962730071000    -0.963519942057     0.350606352899    12.000000000000
         C            3.088161071000     1.493307057943    -0.178356647101    12.000000000000
         C           -2.428143929000     0.998165057943     0.099774352899    12.000000000000
         C           -3.509174929000     0.217061057943    -0.630249647101    12.000000000000
         H            1.669751071000     0.563123057943     1.131772352899     1.007825032230
         H            0.621431071000     1.163577057943    -1.092067647101     1.007825032230
         H            1.522484071000    -0.168605942057    -1.824472647101     1.007825032230
         H            3.488260071000    -1.211730942057    -0.578951647101     1.007825032230
         H            3.712029071000    -0.853906942057     1.140568352899     1.007825032230
         H            2.312390071000    -1.802345942057     0.610527352899     1.007825032230
         H            3.588024071000     1.309157057943    -1.135983647101     1.007825032230
         H            3.862538071000     1.625124057943     0.583647352899     1.007825032230
         H            2.531223071000     2.432199057943    -0.260582647101     1.007825032230
         H           -2.864718929000     1.645793057943     0.868552352899     1.007825032230
         H           -1.870129929000     1.640753057943    -0.588101647101     1.007825032230
         H           -3.067850929000    -0.447661942057    -1.376491647101     1.007825032230
         H           -4.089196929000    -0.387619942057     0.070791352899     1.007825032230
         H           -4.189144929000     0.904269057943    -1.143800647101     1.007825032230

  Basis Set: AUG-CC-PVTZ
    Blend: AUG-CC-PVTZ
  Basis Set: (AUG-CC-PVTZ AUX)
    Blend: AUG-CC-PVTZ-JKFIT
	 Reference Energy          =   -1030.5480938959499326 [Eh]
	 Singles Energy            =      -0.0000000000000000 [Eh]
	 Same-Spin Energy          =      -0.3701024771789956 [Eh]
	 Opposite-Spin Energy      =      -1.2688957598596704 [Eh]
	 Correlation Energy        =      -1.6389982370386660 [Eh]
	 Total Energy              =   -1032.1870921329887096 [Eh]

	 ================> DF-SCS-MP2 Energies <==================
	-----------------------------------------------------------
	 SCS Same-Spin Scale       =       0.3333333333333333 [-]
	 SCS Opposite-Spin Scale   =       1.2000000000000000 [-]
	 SCS Same-Spin Energy      =      -0.1233674923929985 [Eh]
	 SCS Opposite-Spin Energy  =      -1.5226749118316045 [Eh]
	 SCS Correlation Energy    =      -1.6460424042246031 [Eh]
	 SCS Total Energy          =   -1032.1941363001744776 [Eh]
	-----------------------------------------------------------

  Dipole Moment: [D]
     X:     0.1169      Y:     1.7674      Z:    -0.8619     Total:     1.9698

*** Psi4 exiting successfully. Buy a developer a beer!
