                               Psi4 1.4a3.dev225

  ==> Input File <==

--------------------------------------------------------------------------
#psi4
#
memory 32 gb

molecule  {
0 1
  S       -0.2843280    -1.0417270    -0.4821980
  S       -1.2930110    -0.0875030     1.0369290
  C        2.1238360     0.2887940     0.2038120
  C        1.0396170     0.1533370    -0.8629480
  C        2.9192610    -1.0021330     0.3722660
  C        3.0446920     1.4546940    -0.1566970
  C       -2.4716130     0.9595520     0.1214340
  C       -3.5526440     0.1784480    -0.6085900
  H        1.6262820     0.5245100     1.1534320
  H        0.5779620     1.1249640    -1.0704080
  H        1.4790150    -0.2072190    -1.8028130
  H        3.4447910    -1.2503440    -0.5572920
  H        3.6000874    -0.9025367     1.0900395
  H        2.2689210    -1.8409590     0.6321870
  H        3.5445550     1.2705440    -1.1143240
  H        3.8190690     1.5865110     0.6053070
  H        2.4877540     2.3935860    -0.2389230
  H       -2.9081880     1.6071800     0.8902120
  H       -1.9135990     1.6021400    -0.5664420
  H       -3.1113200    -0.4862750    -1.3548320
  H       -4.1326660    -0.4262330     0.0924510
  H       -4.2326140     0.8656560    -1.1221410
units angstrom
no_reorient  #important for SAPT in psi4, default
symmetry c1  #important for SAPT in psi4, default
}

set PROPERTIES_ORIGIN ["COM"]
properties('MP2/aug-cc-pvtz', properties = ['dipole'])
--------------------------------------------------------------------------

    Molecular point group: c1
  Charge       = 0
  Multiplicity = 1
  Basis Set: AUG-CC-PVTZ
    Blend: AUG-CC-PVTZ
  Basis Set: (AUG-CC-PVTZ AUX)
    Blend: AUG-CC-PVTZ-JKFIT

    Orbital Energies [Eh]
    ---------------------

    Doubly Occupied:

       1A    -91.967134     2A    -91.966479     3A    -11.261800
       4A    -11.256775     5A    -11.230099     6A    -11.221034
       7A    -11.216858     8A    -11.197429     9A     -8.965973
      10A     -8.965247    11A     -6.647073    12A     -6.646310
      13A     -6.645807    14A     -6.645106    15A     -6.644990
      16A     -6.644307    17A     -1.110786    18A     -1.076756
      19A     -1.012410    20A     -0.940491    21A     -0.933390
      22A     -0.861185    23A     -0.794941    24A     -0.752233
      25A     -0.647417    26A     -0.629889    27A     -0.607528
      28A     -0.591933    29A     -0.585476    30A     -0.551958
      31A     -0.541580    32A     -0.539141    33A     -0.515107
      34A     -0.510524    35A     -0.494359    36A     -0.474991
      37A     -0.471746    38A     -0.452376    39A     -0.428248
      40A     -0.352449    41A     -0.343680

  @DF-RHF Final Energy: -1030.54204121515977

   => Energetics <=

    Nuclear Repulsion Energy =            556.2297758720294496
    One-Electron Energy =               -2522.8576007047663552
    Two-Electron Energy =                 936.0857836175772491
    Total Energy =                      -1030.5420412151597702
  Basis Set: (AUG-CC-PVTZ AUX)
    Blend: AUG-CC-PVTZ-RI
    Molecular point group: c1

    Geometry (in Angstrom), charge = 0, multiplicity = 1:

       Center              X                  Y                   Z               Mass
    ------------   -----------------  -----------------  -----------------  -----------------
         S           -0.240399037617    -1.003046665598    -0.503372798138    31.972071174400
         S           -1.249082037617    -0.048822665598     1.015754201862    31.972071174400
         C            2.167764962383     0.327474334402     0.182637201862    12.000000000000
         C            1.083545962383     0.192017334402    -0.884122798138    12.000000000000
         C            2.963189962383    -0.963452665598     0.351091201862    12.000000000000
         C            3.088620962383     1.493374334402    -0.177871798138    12.000000000000
         C           -2.427684037617     0.998232334402     0.100259201862    12.000000000000
         C           -3.508715037617     0.217128334402    -0.629764798138    12.000000000000
         H            1.670210962383     0.563190334402     1.132257201862     1.007825032230
         H            0.621890962383     1.163644334402    -1.091582798138     1.007825032230
         H            1.522943962383    -0.168538665598    -1.823987798138     1.007825032230
         H            3.488719962383    -1.211663665598    -0.578466798138     1.007825032230
         H            3.644016362383    -0.863856365598     1.068864701862     1.007825032230
         H            2.312849962383    -1.802278665598     0.611012201862     1.007825032230
         H            3.588483962383     1.309224334402    -1.135498798138     1.007825032230
         H            3.862997962383     1.625191334402     0.584132201862     1.007825032230
         H            2.531682962383     2.432266334402    -0.260097798138     1.007825032230
         H           -2.864259037617     1.645860334402     0.869037201862     1.007825032230
         H           -1.869670037617     1.640820334402    -0.587616798138     1.007825032230
         H           -3.067391037617    -0.447594665598    -1.376006798138     1.007825032230
         H           -4.088737037617    -0.387552665598     0.071276201862     1.007825032230
         H           -4.188685037617     0.904336334402    -1.143315798138     1.007825032230

  Basis Set: AUG-CC-PVTZ
    Blend: AUG-CC-PVTZ
  Basis Set: (AUG-CC-PVTZ AUX)
    Blend: AUG-CC-PVTZ-JKFIT
	 Reference Energy          =   -1030.5420412151597702 [Eh]
	 Singles Energy            =      -0.0000000000000000 [Eh]
	 Same-Spin Energy          =      -0.3701390169710768 [Eh]
	 Opposite-Spin Energy      =      -1.2684217329055250 [Eh]
	 Correlation Energy        =      -1.6385607498766017 [Eh]
	 Total Energy              =   -1032.1806019650364306 [Eh]

	 ================> DF-SCS-MP2 Energies <==================
	-----------------------------------------------------------
	 SCS Same-Spin Scale       =       0.3333333333333333 [-]
	 SCS Opposite-Spin Scale   =       1.2000000000000000 [-]
	 SCS Same-Spin Energy      =      -0.1233796723236923 [Eh]
	 SCS Opposite-Spin Energy  =      -1.5221060794866299 [Eh]
	 SCS Correlation Energy    =      -1.6454857518103221 [Eh]
	 SCS Total Energy          =   -1032.1875269669701538 [Eh]
	-----------------------------------------------------------

  Dipole Moment: [D]
     X:     0.1763      Y:     1.7584      Z:    -0.8257     Total:     1.9506

*** Psi4 exiting successfully. Buy a developer a beer!
