                               Psi4 1.4a3.dev225

  ==> Input File <==

--------------------------------------------------------------------------
#psi4
#
memory 32 gb

molecule  {
0 1
  S       -0.2843280    -1.0417270    -0.4821980
  S       -1.2930110    -0.0875030     1.0369290
  C        2.1238360     0.2887940     0.2038120
  C        1.0396170     0.1533370    -0.8629480
  C        2.9192610    -1.0021330     0.3722660
  C        3.0446920     1.4546940    -0.1566970
  C       -2.4716130     0.9595520     0.1214340
  C       -3.5526440     0.1784480    -0.6085900
  H        1.6262820     0.5245100     1.1534320
  H        0.5779620     1.1249640    -1.0704080
  H        1.4790150    -0.2072190    -1.8028130
  H        3.4447910    -1.2503440    -0.5572920
  H        3.6685600    -0.8925200     1.1622280
  H        2.2689210    -1.8409590     0.6321870
  H        3.5445550     1.2705440    -1.1143240
  H        3.8190690     1.5865110     0.6053070
  H        2.4877540     2.3935860    -0.2389230
  H       -2.9480244     1.6662745     0.9603611
  H       -1.9135990     1.6021400    -0.5664420
  H       -3.1113200    -0.4862750    -1.3548320
  H       -4.1326660    -0.4262330     0.0924510
  H       -4.2326140     0.8656560    -1.1221410
units angstrom
no_reorient  #important for SAPT in psi4, default
symmetry c1  #important for SAPT in psi4, default
}

set PROPERTIES_ORIGIN ["COM"]
properties('MP2/aug-cc-pvtz', properties = ['dipole'])
--------------------------------------------------------------------------

    Molecular point group: c1
  Charge       = 0
  Multiplicity = 1
  Basis Set: AUG-CC-PVTZ
    Blend: AUG-CC-PVTZ
  Basis Set: (AUG-CC-PVTZ AUX)
    Blend: AUG-CC-PVTZ-JKFIT

    Orbital Energies [Eh]
    ---------------------

    Doubly Occupied:

       1A    -91.968364     2A    -91.967395     3A    -11.273386
       4A    -11.257856     5A    -11.231143     6A    -11.222245
       7A    -11.216975     8A    -11.210280     9A     -8.967107
      10A     -8.966179    11A     -6.648182    12A     -6.647250
      13A     -6.646921    14A     -6.646104    15A     -6.646032
      16A     -6.645239    17A     -1.110668    18A     -1.074441
      19A     -1.010761    20A     -0.935550    21A     -0.931298
      22A     -0.857306    23A     -0.790923    24A     -0.750444
      25A     -0.642943    26A     -0.623419    27A     -0.605155
      28A     -0.590057    29A     -0.586055    30A     -0.551727
      31A     -0.540920    32A     -0.534818    33A     -0.513444
      34A     -0.504986    35A     -0.490735    36A     -0.474198
      37A     -0.471972    38A     -0.453112    39A     -0.427505
      40A     -0.353294    41A     -0.344601

  @DF-RHF Final Energy: -1030.54153199351435

   => Energetics <=

    Nuclear Repulsion Energy =            555.2177962885527904
    One-Electron Energy =               -2520.8566771660489394
    Two-Electron Energy =                 935.0973488839816810
    Total Energy =                      -1030.5415319935145817
  Basis Set: (AUG-CC-PVTZ AUX)
    Blend: AUG-CC-PVTZ-RI
    Molecular point group: c1

    Geometry (in Angstrom), charge = 0, multiplicity = 1:

       Center              X                  Y                   Z               Mass
    ------------   -----------------  -----------------  -----------------  -----------------
         S           -0.240591370632    -1.003510846093    -0.504328798578    31.972071174400
         S           -1.249274370632    -0.049286846093     1.014798201422    31.972071174400
         C            2.167572629368     0.327010153907     0.181681201422    12.000000000000
         C            1.083353629368     0.191553153907    -0.885078798578    12.000000000000
         C            2.962997629368    -0.963916846093     0.350135201422    12.000000000000
         C            3.088428629368     1.492910153907    -0.178827798578    12.000000000000
         C           -2.427876370632     0.997768153907     0.099303201422    12.000000000000
         C           -3.508907370632     0.216664153907    -0.630720798578    12.000000000000
         H            1.670018629368     0.562726153907     1.131301201422     1.007825032230
         H            0.621698629368     1.163180153907    -1.092538798578     1.007825032230
         H            1.522751629368    -0.169002846093    -1.824943798578     1.007825032230
         H            3.488527629368    -1.212127846093    -0.579422798578     1.007825032230
         H            3.712296629368    -0.854303846093     1.140097201422     1.007825032230
         H            2.312657629368    -1.802742846093     0.610056201422     1.007825032230
         H            3.588291629368     1.308760153907    -1.136454798578     1.007825032230
         H            3.862805629368     1.624727153907     0.583176201422     1.007825032230
         H            2.531490629368     2.431802153907    -0.261053798578     1.007825032230
         H           -2.904287770632     1.704490653907     0.938230301422     1.007825032230
         H           -1.869862370632     1.640356153907    -0.588572798578     1.007825032230
         H           -3.067583370632    -0.448058846093    -1.376962798578     1.007825032230
         H           -4.088929370632    -0.388016846093     0.070320201422     1.007825032230
         H           -4.188877370632     0.903872153907    -1.144271798578     1.007825032230

  Basis Set: AUG-CC-PVTZ
    Blend: AUG-CC-PVTZ
  Basis Set: (AUG-CC-PVTZ AUX)
    Blend: AUG-CC-PVTZ-JKFIT
	 Reference Energy          =   -1030.5415319935143543 [Eh]
	 Singles Energy            =      -0.0000000000000000 [Eh]
	 Same-Spin Energy          =      -0.3702214137364820 [Eh]
	 Opposite-Spin Energy      =      -1.2696781211904837 [Eh]
	 Correlation Energy        =      -1.6398995349269658 [Eh]
	 Total Energy              =   -1032.1814315284414079 [Eh]

	 ================> DF-SCS-MP2 Energies <==================
	-----------------------------------------------------------
	 SCS Same-Spin Scale       =       0.3333333333333333 [-]
	 SCS Opposite-Spin Scale   =       1.2000000000000000 [-]
	 SCS Same-Spin Energy      =      -0.1234071379121607 [Eh]
	 SCS Opposite-Spin Energy  =      -1.5236137454285805 [Eh]
	 SCS Correlation Energy    =      -1.6470208833407411 [Eh]
	 SCS Total Energy          =   -1032.1885528768550557 [Eh]
	-----------------------------------------------------------

  Dipole Moment: [D]
     X:     0.1373      Y:     1.7273      Z:    -0.8913     Total:     1.9485

*** Psi4 exiting successfully. Buy a developer a beer!
