                               Psi4 1.4a3.dev225

  ==> Input File <==

--------------------------------------------------------------------------
#psi4
#
memory 32 gb

molecule  {
0 1
  S       -0.2843280    -1.0417270    -0.4821980
  S       -1.2930110    -0.0875030     1.0369290
  C        2.1238360     0.2887940     0.2038120
  C        1.0396170     0.1533370    -0.8629480
  C        2.9192610    -1.0021330     0.3722660
  C        3.0446920     1.4546940    -0.1566970
  C       -2.4716130     0.9595520     0.1214340
  C       -3.5526440     0.1784480    -0.6085900
  H        1.6262820     0.5245100     1.1534320
  H        0.5779620     1.1249640    -1.0704080
  H        1.4790150    -0.2072190    -1.8028130
  H        3.4447910    -1.2503440    -0.5572920
  H        3.6607847    -0.9073411     1.1714287
  H        2.2689210    -1.8409590     0.6321870
  H        3.5445550     1.2705440    -1.1143240
  H        3.8190690     1.5865110     0.6053070
  H        2.4877540     2.3935860    -0.2389230
  H       -2.9081880     1.6071800     0.8902120
  H       -1.9135990     1.6021400    -0.5664420
  H       -3.1113200    -0.4862750    -1.3548320
  H       -4.1326660    -0.4262330     0.0924510
  H       -4.2326140     0.8656560    -1.1221410
units angstrom
no_reorient  #important for SAPT in psi4, default
symmetry c1  #important for SAPT in psi4, default
}

set PROPERTIES_ORIGIN ["COM"]
properties('MP2/aug-cc-pvtz', properties = ['dipole'])
--------------------------------------------------------------------------

    Molecular point group: c1
  Charge       = 0
  Multiplicity = 1
  Basis Set: AUG-CC-PVTZ
    Blend: AUG-CC-PVTZ
  Basis Set: (AUG-CC-PVTZ AUX)
    Blend: AUG-CC-PVTZ-JKFIT

    Orbital Energies [Eh]
    ---------------------

    Doubly Occupied:

       1A    -91.967491     2A    -91.966950     3A    -11.262091
       4A    -11.257626     5A    -11.231037     6A    -11.221275
       7A    -11.216785     8A    -11.210041     9A     -8.966331
      10A     -8.965719    11A     -6.647436    12A     -6.646774
      13A     -6.646164    14A     -6.645581    15A     -6.645345
      16A     -6.644782    17A     -1.110644    18A     -1.076510
      19A     -1.011651    20A     -0.935053    21A     -0.931178
      22A     -0.860937    23A     -0.793615    24A     -0.751946
      25A     -0.643905    26A     -0.629894    27A     -0.604371
      28A     -0.591409    29A     -0.585650    30A     -0.551490
      31A     -0.541272    32A     -0.535448    33A     -0.513458
      34A     -0.507477    35A     -0.492702    36A     -0.475724
      37A     -0.471756    38A     -0.452569    39A     -0.428666
      40A     -0.352878    41A     -0.344097

  @DF-RHF Final Energy: -1030.54806903808367

   => Energetics <=

    Nuclear Repulsion Energy =            555.7124034961098005
    One-Electron Energy =               -2521.8494915210189902
    Two-Electron Energy =                 935.5890189868255220
    Total Energy =                      -1030.5480690380836677
  Basis Set: (AUG-CC-PVTZ AUX)
    Blend: AUG-CC-PVTZ-RI
    Molecular point group: c1

    Geometry (in Angstrom), charge = 0, multiplicity = 1:

       Center              X                  Y                   Z               Mass
    ------------   -----------------  -----------------  -----------------  -----------------
         S           -0.240806706746    -1.003014397185    -0.503919442953    31.972071174400
         S           -1.249489706746    -0.048790397185     1.015207557047    31.972071174400
         C            2.167357293254     0.327506602815     0.182090557047    12.000000000000
         C            1.083138293254     0.192049602815    -0.884669442953    12.000000000000
         C            2.962782293254    -0.963420397185     0.350544557047    12.000000000000
         C            3.088213293254     1.493406602815    -0.178418442953    12.000000000000
         C           -2.428091706746     0.998264602815     0.099712557047    12.000000000000
         C           -3.509122706746     0.217160602815    -0.630311442953    12.000000000000
         H            1.669803293254     0.563222602815     1.131710557047     1.007825032230
         H            0.621483293254     1.163676602815    -1.092129442953     1.007825032230
         H            1.522536293254    -0.168506397185    -1.824534442953     1.007825032230
         H            3.488312293254    -1.211631397185    -0.579013442953     1.007825032230
         H            3.704305993254    -0.868628497185     1.149707257047     1.007825032230
         H            2.312442293254    -1.802246397185     0.610465557047     1.007825032230
         H            3.588076293254     1.309256602815    -1.136045442953     1.007825032230
         H            3.862590293254     1.625223602815     0.583585557047     1.007825032230
         H            2.531275293254     2.432298602815    -0.260644442953     1.007825032230
         H           -2.864666706746     1.645892602815     0.868490557047     1.007825032230
         H           -1.870077706746     1.640852602815    -0.588163442953     1.007825032230
         H           -3.067798706746    -0.447562397185    -1.376553442953     1.007825032230
         H           -4.089144706746    -0.387520397185     0.070729557047     1.007825032230
         H           -4.189092706746     0.904368602815    -1.143862442953     1.007825032230

  Basis Set: AUG-CC-PVTZ
    Blend: AUG-CC-PVTZ
  Basis Set: (AUG-CC-PVTZ AUX)
    Blend: AUG-CC-PVTZ-JKFIT
	 Reference Energy          =   -1030.5480690380836677 [Eh]
	 Singles Energy            =      -0.0000000000000000 [Eh]
	 Same-Spin Energy          =      -0.3700987703572345 [Eh]
	 Opposite-Spin Energy      =      -1.2688845256053081 [Eh]
	 Correlation Energy        =      -1.6389832959625426 [Eh]
	 Total Energy              =   -1032.1870523340462569 [Eh]

	 ================> DF-SCS-MP2 Energies <==================
	-----------------------------------------------------------
	 SCS Same-Spin Scale       =       0.3333333333333333 [-]
	 SCS Opposite-Spin Scale   =       1.2000000000000000 [-]
	 SCS Same-Spin Energy      =      -0.1233662567857448 [Eh]
	 SCS Opposite-Spin Energy  =      -1.5226614307263697 [Eh]
	 SCS Correlation Energy    =      -1.6460276875121145 [Eh]
	 SCS Total Energy          =   -1032.1940967255957275 [Eh]
	-----------------------------------------------------------

  Dipole Moment: [D]
     X:     0.1157      Y:     1.7623      Z:    -0.8574     Total:     1.9633

*** Psi4 exiting successfully. Buy a developer a beer!
