                               Psi4 1.4a3.dev225

  ==> Input File <==

--------------------------------------------------------------------------
#psi4
#
memory 32 gb

molecule  {
0 1
  S       -0.2843280    -1.0417270    -0.4821980
  S       -1.2930110    -0.0875030     1.0369290
  C        2.1238360     0.2887940     0.2038120
  C        1.0396170     0.1533370    -0.8629480
  C        2.9192610    -1.0021330     0.3722660
  C        3.0446920     1.4546940    -0.1566970
  C       -2.4716130     0.9595520     0.1214340
  C       -3.5526440     0.1784480    -0.6085900
  H        1.6262820     0.5245100     1.1534320
  H        0.5779620     1.1249640    -1.0704080
  H        1.4390105    -0.1743925    -1.7172440
  H        3.4447910    -1.2503440    -0.5572920
  H        3.6685600    -0.8925200     1.1622280
  H        2.2689210    -1.8409590     0.6321870
  H        3.5445550     1.2705440    -1.1143240
  H        3.8190690     1.5865110     0.6053070
  H        2.4877540     2.3935860    -0.2389230
  H       -2.9081880     1.6071800     0.8902120
  H       -1.9135990     1.6021400    -0.5664420
  H       -3.1113200    -0.4862750    -1.3548320
  H       -4.1326660    -0.4262330     0.0924510
  H       -4.2326140     0.8656560    -1.1221410
units angstrom
no_reorient  #important for SAPT in psi4, default
symmetry c1  #important for SAPT in psi4, default
}

set PROPERTIES_ORIGIN ["COM"]
properties('MP2/aug-cc-pvtz', properties = ['dipole'])
--------------------------------------------------------------------------

    Molecular point group: c1
  Charge       = 0
  Multiplicity = 1
  Basis Set: AUG-CC-PVTZ
    Blend: AUG-CC-PVTZ
  Basis Set: (AUG-CC-PVTZ AUX)
    Blend: AUG-CC-PVTZ-JKFIT

    Orbital Energies [Eh]
    ---------------------

    Doubly Occupied:

       1A    -91.967226     2A    -91.966294     3A    -11.261880
       4A    -11.245599     5A    -11.230094     6A    -11.221120
       7A    -11.216816     8A    -11.210104     9A     -8.966050
      10A     -8.965142    11A     -6.647147    12A     -6.646229
      13A     -6.645880    14A     -6.645068    15A     -6.645010
      16A     -6.644221    17A     -1.113141    18A     -1.076586
      19A     -1.012669    20A     -0.939997    21A     -0.931117
      22A     -0.862849    23A     -0.794331    24A     -0.757750
      25A     -0.645736    26A     -0.629720    27A     -0.607507
      28A     -0.592409    29A     -0.588105    30A     -0.557223
      31A     -0.541164    32A     -0.535253    33A     -0.514249
      34A     -0.507795    35A     -0.492694    36A     -0.475197
      37A     -0.472442    38A     -0.452511    39A     -0.429471
      40A     -0.352607    41A     -0.343731

  @DF-RHF Final Energy: -1030.54248587398479

   => Energetics <=

    Nuclear Repulsion Energy =            556.3037561398219850
    One-Electron Energy =               -2522.9922175256797345
    Two-Electron Energy =                 936.1459755118729618
    Total Energy =                      -1030.5424858739847878
  Basis Set: (AUG-CC-PVTZ AUX)
    Blend: AUG-CC-PVTZ-RI
    Molecular point group: c1

    Geometry (in Angstrom), charge = 0, multiplicity = 1:

       Center              X                  Y                   Z               Mass
    ------------   -----------------  -----------------  -----------------  -----------------
         S           -0.240590241600    -1.003334418926    -0.504432365247    31.972071174400
         S           -1.249273241600    -0.049110418926     1.014694634753    31.972071174400
         C            2.167573758400     0.327186581074     0.181577634753    12.000000000000
         C            1.083354758400     0.191729581074    -0.885182365247    12.000000000000
         C            2.962998758400    -0.963740418926     0.350031634753    12.000000000000
         C            3.088429758400     1.493086581074    -0.178931365247    12.000000000000
         C           -2.427875241600     0.997944581074     0.099199634753    12.000000000000
         C           -3.508906241600     0.216840581074    -0.630824365247    12.000000000000
         H            1.670019758400     0.562902581074     1.131197634753     1.007825032230
         H            0.621699758400     1.163356581074    -1.092642365247     1.007825032230
         H            1.482748258400    -0.135999918926    -1.739478365247     1.007825032230
         H            3.488528758400    -1.211951418926    -0.579526365247     1.007825032230
         H            3.712297758400    -0.854127418926     1.139993634753     1.007825032230
         H            2.312658758400    -1.802566418926     0.609952634753     1.007825032230
         H            3.588292758400     1.308936581074    -1.136558365247     1.007825032230
         H            3.862806758400     1.624903581074     0.583072634753     1.007825032230
         H            2.531491758400     2.431978581074    -0.261157365247     1.007825032230
         H           -2.864450241600     1.645572581074     0.867977634753     1.007825032230
         H           -1.869861241600     1.640532581074    -0.588676365247     1.007825032230
         H           -3.067582241600    -0.447882418926    -1.377066365247     1.007825032230
         H           -4.088928241600    -0.387840418926     0.070216634753     1.007825032230
         H           -4.188876241600     0.904048581074    -1.144375365247     1.007825032230

  Basis Set: AUG-CC-PVTZ
    Blend: AUG-CC-PVTZ
  Basis Set: (AUG-CC-PVTZ AUX)
    Blend: AUG-CC-PVTZ-JKFIT
	 Reference Energy          =   -1030.5424858739847878 [Eh]
	 Singles Energy            =      -0.0000000000000000 [Eh]
	 Same-Spin Energy          =      -0.3699296578547350 [Eh]
	 Opposite-Spin Energy      =      -1.2682975005155095 [Eh]
	 Correlation Energy        =      -1.6382271583702446 [Eh]
	 Total Energy              =   -1032.1807130323550155 [Eh]

	 ================> DF-SCS-MP2 Energies <==================
	-----------------------------------------------------------
	 SCS Same-Spin Scale       =       0.3333333333333333 [-]
	 SCS Opposite-Spin Scale   =       1.2000000000000000 [-]
	 SCS Same-Spin Energy      =      -0.1233098859515783 [Eh]
	 SCS Opposite-Spin Energy  =      -1.5219570006186114 [Eh]
	 SCS Correlation Energy    =      -1.6452668865701896 [Eh]
	 SCS Total Energy          =   -1032.1877527605549858 [Eh]
	-----------------------------------------------------------

  Dipole Moment: [D]
     X:     0.1322      Y:     1.7641      Z:    -0.8940     Total:     1.9821

*** Psi4 exiting successfully. Buy a developer a beer!
