                               Psi4 1.4a3.dev225

  ==> Input File <==

--------------------------------------------------------------------------
#psi4
#
memory 32 gb

molecule  {
0 1
  S       -0.2843280    -1.0417270    -0.4821980
  S       -1.2930110    -0.0875030     1.0369290
  C        2.1238360     0.2887940     0.2038120
  C        1.0396170     0.1533370    -0.8629480
  C        2.9192610    -1.0021330     0.3722660
  C        3.0446920     1.4546940    -0.1566970
  C       -2.4716130     0.9595520     0.1214340
  C       -3.5596610     0.1671495    -0.5856277
  H        1.6262820     0.5245100     1.1534320
  H        0.5779620     1.1249640    -1.0704080
  H        1.4790150    -0.2072190    -1.8028130
  H        3.4447910    -1.2503440    -0.5572920
  H        3.6685600    -0.8925200     1.1622280
  H        2.2689210    -1.8409590     0.6321870
  H        3.5445550     1.2705440    -1.1143240
  H        3.8190690     1.5865110     0.6053070
  H        2.4877540     2.3935860    -0.2389230
  H       -2.9081880     1.6071800     0.8902120
  H       -1.9135990     1.6021400    -0.5664420
  H       -3.1113200    -0.4862750    -1.3548320
  H       -4.1326660    -0.4262330     0.0924510
  H       -4.2326140     0.8656560    -1.1221410
units angstrom
no_reorient  #important for SAPT in psi4, default
symmetry c1  #important for SAPT in psi4, default
}

set PROPERTIES_ORIGIN ["COM"]
properties('MP2/aug-cc-pvtz', properties = ['dipole'])
--------------------------------------------------------------------------

    Molecular point group: c1
  Charge       = 0
  Multiplicity = 1
  Basis Set: AUG-CC-PVTZ
    Blend: AUG-CC-PVTZ
  Basis Set: (AUG-CC-PVTZ AUX)
    Blend: AUG-CC-PVTZ-JKFIT

    Orbital Energies [Eh]
    ---------------------

    Doubly Occupied:

       1A    -91.967148     2A    -91.966842     3A    -11.262333
       4A    -11.257500     5A    -11.230859     6A    -11.221521
       7A    -11.216789     8A    -11.210025     9A     -8.966035
      10A     -8.965603    11A     -6.647150    12A     -6.646642
      13A     -6.645865    14A     -6.645471    15A     -6.645043
      16A     -6.644672    17A     -1.110623    18A     -1.076694
      19A     -1.011666    20A     -0.934862    21A     -0.931061
      22A     -0.860985    23A     -0.793731    24A     -0.752028
      25A     -0.643703    26A     -0.631035    27A     -0.604748
      28A     -0.589606    29A     -0.584502    30A     -0.552190
      31A     -0.541958    32A     -0.534878    33A     -0.517641
      34A     -0.507767    35A     -0.491150    36A     -0.475050
      37A     -0.471250    38A     -0.451761    39A     -0.428591
      40A     -0.352926    41A     -0.343718

  @DF-RHF Final Energy: -1030.54728884945621

   => Energetics <=

    Nuclear Repulsion Energy =            555.7484113711219607
    One-Electron Energy =               -2521.9241537806001361
    Two-Electron Energy =                 935.6284535600219670
    Total Energy =                      -1030.5472888494559811
  Basis Set: (AUG-CC-PVTZ AUX)
    Blend: AUG-CC-PVTZ-RI
    Molecular point group: c1

    Geometry (in Angstrom), charge = 0, multiplicity = 1:

       Center              X                  Y                   Z               Mass
    ------------   -----------------  -----------------  -----------------  -----------------
         S           -0.240297769868    -1.002210385487    -0.505693973784    31.972071174400
         S           -1.248980769868    -0.047986385487     1.013433026216    31.972071174400
         C            2.167866230132     0.328310614513     0.180316026216    12.000000000000
         C            1.083647230132     0.192853614513    -0.886443973784    12.000000000000
         C            2.963291230132    -0.962616385487     0.348770026216    12.000000000000
         C            3.088722230132     1.494210614513    -0.180192973784    12.000000000000
         C           -2.427582769868     0.999068614513     0.097938026216    12.000000000000
         C           -3.515630769868     0.206666114513    -0.609123673784    12.000000000000
         H            1.670312230132     0.564026614513     1.129936026216     1.007825032230
         H            0.621992230132     1.164480614513    -1.093903973784     1.007825032230
         H            1.523045230132    -0.167702385487    -1.826308973784     1.007825032230
         H            3.488821230132    -1.210827385487    -0.580787973784     1.007825032230
         H            3.712590230132    -0.853003385487     1.138732026216     1.007825032230
         H            2.312951230132    -1.801442385487     0.608691026216     1.007825032230
         H            3.588585230132     1.310060614513    -1.137819973784     1.007825032230
         H            3.863099230132     1.626027614513     0.581811026216     1.007825032230
         H            2.531784230132     2.433102614513    -0.262418973784     1.007825032230
         H           -2.864157769868     1.646696614513     0.866716026216     1.007825032230
         H           -1.869568769868     1.641656614513    -0.589937973784     1.007825032230
         H           -3.067289769868    -0.446758385487    -1.378327973784     1.007825032230
         H           -4.088635769868    -0.386716385487     0.068955026216     1.007825032230
         H           -4.188583769868     0.905172614513    -1.145636973784     1.007825032230

  Basis Set: AUG-CC-PVTZ
    Blend: AUG-CC-PVTZ
  Basis Set: (AUG-CC-PVTZ AUX)
    Blend: AUG-CC-PVTZ-JKFIT
	 Reference Energy          =   -1030.5472888494562085 [Eh]
	 Singles Energy            =      -0.0000000000000000 [Eh]
	 Same-Spin Energy          =      -0.3701371328273626 [Eh]
	 Opposite-Spin Energy      =      -1.2689389088981948 [Eh]
	 Correlation Energy        =      -1.6390760417255574 [Eh]
	 Total Energy              =   -1032.1863648911817108 [Eh]

	 ================> DF-SCS-MP2 Energies <==================
	-----------------------------------------------------------
	 SCS Same-Spin Scale       =       0.3333333333333333 [-]
	 SCS Opposite-Spin Scale   =       1.2000000000000000 [-]
	 SCS Same-Spin Energy      =      -0.1233790442757875 [Eh]
	 SCS Opposite-Spin Energy  =      -1.5227266906778338 [Eh]
	 SCS Correlation Energy    =      -1.6461057349536214 [Eh]
	 SCS Total Energy          =   -1032.1933945844098162 [Eh]
	-----------------------------------------------------------

  Dipole Moment: [D]
     X:     0.1055      Y:     1.7641      Z:    -0.8558     Total:     1.9635

*** Psi4 exiting successfully. Buy a developer a beer!
