                               Psi4 1.4a3.dev225

  ==> Input File <==

--------------------------------------------------------------------------
#psi4
#
memory 32 gb

molecule  {
0 1
  S       -0.2843280    -1.0417270    -0.4821980
  S       -1.2930110    -0.0875030     1.0369290
  C        2.1238360     0.2887940     0.2038120
  C        1.0396170     0.1533370    -0.8629480
  C        2.9192610    -1.0021330     0.3722660
  C        3.0446920     1.4546940    -0.1566970
  C       -2.4716130     0.9595520     0.1214340
  C       -3.6948453     0.0756998    -0.7046191
  H        1.6262820     0.5245100     1.1534320
  H        0.5779620     1.1249640    -1.0704080
  H        1.4790150    -0.2072190    -1.8028130
  H        3.4447910    -1.2503440    -0.5572920
  H        3.6685600    -0.8925200     1.1622280
  H        2.2689210    -1.8409590     0.6321870
  H        3.5445550     1.2705440    -1.1143240
  H        3.8190690     1.5865110     0.6053070
  H        2.4877540     2.3935860    -0.2389230
  H       -2.9081880     1.6071800     0.8902120
  H       -1.9135990     1.6021400    -0.5664420
  H       -3.1113200    -0.4862750    -1.3548320
  H       -4.1326660    -0.4262330     0.0924510
  H       -4.2326140     0.8656560    -1.1221410
units angstrom
no_reorient  #important for SAPT in psi4, default
symmetry c1  #important for SAPT in psi4, default
}

set PROPERTIES_ORIGIN ["COM"]
properties('MP2/aug-cc-pvtz', properties = ['dipole'])
--------------------------------------------------------------------------

    Molecular point group: c1
  Charge       = 0
  Multiplicity = 1
  Basis Set: AUG-CC-PVTZ
    Blend: AUG-CC-PVTZ
  Basis Set: (AUG-CC-PVTZ AUX)
    Blend: AUG-CC-PVTZ-JKFIT

    Orbital Energies [Eh]
    ---------------------

    Doubly Occupied:

       1A    -91.967659     2A    -91.966628     3A    -11.266979
       4A    -11.257314     5A    -11.230748     6A    -11.221325
       7A    -11.216666     8A    -11.209900     9A     -8.966227
      10A     -8.965409    11A     -6.647350    12A     -6.646481
      13A     -6.646066    14A     -6.645290    15A     -6.645264
      16A     -6.644478    17A     -1.109089    18A     -1.063687
      19A     -1.001591    20A     -0.937860    21A     -0.931014
      22A     -0.867934    23A     -0.793278    24A     -0.750310
      25A     -0.642621    26A     -0.628268    27A     -0.606876
      28A     -0.599335    29A     -0.588223    30A     -0.554338
      31A     -0.541282    32A     -0.535800    33A     -0.513008
      34A     -0.504004    35A     -0.491098    36A     -0.476008
      37A     -0.469782    38A     -0.444678    39A     -0.428232
      40A     -0.350790    41A     -0.339045

  @DF-RHF Final Energy: -1030.52156490378115

   => Energetics <=

    Nuclear Repulsion Energy =            552.6218703124625335
    One-Electron Energy =               -2515.6629982059098438
    Two-Electron Energy =                 932.5195629896661558
    Total Energy =                      -1030.5215649037811545
  Basis Set: (AUG-CC-PVTZ AUX)
    Blend: AUG-CC-PVTZ-RI
    Molecular point group: c1

    Geometry (in Angstrom), charge = 0, multiplicity = 1:

       Center              X                  Y                   Z               Mass
    ------------   -----------------  -----------------  -----------------  -----------------
         S           -0.229486895642    -0.994897027318    -0.496178068021    31.972071174400
         S           -1.238169895642    -0.040673027318     1.022948931979    31.972071174400
         C            2.178677104358     0.335623972682     0.189831931979    12.000000000000
         C            1.094458104358     0.200166972682    -0.876928068021    12.000000000000
         C            2.974102104358    -0.955303027318     0.358285931979    12.000000000000
         C            3.099533104358     1.501523972682    -0.170677068021    12.000000000000
         C           -2.416771895642     1.006381972682     0.107453931979    12.000000000000
         C           -3.640004195642     0.122529772682    -0.718599168021    12.000000000000
         H            1.681123104358     0.571339972682     1.139451931979     1.007825032230
         H            0.632803104358     1.171793972682    -1.084388068021     1.007825032230
         H            1.533856104358    -0.160389027318    -1.816793068021     1.007825032230
         H            3.499632104358    -1.203514027318    -0.571272068021     1.007825032230
         H            3.723401104358    -0.845690027318     1.148247931979     1.007825032230
         H            2.323762104358    -1.794129027318     0.618206931979     1.007825032230
         H            3.599396104358     1.317373972682    -1.128304068021     1.007825032230
         H            3.873910104358     1.633340972682     0.591326931979     1.007825032230
         H            2.542595104358     2.440415972682    -0.252903068021     1.007825032230
         H           -2.853346895642     1.654009972682     0.876231931979     1.007825032230
         H           -1.858757895642     1.648969972682    -0.580422068021     1.007825032230
         H           -3.056478895642    -0.439445027318    -1.368812068021     1.007825032230
         H           -4.077824895642    -0.379403027318     0.078470931979     1.007825032230
         H           -4.177772895642     0.912485972682    -1.136121068021     1.007825032230

  Basis Set: AUG-CC-PVTZ
    Blend: AUG-CC-PVTZ
  Basis Set: (AUG-CC-PVTZ AUX)
    Blend: AUG-CC-PVTZ-JKFIT
	 Reference Energy          =   -1030.5215649037811545 [Eh]
	 Singles Energy            =      -0.0000000000000000 [Eh]
	 Same-Spin Energy          =      -0.3700623639400971 [Eh]
	 Opposite-Spin Energy      =      -1.2701169321331331 [Eh]
	 Correlation Energy        =      -1.6401792960732302 [Eh]
	 Total Energy              =   -1032.1617441998544109 [Eh]

	 ================> DF-SCS-MP2 Energies <==================
	-----------------------------------------------------------
	 SCS Same-Spin Scale       =       0.3333333333333333 [-]
	 SCS Opposite-Spin Scale   =       1.2000000000000000 [-]
	 SCS Same-Spin Energy      =      -0.1233541213133657 [Eh]
	 SCS Opposite-Spin Energy  =      -1.5241403185597597 [Eh]
	 SCS Correlation Energy    =      -1.6474944398731255 [Eh]
	 SCS Total Energy          =   -1032.1690593436542258 [Eh]
	-----------------------------------------------------------

  Dipole Moment: [D]
     X:     0.1642      Y:     1.7950      Z:    -0.8221     Total:     1.9811

*** Psi4 exiting successfully. Buy a developer a beer!
