                               Psi4 1.4a3.dev225

  ==> Input File <==

--------------------------------------------------------------------------
#psi4
#
memory 32 gb

molecule  {
0 1
  S       -0.2843280    -1.0417270    -0.4821980
  S       -1.2930110    -0.0875030     1.0369290
  C        2.2628042     0.3602493     0.1708979
  C        1.0396170     0.1533370    -0.8629480
  C        2.9192610    -1.0021330     0.3722660
  C        3.0446920     1.4546940    -0.1566970
  C       -2.4716130     0.9595520     0.1214340
  C       -3.5526440     0.1784480    -0.6085900
  H        1.6262820     0.5245100     1.1534320
  H        0.5779620     1.1249640    -1.0704080
  H        1.4790150    -0.2072190    -1.8028130
  H        3.4447910    -1.2503440    -0.5572920
  H        3.6685600    -0.8925200     1.1622280
  H        2.2689210    -1.8409590     0.6321870
  H        3.5445550     1.2705440    -1.1143240
  H        3.8190690     1.5865110     0.6053070
  H        2.4877540     2.3935860    -0.2389230
  H       -2.9081880     1.6071800     0.8902120
  H       -1.9135990     1.6021400    -0.5664420
  H       -3.1113200    -0.4862750    -1.3548320
  H       -4.1326660    -0.4262330     0.0924510
  H       -4.2326140     0.8656560    -1.1221410
units angstrom
no_reorient  #important for SAPT in psi4, default
symmetry c1  #important for SAPT in psi4, default
}

set PROPERTIES_ORIGIN ["COM"]
properties('MP2/aug-cc-pvtz', properties = ['dipole'])
--------------------------------------------------------------------------

    Molecular point group: c1
  Charge       = 0
  Multiplicity = 1
  Basis Set: AUG-CC-PVTZ
    Blend: AUG-CC-PVTZ
  Basis Set: (AUG-CC-PVTZ AUX)
    Blend: AUG-CC-PVTZ-JKFIT

    Orbital Energies [Eh]
    ---------------------

    Doubly Occupied:

       1A    -91.969350     2A    -91.967132     3A    -11.261782
       4A    -11.257832     5A    -11.236392     6A    -11.221239
       7A    -11.212921     8A    -11.211907     9A     -8.967733
      10A     -8.965962    11A     -6.648834    12A     -6.647568
      13A     -6.647005    14A     -6.646777    15A     -6.645813
      16A     -6.644988    17A     -1.113570    18A     -1.081870
      19A     -1.017994    20A     -0.944597    21A     -0.932130
      22A     -0.857768    23A     -0.785214    24A     -0.744890
      25A     -0.645116    26A     -0.631767    27A     -0.612810
      28A     -0.594329    29A     -0.589436    30A     -0.557246
      31A     -0.542198    32A     -0.536626    33A     -0.519069
      34A     -0.511794    35A     -0.497615    36A     -0.481004
      37A     -0.447578    38A     -0.438628    39A     -0.426445
      40A     -0.351513    41A     -0.342499

  @DF-RHF Final Energy: -1030.51914539167819

   => Energetics <=

    Nuclear Repulsion Energy =            554.6550655727905905
    One-Electron Energy =               -2519.6345493099979649
    Two-Electron Energy =                 934.4603383455291805
    Total Energy =                      -1030.5191453916781938
  Basis Set: (AUG-CC-PVTZ AUX)
    Blend: AUG-CC-PVTZ-RI
    Molecular point group: c1

    Geometry (in Angstrom), charge = 0, multiplicity = 1:

       Center              X                  Y                   Z               Mass
    ------------   -----------------  -----------------  -----------------  -----------------
         S           -0.251972406908    -1.008828320583    -0.501225461297    31.972071174400
         S           -1.260655406908    -0.054604320583     1.017901538703    31.972071174400
         C            2.295159793092     0.393147979417     0.151870438703    12.000000000000
         C            1.071972593092     0.186235679417    -0.881975461297    12.000000000000
         C            2.951616593092    -0.969234320583     0.353238538703    12.000000000000
         C            3.077047593092     1.487592679417    -0.175724461297    12.000000000000
         C           -2.439257406908     0.992450679417     0.102406538703    12.000000000000
         C           -3.520288406908     0.211346679417    -0.627617461297    12.000000000000
         H            1.658637593092     0.557408679417     1.134404538703     1.007825032230
         H            0.610317593092     1.157862679417    -1.089435461297     1.007825032230
         H            1.511370593092    -0.174320320583    -1.821840461297     1.007825032230
         H            3.477146593092    -1.217445320583    -0.576319461297     1.007825032230
         H            3.700915593092    -0.859621320583     1.143200538703     1.007825032230
         H            2.301276593092    -1.808060320583     0.613159538703     1.007825032230
         H            3.576910593092     1.303442679417    -1.133351461297     1.007825032230
         H            3.851424593092     1.619409679417     0.586279538703     1.007825032230
         H            2.520109593092     2.426484679417    -0.257950461297     1.007825032230
         H           -2.875832406908     1.640078679417     0.871184538703     1.007825032230
         H           -1.881243406908     1.635038679417    -0.585469461297     1.007825032230
         H           -3.078964406908    -0.453376320583    -1.373859461297     1.007825032230
         H           -4.100310406908    -0.393334320583     0.073423538703     1.007825032230
         H           -4.200258406908     0.898554679417    -1.141168461297     1.007825032230

  Basis Set: AUG-CC-PVTZ
    Blend: AUG-CC-PVTZ
  Basis Set: (AUG-CC-PVTZ AUX)
    Blend: AUG-CC-PVTZ-JKFIT
	 Reference Energy          =   -1030.5191453916781938 [Eh]
	 Singles Energy            =      -0.0000000000000000 [Eh]
	 Same-Spin Energy          =      -0.3716109703901738 [Eh]
	 Opposite-Spin Energy      =      -1.2712459798981794 [Eh]
	 Correlation Energy        =      -1.6428569502883532 [Eh]
	 Total Energy              =   -1032.1620023419666268 [Eh]

	 ================> DF-SCS-MP2 Energies <==================
	-----------------------------------------------------------
	 SCS Same-Spin Scale       =       0.3333333333333333 [-]
	 SCS Opposite-Spin Scale   =       1.2000000000000000 [-]
	 SCS Same-Spin Energy      =      -0.1238703234633912 [Eh]
	 SCS Opposite-Spin Energy  =      -1.5254951758778152 [Eh]
	 SCS Correlation Energy    =      -1.6493654993412066 [Eh]
	 SCS Total Energy          =   -1032.1685108910194231 [Eh]
	-----------------------------------------------------------

  Dipole Moment: [D]
     X:     0.1344      Y:     1.8004      Z:    -0.8618     Total:     2.0006

*** Psi4 exiting successfully. Buy a developer a beer!
