                               Psi4 1.4a3.dev225

  ==> Input File <==

--------------------------------------------------------------------------
#psi4
#
memory 32 gb

molecule  {
0 1
  S       -0.2843280    -1.0417270    -0.4821980
  S       -1.2930110    -0.0875030     1.0369290
  C        2.1238360     0.2887940     0.2038120
  C        1.0396170     0.1533370    -0.8629480
  C        2.9192610    -1.0021330     0.3722660
  C        3.0446920     1.4546940    -0.1566970
  C       -2.4716130     0.9595520     0.1214340
  C       -3.5526440     0.1784480    -0.6085900
  H        1.6262820     0.5245100     1.1534320
  H        0.5779620     1.1249640    -1.0704080
  H        1.4790150    -0.2072190    -1.8028130
  H        3.4447910    -1.2503440    -0.5572920
  H        3.6685600    -0.8925200     1.1622280
  H        2.2689210    -1.8409590     0.6321870
  H        3.5445550     1.2705440    -1.1143240
  H        3.8190690     1.5865110     0.6053070
  H        2.4877540     2.3935860    -0.2389230
  H       -2.9081880     1.6071800     0.8902120
  H       -1.9135990     1.6021400    -0.5664420
  H       -3.1113200    -0.4862750    -1.3548320
  H       -4.0264820    -0.3155347    -0.0358878
  H       -4.2326140     0.8656560    -1.1221410
units angstrom
no_reorient  #important for SAPT in psi4, default
symmetry c1  #important for SAPT in psi4, default
}

set PROPERTIES_ORIGIN ["COM"]
properties('MP2/aug-cc-pvtz', properties = ['dipole'])
--------------------------------------------------------------------------

    Molecular point group: c1
  Charge       = 0
  Multiplicity = 1
  Basis Set: AUG-CC-PVTZ
    Blend: AUG-CC-PVTZ
  Basis Set: (AUG-CC-PVTZ AUX)
    Blend: AUG-CC-PVTZ-JKFIT

    Orbital Energies [Eh]
    ---------------------

    Doubly Occupied:

       1A    -91.967296     2A    -91.966657     3A    -11.260615
       4A    -11.257319     5A    -11.230754     6A    -11.216667
       7A    -11.209925     8A    -11.196572     9A     -8.966138
      10A     -8.965434    11A     -6.647245    12A     -6.646496
      13A     -6.645974    14A     -6.645297    15A     -6.645162
      16A     -6.644494    17A     -1.110872    18A     -1.080429
      19A     -1.017365    20A     -0.943510    21A     -0.931056
      22A     -0.869847    23A     -0.796561    24A     -0.753614
      25A     -0.647048    26A     -0.638434    27A     -0.605159
      28A     -0.590743    29A     -0.587625    30A     -0.558182
      31A     -0.544670    32A     -0.534969    33A     -0.526977
      34A     -0.508371    35A     -0.492341    36A     -0.475169
      37A     -0.471560    38A     -0.452269    39A     -0.428483
      40A     -0.352463    41A     -0.343849

  @DF-RHF Final Energy: -1030.51360231579724

   => Energetics <=

    Nuclear Repulsion Energy =            556.7295422726784864
    One-Electron Energy =               -2523.7390689578905949
    Two-Electron Energy =                 936.4959243694148654
    Total Energy =                      -1030.5136023157974705
  Basis Set: (AUG-CC-PVTZ AUX)
    Blend: AUG-CC-PVTZ-RI
    Molecular point group: c1

    Geometry (in Angstrom), charge = 0, multiplicity = 1:

       Center              X                  Y                   Z               Mass
    ------------   -----------------  -----------------  -----------------  -----------------
         S           -0.241572106338    -1.003857439372    -0.502995668613    31.972071174400
         S           -1.250255106338    -0.049633439372     1.016131331387    31.972071174400
         C            2.166591893662     0.326663560628     0.183014331387    12.000000000000
         C            1.082372893662     0.191206560628    -0.883745668613    12.000000000000
         C            2.962016893662    -0.964263439372     0.351468331387    12.000000000000
         C            3.087447893662     1.492563560628    -0.177494668613    12.000000000000
         C           -2.428857106338     0.997421560628     0.100636331387    12.000000000000
         C           -3.509888106338     0.216317560628    -0.629387668613    12.000000000000
         H            1.669037893662     0.562379560628     1.132634331387     1.007825032230
         H            0.620717893662     1.162833560628    -1.091205668613     1.007825032230
         H            1.521770893662    -0.169349439372    -1.823610668613     1.007825032230
         H            3.487546893662    -1.212474439372    -0.578089668613     1.007825032230
         H            3.711315893662    -0.854650439372     1.141430331387     1.007825032230
         H            2.311676893662    -1.803089439372     0.611389331387     1.007825032230
         H            3.587310893662     1.308413560628    -1.135121668613     1.007825032230
         H            3.861824893662     1.624380560628     0.584509331387     1.007825032230
         H            2.530509893662     2.431455560628    -0.259720668613     1.007825032230
         H           -2.865432106338     1.645049560628     0.869414331387     1.007825032230
         H           -1.870843106338     1.640009560628    -0.587239668613     1.007825032230
         H           -3.068564106338    -0.448405439372    -1.375629668613     1.007825032230
         H           -3.983726106338    -0.277665139372    -0.056685468613     1.007825032230
         H           -4.189858106338     0.903525560628    -1.142938668613     1.007825032230

  Basis Set: AUG-CC-PVTZ
    Blend: AUG-CC-PVTZ
  Basis Set: (AUG-CC-PVTZ AUX)
    Blend: AUG-CC-PVTZ-JKFIT
	 Reference Energy          =   -1030.5136023157972431 [Eh]
	 Singles Energy            =      -0.0000000000000000 [Eh]
	 Same-Spin Energy          =      -0.3702402399889008 [Eh]
	 Opposite-Spin Energy      =      -1.2683581523201624 [Eh]
	 Correlation Energy        =      -1.6385983923090630 [Eh]
	 Total Energy              =   -1032.1522007081061929 [Eh]

	 ================> DF-SCS-MP2 Energies <==================
	-----------------------------------------------------------
	 SCS Same-Spin Scale       =       0.3333333333333333 [-]
	 SCS Opposite-Spin Scale   =       1.2000000000000000 [-]
	 SCS Same-Spin Energy      =      -0.1234134133296336 [Eh]
	 SCS Opposite-Spin Energy  =      -1.5220297827841949 [Eh]
	 SCS Correlation Energy    =      -1.6454431961138285 [Eh]
	 SCS Total Energy          =   -1032.1590455119110175 [Eh]
	-----------------------------------------------------------

  Dipole Moment: [D]
     X:     0.0583      Y:     1.7360      Z:    -0.8403     Total:     1.9295

*** Psi4 exiting successfully. Buy a developer a beer!
