                               Psi4 1.4a3.dev225

  ==> Input File <==

--------------------------------------------------------------------------
#psi4
#
memory 32 gb

molecule  {
0 1
  S       -0.2843280    -1.0417270    -0.4821980
  S       -1.2930110    -0.0875030     1.0369290
  C        2.1692638     0.3142259     0.1926173
  C        1.0396170     0.1533370    -0.8629480
  C        2.9192610    -1.0021330     0.3722660
  C        3.0446920     1.4546940    -0.1566970
  C       -2.4716130     0.9595520     0.1214340
  C       -3.5526440     0.1784480    -0.6085900
  H        1.6262820     0.5245100     1.1534320
  H        0.5779620     1.1249640    -1.0704080
  H        1.4790150    -0.2072190    -1.8028130
  H        3.4447910    -1.2503440    -0.5572920
  H        3.6685600    -0.8925200     1.1622280
  H        2.2689210    -1.8409590     0.6321870
  H        3.5445550     1.2705440    -1.1143240
  H        3.8190690     1.5865110     0.6053070
  H        2.4877540     2.3935860    -0.2389230
  H       -2.9081880     1.6071800     0.8902120
  H       -1.9135990     1.6021400    -0.5664420
  H       -3.1113200    -0.4862750    -1.3548320
  H       -4.1326660    -0.4262330     0.0924510
  H       -4.2326140     0.8656560    -1.1221410
units angstrom
no_reorient  #important for SAPT in psi4, default
symmetry c1  #important for SAPT in psi4, default
}

set PROPERTIES_ORIGIN ["COM"]
properties('MP2/aug-cc-pvtz', properties = ['dipole'])
--------------------------------------------------------------------------

    Molecular point group: c1
  Charge       = 0
  Multiplicity = 1
  Basis Set: AUG-CC-PVTZ
    Blend: AUG-CC-PVTZ
  Basis Set: (AUG-CC-PVTZ AUX)
    Blend: AUG-CC-PVTZ-JKFIT

    Orbital Energies [Eh]
    ---------------------

    Doubly Occupied:

       1A    -91.967837     2A    -91.967411     3A    -11.262015
       4A    -11.257582     5A    -11.232108     6A    -11.221291
       7A    -11.215645     8A    -11.210270     9A     -8.966509
      10A     -8.966205    11A     -6.647650    12A     -6.647225
      13A     -6.646319    14A     -6.646083    15A     -6.645524
      16A     -6.645266    17A     -1.110299    18A     -1.077953
      19A     -1.013862    20A     -0.935875    21A     -0.933643
      22A     -0.859963    23A     -0.790723    24A     -0.749543
      25A     -0.643118    26A     -0.630448    27A     -0.607057
      28A     -0.592540    29A     -0.586799    30A     -0.552850
      31A     -0.541616    32A     -0.535281    33A     -0.513029
      34A     -0.508917    35A     -0.491191    36A     -0.480146
      37A     -0.461425    38A     -0.454835    39A     -0.428963
      40A     -0.352471    41A     -0.344005

  @DF-RHF Final Energy: -1030.54486349103263

   => Energetics <=

    Nuclear Repulsion Energy =            555.3468175258565225
    One-Electron Energy =               -2521.1003813295551481
    Two-Electron Energy =                 935.2087003126658828
    Total Energy =                      -1030.5448634910326291
  Basis Set: (AUG-CC-PVTZ AUX)
    Blend: AUG-CC-PVTZ-RI
    Molecular point group: c1

    Geometry (in Angstrom), charge = 0, multiplicity = 1:

       Center              X                  Y                   Z               Mass
    ------------   -----------------  -----------------  -----------------  -----------------
         S           -0.244491852587    -1.005147766045    -0.502962391559    31.972071174400
         S           -1.253174852587    -0.050923766045     1.016164608441    31.972071174400
         C            2.209099947413     0.350805133955     0.171852908441    12.000000000000
         C            1.079453147413     0.189916233955    -0.883712391559    12.000000000000
         C            2.959097147413    -0.965553766045     0.351501608441    12.000000000000
         C            3.084528147413     1.491273233955    -0.177461391559    12.000000000000
         C           -2.431776852587     0.996131233955     0.100669608441    12.000000000000
         C           -3.512807852587     0.215027233955    -0.629354391559    12.000000000000
         H            1.666118147413     0.561089233955     1.132667608441     1.007825032230
         H            0.617798147413     1.161543233955    -1.091172391559     1.007825032230
         H            1.518851147413    -0.170639766045    -1.823577391559     1.007825032230
         H            3.484627147413    -1.213764766045    -0.578056391559     1.007825032230
         H            3.708396147413    -0.855940766045     1.141463608441     1.007825032230
         H            2.308757147413    -1.804379766045     0.611422608441     1.007825032230
         H            3.584391147413     1.307123233955    -1.135088391559     1.007825032230
         H            3.858905147413     1.623090233955     0.584542608441     1.007825032230
         H            2.527590147413     2.430165233955    -0.259687391559     1.007825032230
         H           -2.868351852587     1.643759233955     0.869447608441     1.007825032230
         H           -1.873762852587     1.638719233955    -0.587206391559     1.007825032230
         H           -3.071483852587    -0.449695766045    -1.375596391559     1.007825032230
         H           -4.092829852587    -0.389653766045     0.071686608441     1.007825032230
         H           -4.192777852587     0.902235233955    -1.142905391559     1.007825032230

  Basis Set: AUG-CC-PVTZ
    Blend: AUG-CC-PVTZ
  Basis Set: (AUG-CC-PVTZ AUX)
    Blend: AUG-CC-PVTZ-JKFIT
	 Reference Energy          =   -1030.5448634910326291 [Eh]
	 Singles Energy            =      -0.0000000000000000 [Eh]
	 Same-Spin Energy          =      -0.3703480402814073 [Eh]
	 Opposite-Spin Energy      =      -1.2692342045361567 [Eh]
	 Correlation Energy        =      -1.6395822448175639 [Eh]
	 Total Energy              =   -1032.1844457358502041 [Eh]

	 ================> DF-SCS-MP2 Energies <==================
	-----------------------------------------------------------
	 SCS Same-Spin Scale       =       0.3333333333333333 [-]
	 SCS Opposite-Spin Scale   =       1.2000000000000000 [-]
	 SCS Same-Spin Energy      =      -0.1234493467604691 [Eh]
	 SCS Opposite-Spin Energy  =      -1.5230810454433878 [Eh]
	 SCS Correlation Energy    =      -1.6465303922038570 [Eh]
	 SCS Total Energy          =   -1032.1913938832365147 [Eh]
	-----------------------------------------------------------

  Dipole Moment: [D]
     X:     0.1171      Y:     1.7784      Z:    -0.8605     Total:     1.9791

*** Psi4 exiting successfully. Buy a developer a beer!
