                               Psi4 1.4a3.dev225

  ==> Input File <==

--------------------------------------------------------------------------
#psi4
#
memory 32 gb

molecule  {
0 1
  S       -0.2843280    -1.0417270    -0.4821980
  S       -1.2930110    -0.0875030     1.0369290
  C        2.1238360     0.2887940     0.2038120
  C        1.0396170     0.1533370    -0.8629480
  C        2.9192610    -1.0021330     0.3722660
  C        3.0446920     1.4546940    -0.1566970
  C       -2.4716130     0.9595520     0.1214340
  C       -3.5526440     0.1784480    -0.6085900
  H        1.6262820     0.5245100     1.1534320
  H        0.5779620     1.1249640    -1.0704080
  H        1.4790150    -0.2072190    -1.8028130
  H        3.4447910    -1.2503440    -0.5572920
  H        3.6685600    -0.8925200     1.1622280
  H        2.2689210    -1.8409590     0.6321870
  H        3.5445550     1.2705440    -1.1143240
  H        3.8190690     1.5865110     0.6053070
  H        2.4877540     2.3935860    -0.2389230
  H       -2.9081880     1.6071800     0.8902120
  H       -1.9645922     1.5434181    -0.5035816
  H       -3.1113200    -0.4862750    -1.3548320
  H       -4.1326660    -0.4262330     0.0924510
  H       -4.2326140     0.8656560    -1.1221410
units angstrom
no_reorient  #important for SAPT in psi4, default
symmetry c1  #important for SAPT in psi4, default
}

set PROPERTIES_ORIGIN ["COM"]
properties('MP2/aug-cc-pvtz', properties = ['dipole'])
--------------------------------------------------------------------------

    Molecular point group: c1
  Charge       = 0
  Multiplicity = 1
  Basis Set: AUG-CC-PVTZ
    Blend: AUG-CC-PVTZ
  Basis Set: (AUG-CC-PVTZ AUX)
    Blend: AUG-CC-PVTZ-JKFIT

    Orbital Energies [Eh]
    ---------------------

    Doubly Occupied:

       1A    -91.966851     2A    -91.966783     3A    -11.257552
       4A    -11.250138     5A    -11.230909     6A    -11.220477
       7A    -11.216844     8A    -11.210061     9A     -8.965738
      10A     -8.965547    11A     -6.646896    12A     -6.646552
      13A     -6.645529    14A     -6.645457    15A     -6.644686
      16A     -6.644683    17A     -1.111218    18A     -1.079982
      19A     -1.013058    20A     -0.934791    21A     -0.931102
      22A     -0.865613    23A     -0.798198    24A     -0.755068
      25A     -0.646261    26A     -0.636012    27A     -0.605244
      28A     -0.591345    29A     -0.586453    30A     -0.551421
      31A     -0.541553    32A     -0.534977    33A     -0.518188
      34A     -0.508448    35A     -0.493092    36A     -0.475373
      37A     -0.471853    38A     -0.452530    39A     -0.429518
      40A     -0.353000    41A     -0.344013

  @DF-RHF Final Energy: -1030.54245618143113

   => Energetics <=

    Nuclear Repulsion Energy =            556.1921814987650805
    One-Electron Energy =               -2522.7632517075580836
    Two-Electron Energy =                 936.0286140273619822
    Total Energy =                      -1030.5424561814311346
  Basis Set: (AUG-CC-PVTZ AUX)
    Blend: AUG-CC-PVTZ-RI
    Molecular point group: c1

    Geometry (in Angstrom), charge = 0, multiplicity = 1:

       Center              X                  Y                   Z               Mass
    ------------   -----------------  -----------------  -----------------  -----------------
         S           -0.240516436773    -1.002719540562    -0.504279844539    31.972071174400
         S           -1.249199436773    -0.048495540562     1.014847155461    31.972071174400
         C            2.167647563227     0.327801459438     0.181730155461    12.000000000000
         C            1.083428563227     0.192344459438    -0.885029844539    12.000000000000
         C            2.963072563227    -0.963125540562     0.350184155461    12.000000000000
         C            3.088503563227     1.493701459438    -0.178778844539    12.000000000000
         C           -2.427801436773     0.998559459438     0.099352155461    12.000000000000
         C           -3.508832436773     0.217455459438    -0.630671844539    12.000000000000
         H            1.670093563227     0.563517459438     1.131350155461     1.007825032230
         H            0.621773563227     1.163971459438    -1.092489844539     1.007825032230
         H            1.522826563227    -0.168211540562    -1.824894844539     1.007825032230
         H            3.488602563227    -1.211336540562    -0.579373844539     1.007825032230
         H            3.712371563227    -0.853512540562     1.140146155461     1.007825032230
         H            2.312732563227    -1.801951540562     0.610105155461     1.007825032230
         H            3.588366563227     1.309551459438    -1.136405844539     1.007825032230
         H            3.862880563227     1.625518459438     0.583225155461     1.007825032230
         H            2.531565563227     2.432593459438    -0.261004844539     1.007825032230
         H           -2.864376436773     1.646187459438     0.868130155461     1.007825032230
         H           -1.920780636773     1.582425559438    -0.525663444539     1.007825032230
         H           -3.067508436773    -0.447267540562    -1.376913844539     1.007825032230
         H           -4.088854436773    -0.387225540562     0.070369155461     1.007825032230
         H           -4.188802436773     0.904663459438    -1.144222844539     1.007825032230

  Basis Set: AUG-CC-PVTZ
    Blend: AUG-CC-PVTZ
  Basis Set: (AUG-CC-PVTZ AUX)
    Blend: AUG-CC-PVTZ-JKFIT
	 Reference Energy          =   -1030.5424561814311346 [Eh]
	 Singles Energy            =      -0.0000000000000000 [Eh]
	 Same-Spin Energy          =      -0.3699593764199028 [Eh]
	 Opposite-Spin Energy      =      -1.2683523988543501 [Eh]
	 Correlation Energy        =      -1.6383117752742531 [Eh]
	 Total Energy              =   -1032.1807679567054947 [Eh]

	 ================> DF-SCS-MP2 Energies <==================
	-----------------------------------------------------------
	 SCS Same-Spin Scale       =       0.3333333333333333 [-]
	 SCS Opposite-Spin Scale   =       1.2000000000000000 [-]
	 SCS Same-Spin Energy      =      -0.1233197921399676 [Eh]
	 SCS Opposite-Spin Energy  =      -1.5220228786252201 [Eh]
	 SCS Correlation Energy    =      -1.6453426707651877 [Eh]
	 SCS Total Energy          =   -1032.1877988521962379 [Eh]
	-----------------------------------------------------------

  Dipole Moment: [D]
     X:     0.1226      Y:     1.8040      Z:    -0.8776     Total:     2.0099

*** Psi4 exiting successfully. Buy a developer a beer!
