                               Psi4 1.4a3.dev225

  ==> Input File <==

--------------------------------------------------------------------------
#psi4
#
memory 32 gb

molecule  {
0 1
  S       -0.2843280    -1.0417270    -0.4821980
  S       -1.2930110    -0.0875030     1.0369290
  C        2.1238360     0.2887940     0.2038120
  C        1.0396170     0.1533370    -0.8629480
  C        2.9192610    -1.0021330     0.3722660
  C        3.0446920     1.4546940    -0.1566970
  C       -2.4716130     0.9595520     0.1214340
  C       -3.4104427     0.2811962    -0.5125609
  H        1.6262820     0.5245100     1.1534320
  H        0.5779620     1.1249640    -1.0704080
  H        1.4790150    -0.2072190    -1.8028130
  H        3.4447910    -1.2503440    -0.5572920
  H        3.6685600    -0.8925200     1.1622280
  H        2.2689210    -1.8409590     0.6321870
  H        3.5445550     1.2705440    -1.1143240
  H        3.8190690     1.5865110     0.6053070
  H        2.4877540     2.3935860    -0.2389230
  H       -2.9081880     1.6071800     0.8902120
  H       -1.9135990     1.6021400    -0.5664420
  H       -3.1113200    -0.4862750    -1.3548320
  H       -4.1326660    -0.4262330     0.0924510
  H       -4.2326140     0.8656560    -1.1221410
units angstrom
no_reorient  #important for SAPT in psi4, default
symmetry c1  #important for SAPT in psi4, default
}

set PROPERTIES_ORIGIN ["COM"]
properties('MP2/aug-cc-pvtz', properties = ['dipole'])
--------------------------------------------------------------------------

    Molecular point group: c1
  Charge       = 0
  Multiplicity = 1
  Basis Set: AUG-CC-PVTZ
    Blend: AUG-CC-PVTZ
  Basis Set: (AUG-CC-PVTZ AUX)
    Blend: AUG-CC-PVTZ-JKFIT

    Orbital Energies [Eh]
    ---------------------

    Doubly Occupied:

       1A    -91.968152     2A    -91.967845     3A    -11.258035
       4A    -11.252948     5A    -11.232818     6A    -11.231272
       7A    -11.217118     8A    -11.210402     9A     -8.967269
      10A     -8.966576    11A     -6.648299    12A     -6.647625
      13A     -6.647074    14A     -6.646419    15A     -6.646208
      16A     -6.645626    17A     -1.123059    18A     -1.099742
      19A     -1.023257    20A     -0.935633    21A     -0.931408
      22A     -0.849581    23A     -0.791949    24A     -0.753929
      25A     -0.649081    26A     -0.638132    27A     -0.617996
      28A     -0.604900    29A     -0.591082    30A     -0.565278
      31A     -0.550570    32A     -0.536094    33A     -0.511272
      34A     -0.484473    35A     -0.478078    36A     -0.466018
      37A     -0.463608    38A     -0.439848    39A     -0.427263
      40A     -0.355420    41A     -0.345350

  @DF-RHF Final Energy: -1030.49773654292972

   => Energetics <=

    Nuclear Repulsion Energy =            559.2014720080010193
    One-Electron Energy =               -2528.6249972218356561
    Two-Electron Energy =                 938.9257886709050354
    Total Energy =                      -1030.4977365429294878
  Basis Set: (AUG-CC-PVTZ AUX)
    Blend: AUG-CC-PVTZ-RI
    Molecular point group: c1

    Geometry (in Angstrom), charge = 0, multiplicity = 1:

       Center              X                  Y                   Z               Mass
    ------------   -----------------  -----------------  -----------------  -----------------
         S           -0.252230962358    -1.011330856796    -0.511537226180    31.972071174400
         S           -1.260913962358    -0.057106856796     1.007589773820    31.972071174400
         C            2.155933037642     0.319190143204     0.174472773820    12.000000000000
         C            1.071714037642     0.183733143204    -0.892287226180    12.000000000000
         C            2.951358037642    -0.971736856796     0.342926773820    12.000000000000
         C            3.076789037642     1.485090143204    -0.186036226180    12.000000000000
         C           -2.439515962358     0.989948143204     0.092094773820    12.000000000000
         C           -3.378345662358     0.311592343204    -0.541900126180    12.000000000000
         H            1.658379037642     0.554906143204     1.124092773820     1.007825032230
         H            0.610059037642     1.155360143204    -1.099747226180     1.007825032230
         H            1.511112037642    -0.176822856796    -1.832152226180     1.007825032230
         H            3.476888037642    -1.219947856796    -0.586631226180     1.007825032230
         H            3.700657037642    -0.862123856796     1.132888773820     1.007825032230
         H            2.301018037642    -1.810562856796     0.602847773820     1.007825032230
         H            3.576652037642     1.300940143204    -1.143663226180     1.007825032230
         H            3.851166037642     1.616907143204     0.575967773820     1.007825032230
         H            2.519851037642     2.423982143204    -0.268262226180     1.007825032230
         H           -2.876090962358     1.637576143204     0.860872773820     1.007825032230
         H           -1.881501962358     1.632536143204    -0.595781226180     1.007825032230
         H           -3.079222962358    -0.455878856796    -1.384171226180     1.007825032230
         H           -4.100568962358    -0.395836856796     0.063111773820     1.007825032230
         H           -4.200516962358     0.896052143204    -1.151480226180     1.007825032230

  Basis Set: AUG-CC-PVTZ
    Blend: AUG-CC-PVTZ
  Basis Set: (AUG-CC-PVTZ AUX)
    Blend: AUG-CC-PVTZ-JKFIT
	 Reference Energy          =   -1030.4977365429297151 [Eh]
	 Singles Energy            =      -0.0000000000000000 [Eh]
	 Same-Spin Energy          =      -0.3731882465425893 [Eh]
	 Opposite-Spin Energy      =      -1.2728963886141400 [Eh]
	 Correlation Energy        =      -1.6460846351567293 [Eh]
	 Total Energy              =   -1032.1438211780864549 [Eh]

	 ================> DF-SCS-MP2 Energies <==================
	-----------------------------------------------------------
	 SCS Same-Spin Scale       =       0.3333333333333333 [-]
	 SCS Opposite-Spin Scale   =       1.2000000000000000 [-]
	 SCS Same-Spin Energy      =      -0.1243960821808631 [Eh]
	 SCS Opposite-Spin Energy  =      -1.5274756663369680 [Eh]
	 SCS Correlation Energy    =      -1.6518717485178311 [Eh]
	 SCS Total Energy          =   -1032.1496082914475210 [Eh]
	-----------------------------------------------------------

  Dipole Moment: [D]
     X:     0.1584      Y:     1.7579      Z:    -0.8739     Total:     1.9695

*** Psi4 exiting successfully. Buy a developer a beer!
