                               Psi4 1.4a3.dev225

  ==> Input File <==

--------------------------------------------------------------------------
#psi4
#
memory 32 gb

molecule  {
0 1
  S       -0.2843280    -1.0417270    -0.4821980
  S       -1.2930110    -0.0875030     1.0369290
  C        2.2156053     0.3380540     0.1816415
  C        1.0396170     0.1533370    -0.8629480
  C        2.9192610    -1.0021330     0.3722660
  C        3.0446920     1.4546940    -0.1566970
  C       -2.4716130     0.9595520     0.1214340
  C       -3.5526440     0.1784480    -0.6085900
  H        1.6262820     0.5245100     1.1534320
  H        0.5779620     1.1249640    -1.0704080
  H        1.4790150    -0.2072190    -1.8028130
  H        3.4447910    -1.2503440    -0.5572920
  H        3.6685600    -0.8925200     1.1622280
  H        2.2689210    -1.8409590     0.6321870
  H        3.5445550     1.2705440    -1.1143240
  H        3.8190690     1.5865110     0.6053070
  H        2.4877540     2.3935860    -0.2389230
  H       -2.9081880     1.6071800     0.8902120
  H       -1.9135990     1.6021400    -0.5664420
  H       -3.1113200    -0.4862750    -1.3548320
  H       -4.1326660    -0.4262330     0.0924510
  H       -4.2326140     0.8656560    -1.1221410
units angstrom
no_reorient  #important for SAPT in psi4, default
symmetry c1  #important for SAPT in psi4, default
}

set PROPERTIES_ORIGIN ["COM"]
properties('MP2/aug-cc-pvtz', properties = ['dipole'])
--------------------------------------------------------------------------

    Molecular point group: c1
  Charge       = 0
  Multiplicity = 1
  Basis Set: AUG-CC-PVTZ
    Blend: AUG-CC-PVTZ
  Basis Set: (AUG-CC-PVTZ AUX)
    Blend: AUG-CC-PVTZ-JKFIT

    Orbital Energies [Eh]
    ---------------------

    Doubly Occupied:

       1A    -91.968641     2A    -91.967295     3A    -11.261915
       4A    -11.257700     5A    -11.233946     6A    -11.221281
       7A    -11.214304     8A    -11.210874     9A     -8.967152
      10A     -8.966118    11A     -6.648260    12A     -6.647191
      13A     -6.646956    14A     -6.646193    15A     -6.645973
      16A     -6.645151    17A     -1.111108    18A     -1.079803
      19A     -1.016015    20A     -0.940097    21A     -0.932965
      22A     -0.858900    23A     -0.787930    24A     -0.747172
      25A     -0.643592    26A     -0.631180    27A     -0.609682
      28A     -0.593362    29A     -0.588102    30A     -0.554782
      31A     -0.541950    32A     -0.535835    33A     -0.513460
      34A     -0.511336    35A     -0.494234    36A     -0.481742
      37A     -0.453238    38A     -0.449021    39A     -0.428559
      40A     -0.352016    41A     -0.343512

  @DF-RHF Final Energy: -1030.53538993953384

   => Energetics <=

    Nuclear Repulsion Energy =            554.9899235616360329
    One-Electron Energy =               -2520.3535452199548672
    Two-Electron Energy =                 934.8282317187849912
    Total Energy =                      -1030.5353899395338431
  Basis Set: (AUG-CC-PVTZ AUX)
    Blend: AUG-CC-PVTZ-RI
    Molecular point group: c1

    Geometry (in Angstrom), charge = 0, multiplicity = 1:

       Center              X                  Y                   Z               Mass
    ------------   -----------------  -----------------  -----------------  -----------------
         S           -0.248197846020    -1.007053331944    -0.502084641752    31.972071174400
         S           -1.256880846020    -0.052829331944     1.017042358248    31.972071174400
         C            2.251735453980     0.372727668056     0.161754858248    12.000000000000
         C            1.075747153980     0.188010668056    -0.882834641752    12.000000000000
         C            2.955391153980    -0.967459331944     0.352379358248    12.000000000000
         C            3.080822153980     1.489367668056    -0.176583641752    12.000000000000
         C           -2.435482846020     0.994225668056     0.101547358248    12.000000000000
         C           -3.516513846020     0.213121668056    -0.628476641752    12.000000000000
         H            1.662412153980     0.559183668056     1.133545358248     1.007825032230
         H            0.614092153980     1.159637668056    -1.090294641752     1.007825032230
         H            1.515145153980    -0.172545331944    -1.822699641752     1.007825032230
         H            3.480921153980    -1.215670331944    -0.577178641752     1.007825032230
         H            3.704690153980    -0.857846331944     1.142341358248     1.007825032230
         H            2.305051153980    -1.806285331944     0.612300358248     1.007825032230
         H            3.580685153980     1.305217668056    -1.134210641752     1.007825032230
         H            3.855199153980     1.621184668056     0.585420358248     1.007825032230
         H            2.523884153980     2.428259668056    -0.258809641752     1.007825032230
         H           -2.872057846020     1.641853668056     0.870325358248     1.007825032230
         H           -1.877468846020     1.636813668056    -0.586328641752     1.007825032230
         H           -3.075189846020    -0.451601331944    -1.374718641752     1.007825032230
         H           -4.096535846020    -0.391559331944     0.072564358248     1.007825032230
         H           -4.196483846020     0.900329668056    -1.142027641752     1.007825032230

  Basis Set: AUG-CC-PVTZ
    Blend: AUG-CC-PVTZ
  Basis Set: (AUG-CC-PVTZ AUX)
    Blend: AUG-CC-PVTZ-JKFIT
	 Reference Energy          =   -1030.5353899395338431 [Eh]
	 Singles Energy            =      -0.0000000000000000 [Eh]
	 Same-Spin Energy          =      -0.3708486776049961 [Eh]
	 Opposite-Spin Energy      =      -1.2700168467694253 [Eh]
	 Correlation Energy        =      -1.6408655243744215 [Eh]
	 Total Energy              =   -1032.1762554639083191 [Eh]

	 ================> DF-SCS-MP2 Energies <==================
	-----------------------------------------------------------
	 SCS Same-Spin Scale       =       0.3333333333333333 [-]
	 SCS Opposite-Spin Scale   =       1.2000000000000000 [-]
	 SCS Same-Spin Energy      =      -0.1236162258683320 [Eh]
	 SCS Opposite-Spin Energy  =      -1.5240202161233103 [Eh]
	 SCS Correlation Energy    =      -1.6476364419916423 [Eh]
	 SCS Total Energy          =   -1032.1830263815254511 [Eh]
	-----------------------------------------------------------

  Dipole Moment: [D]
     X:     0.1220      Y:     1.7891      Z:    -0.8603     Total:     1.9889

*** Psi4 exiting successfully. Buy a developer a beer!
