                               Psi4 1.4a3.dev225

  ==> Input File <==

--------------------------------------------------------------------------
#psi4
#
memory 32 gb

molecule  {
0 1
  S       -0.2843280    -1.0417270    -0.4821980
  S       -1.2930110    -0.0875030     1.0369290
  C        2.1238360     0.2887940     0.2038120
  C        1.0396170     0.1533370    -0.8629480
  C        2.9192610    -1.0021330     0.3722660
  C        3.0446920     1.4546940    -0.1566970
  C       -2.4716130     0.9595520     0.1214340
  C       -3.5526440     0.1784480    -0.6085900
  H        1.6262820     0.5245100     1.1534320
  H        0.5779620     1.1249640    -1.0704080
  H        1.4710141    -0.2006537    -1.7856992
  H        3.4447910    -1.2503440    -0.5572920
  H        3.6685600    -0.8925200     1.1622280
  H        2.2689210    -1.8409590     0.6321870
  H        3.5445550     1.2705440    -1.1143240
  H        3.8190690     1.5865110     0.6053070
  H        2.4877540     2.3935860    -0.2389230
  H       -2.9081880     1.6071800     0.8902120
  H       -1.9135990     1.6021400    -0.5664420
  H       -3.1113200    -0.4862750    -1.3548320
  H       -4.1326660    -0.4262330     0.0924510
  H       -4.2326140     0.8656560    -1.1221410
units angstrom
no_reorient  #important for SAPT in psi4, default
symmetry c1  #important for SAPT in psi4, default
}

set PROPERTIES_ORIGIN ["COM"]
properties('MP2/aug-cc-pvtz', properties = ['dipole'])
--------------------------------------------------------------------------

    Molecular point group: c1
  Charge       = 0
  Multiplicity = 1
  Basis Set: AUG-CC-PVTZ
    Blend: AUG-CC-PVTZ
  Basis Set: (AUG-CC-PVTZ AUX)
    Blend: AUG-CC-PVTZ-JKFIT

    Orbital Energies [Eh]
    ---------------------

    Doubly Occupied:

       1A    -91.967429     2A    -91.966817     3A    -11.262045
       4A    -11.255211     5A    -11.230747     6A    -11.221242
       7A    -11.216825     8A    -11.210080     9A     -8.966267
      10A     -8.965605    11A     -6.647369    12A     -6.646666
      13A     -6.646100    14A     -6.645469    15A     -6.645280
      16A     -6.644671    17A     -1.111059    18A     -1.076532
      19A     -1.011843    20A     -0.935914    21A     -0.931113
      22A     -0.861268    23A     -0.793686    24A     -0.752988
      25A     -0.643921    26A     -0.629772    27A     -0.605369
      28A     -0.591726    29A     -0.586221    30A     -0.552739
      31A     -0.541180    32A     -0.535024    33A     -0.513786
      34A     -0.508012    35A     -0.492680    36A     -0.475377
      37A     -0.471881    38A     -0.452611    39A     -0.428869
      40A     -0.352822    41A     -0.344009

  @DF-RHF Final Energy: -1030.54817341149919

   => Energetics <=

    Nuclear Repulsion Energy =            555.8340774554144446
    One-Electron Energy =               -2522.0880528462248549
    Two-Electron Energy =                 935.7058019793113317
    Total Energy =                      -1030.5481734114991923
  Basis Set: (AUG-CC-PVTZ AUX)
    Blend: AUG-CC-PVTZ-RI
    Molecular point group: c1

    Geometry (in Angstrom), charge = 0, multiplicity = 1:

       Center              X                  Y                   Z               Mass
    ------------   -----------------  -----------------  -----------------  -----------------
         S           -0.240805191520    -1.003158037431    -0.503972590730    31.972071174400
         S           -1.249488191520    -0.048934037431     1.015154409270    31.972071174400
         C            2.167358808480     0.327362962569     0.182037409270    12.000000000000
         C            1.083139808480     0.191905962569    -0.884722590730    12.000000000000
         C            2.962783808480    -0.963564037431     0.350491409270    12.000000000000
         C            3.088214808480     1.493262962569    -0.178471590730    12.000000000000
         C           -2.428090191520     0.998120962569     0.099659409270    12.000000000000
         C           -3.509121191520     0.217016962569    -0.630364590730    12.000000000000
         H            1.669804808480     0.563078962569     1.131657409270     1.007825032230
         H            0.621484808480     1.163532962569    -1.092182590730     1.007825032230
         H            1.514536908480    -0.162084737431    -1.807473790730     1.007825032230
         H            3.488313808480    -1.211775037431    -0.579066590730     1.007825032230
         H            3.712082808480    -0.853951037431     1.140453409270     1.007825032230
         H            2.312443808480    -1.802390037431     0.610412409270     1.007825032230
         H            3.588077808480     1.309112962569    -1.136098590730     1.007825032230
         H            3.862591808480     1.625079962569     0.583532409270     1.007825032230
         H            2.531276808480     2.432154962569    -0.260697590730     1.007825032230
         H           -2.864665191520     1.645748962569     0.868437409270     1.007825032230
         H           -1.870076191520     1.640708962569    -0.588216590730     1.007825032230
         H           -3.067797191520    -0.447706037431    -1.376606590730     1.007825032230
         H           -4.089143191520    -0.387664037431     0.070676409270     1.007825032230
         H           -4.189091191520     0.904224962569    -1.143915590730     1.007825032230

  Basis Set: AUG-CC-PVTZ
    Blend: AUG-CC-PVTZ
  Basis Set: (AUG-CC-PVTZ AUX)
    Blend: AUG-CC-PVTZ-JKFIT
	 Reference Energy          =   -1030.5481734114991923 [Eh]
	 Singles Energy            =      -0.0000000000000000 [Eh]
	 Same-Spin Energy          =      -0.3700640577505478 [Eh]
	 Opposite-Spin Energy      =      -1.2687497217295609 [Eh]
	 Correlation Energy        =      -1.6388137794801088 [Eh]
	 Total Energy              =   -1032.1869871909793801 [Eh]

	 ================> DF-SCS-MP2 Energies <==================
	-----------------------------------------------------------
	 SCS Same-Spin Scale       =       0.3333333333333333 [-]
	 SCS Opposite-Spin Scale   =       1.2000000000000000 [-]
	 SCS Same-Spin Energy      =      -0.1233546859168493 [Eh]
	 SCS Opposite-Spin Energy  =      -1.5224996660754730 [Eh]
	 SCS Correlation Energy    =      -1.6458543519923223 [Eh]
	 SCS Total Energy          =   -1032.1940277634914764 [Eh]
	-----------------------------------------------------------

  Dipole Moment: [D]
     X:     0.1207      Y:     1.7665      Z:    -0.8695     Total:     1.9726

*** Psi4 exiting successfully. Buy a developer a beer!
