                               Psi4 1.4a3.dev225

  ==> Input File <==

--------------------------------------------------------------------------
#psi4
#
memory 32 gb

molecule  {
0 1
  S       -0.2843280    -1.0417270    -0.4821980
  S       -1.2930110    -0.0875030     1.0369290
  C        2.1238360     0.2887940     0.2038120
  C        1.0396170     0.1533370    -0.8629480
  C        2.8671238    -0.9175174     0.3612245
  C        3.0446920     1.4546940    -0.1566970
  C       -2.4716130     0.9595520     0.1214340
  C       -3.5526440     0.1784480    -0.6085900
  H        1.6262820     0.5245100     1.1534320
  H        0.5779620     1.1249640    -1.0704080
  H        1.4790150    -0.2072190    -1.8028130
  H        3.4447910    -1.2503440    -0.5572920
  H        3.6685600    -0.8925200     1.1622280
  H        2.2689210    -1.8409590     0.6321870
  H        3.5445550     1.2705440    -1.1143240
  H        3.8190690     1.5865110     0.6053070
  H        2.4877540     2.3935860    -0.2389230
  H       -2.9081880     1.6071800     0.8902120
  H       -1.9135990     1.6021400    -0.5664420
  H       -3.1113200    -0.4862750    -1.3548320
  H       -4.1326660    -0.4262330     0.0924510
  H       -4.2326140     0.8656560    -1.1221410
units angstrom
no_reorient  #important for SAPT in psi4, default
symmetry c1  #important for SAPT in psi4, default
}

set PROPERTIES_ORIGIN ["COM"]
properties('MP2/aug-cc-pvtz', properties = ['dipole'])
--------------------------------------------------------------------------

    Molecular point group: c1
  Charge       = 0
  Multiplicity = 1
  Basis Set: AUG-CC-PVTZ
    Blend: AUG-CC-PVTZ
  Basis Set: (AUG-CC-PVTZ AUX)
    Blend: AUG-CC-PVTZ-JKFIT

    Orbital Energies [Eh]
    ---------------------

    Doubly Occupied:

       1A    -91.967660     2A    -91.967133     3A    -11.262210
       4A    -11.258010     5A    -11.226318     6A    -11.221379
       7A    -11.217330     8A    -11.215725     9A     -8.966500
      10A     -8.965896    11A     -6.647605    12A     -6.646947
      13A     -6.646332    14A     -6.645752    15A     -6.645514
      16A     -6.644954    17A     -1.120157    18A     -1.080303
      19A     -1.014606    20A     -0.935663    21A     -0.931184
      22A     -0.860771    23A     -0.793009    24A     -0.753151
      25A     -0.649033    26A     -0.631058    27A     -0.607934
      28A     -0.591953    29A     -0.587223    30A     -0.553283
      31A     -0.540623    32A     -0.527618    33A     -0.513711
      34A     -0.501356    35A     -0.499732    36A     -0.481336
      37A     -0.463424    38A     -0.448700    39A     -0.428438
      40A     -0.353037    41A     -0.344223

  @DF-RHF Final Energy: -1030.53619981984639

   => Energetics <=

    Nuclear Repulsion Energy =            557.5136269480740339
    One-Electron Energy =               -2525.3860752244404466
    Two-Electron Energy =                 937.3362484565201385
    Total Energy =                      -1030.5361998198463880
  Basis Set: (AUG-CC-PVTZ AUX)
    Blend: AUG-CC-PVTZ-RI
    Molecular point group: c1

    Geometry (in Angstrom), charge = 0, multiplicity = 1:

       Center              X                  Y                   Z               Mass
    ------------   -----------------  -----------------  -----------------  -----------------
         S           -0.236689445475    -1.009880767858    -0.502974643174    31.972071174400
         S           -1.245372445475    -0.055656767858     1.016152356826    31.972071174400
         C            2.171474554525     0.320640232142     0.183035356826    12.000000000000
         C            1.087255554525     0.185183232142    -0.883724643174    12.000000000000
         C            2.914762354525    -0.885671167858     0.340447856826    12.000000000000
         C            3.092330554525     1.486540232142    -0.177473643174    12.000000000000
         C           -2.423974445475     0.991398232142     0.100657356826    12.000000000000
         C           -3.505005445475     0.210294232142    -0.629366643174    12.000000000000
         H            1.673920554525     0.556356232142     1.132655356826     1.007825032230
         H            0.625600554525     1.156810232142    -1.091184643174     1.007825032230
         H            1.526653554525    -0.175372767858    -1.823589643174     1.007825032230
         H            3.492429554525    -1.218497767858    -0.578068643174     1.007825032230
         H            3.716198554525    -0.860673767858     1.141451356826     1.007825032230
         H            2.316559554525    -1.809112767858     0.611410356826     1.007825032230
         H            3.592193554525     1.302390232142    -1.135100643174     1.007825032230
         H            3.866707554525     1.618357232142     0.584530356826     1.007825032230
         H            2.535392554525     2.425432232142    -0.259699643174     1.007825032230
         H           -2.860549445475     1.639026232142     0.869435356826     1.007825032230
         H           -1.865960445475     1.633986232142    -0.587218643174     1.007825032230
         H           -3.063681445475    -0.454428767858    -1.375608643174     1.007825032230
         H           -4.085027445475    -0.394386767858     0.071674356826     1.007825032230
         H           -4.184975445475     0.897502232142    -1.142917643174     1.007825032230

  Basis Set: AUG-CC-PVTZ
    Blend: AUG-CC-PVTZ
  Basis Set: (AUG-CC-PVTZ AUX)
    Blend: AUG-CC-PVTZ-JKFIT
	 Reference Energy          =   -1030.5361998198463880 [Eh]
	 Singles Energy            =      -0.0000000000000000 [Eh]
	 Same-Spin Energy          =      -0.3712926979293868 [Eh]
	 Opposite-Spin Energy      =      -1.2702950790944862 [Eh]
	 Correlation Energy        =      -1.6415877770238732 [Eh]
	 Total Energy              =   -1032.1777875968703029 [Eh]

	 ================> DF-SCS-MP2 Energies <==================
	-----------------------------------------------------------
	 SCS Same-Spin Scale       =       0.3333333333333333 [-]
	 SCS Opposite-Spin Scale   =       1.2000000000000000 [-]
	 SCS Same-Spin Energy      =      -0.1237642326431289 [Eh]
	 SCS Opposite-Spin Energy  =      -1.5243540949133834 [Eh]
	 SCS Correlation Energy    =      -1.6481183275565123 [Eh]
	 SCS Total Energy          =   -1032.1843181474027915 [Eh]
	-----------------------------------------------------------

  Dipole Moment: [D]
     X:     0.0978      Y:     1.7633      Z:    -0.8524     Total:     1.9609

*** Psi4 exiting successfully. Buy a developer a beer!
