                               Psi4 1.4a3.dev225

  ==> Input File <==

--------------------------------------------------------------------------
#psi4
#
memory 32 gb

molecule  {
0 1
  S       -0.2843280    -1.0417270    -0.4821980
  S       -1.2930110    -0.0875030     1.0369290
  C        2.1238360     0.2887940     0.2038120
  C        1.0550381     0.1029374    -0.8708902
  C        2.9192610    -1.0021330     0.3722660
  C        3.0446920     1.4546940    -0.1566970
  C       -2.4716130     0.9595520     0.1214340
  C       -3.5526440     0.1784480    -0.6085900
  H        1.6262820     0.5245100     1.1534320
  H        0.5779620     1.1249640    -1.0704080
  H        1.4790150    -0.2072190    -1.8028130
  H        3.4447910    -1.2503440    -0.5572920
  H        3.6685600    -0.8925200     1.1622280
  H        2.2689210    -1.8409590     0.6321870
  H        3.5445550     1.2705440    -1.1143240
  H        3.8190690     1.5865110     0.6053070
  H        2.4877540     2.3935860    -0.2389230
  H       -2.9081880     1.6071800     0.8902120
  H       -1.9135990     1.6021400    -0.5664420
  H       -3.1113200    -0.4862750    -1.3548320
  H       -4.1326660    -0.4262330     0.0924510
  H       -4.2326140     0.8656560    -1.1221410
units angstrom
no_reorient  #important for SAPT in psi4, default
symmetry c1  #important for SAPT in psi4, default
}

set PROPERTIES_ORIGIN ["COM"]
properties('MP2/aug-cc-pvtz', properties = ['dipole'])
--------------------------------------------------------------------------

    Molecular point group: c1
  Charge       = 0
  Multiplicity = 1
  Basis Set: AUG-CC-PVTZ
    Blend: AUG-CC-PVTZ
  Basis Set: (AUG-CC-PVTZ AUX)
    Blend: AUG-CC-PVTZ-JKFIT

    Orbital Energies [Eh]
    ---------------------

    Doubly Occupied:

       1A    -91.968569     2A    -91.967054     3A    -11.262361
       4A    -11.257901     5A    -11.230834     6A    -11.221530
       7A    -11.217043     8A    -11.209174     9A     -8.967358
      10A     -8.966066    11A     -6.648441    12A     -6.647248
      13A     -6.647091    14A     -6.646371    15A     -6.645992
      16A     -6.645149    17A     -1.111684    18A     -1.076853
      19A     -1.013203    20A     -0.935684    21A     -0.930675
      22A     -0.860561    23A     -0.794648    24A     -0.752158
      25A     -0.638336    26A     -0.630342    27A     -0.606289
      28A     -0.590899    29A     -0.585450    30A     -0.554761
      31A     -0.541284    32A     -0.535053    33A     -0.514960
      34A     -0.505607    35A     -0.492570    36A     -0.474497
      37A     -0.472225    38A     -0.454562    39A     -0.427024
      40A     -0.352342    41A     -0.344861

  @DF-RHF Final Energy: -1030.54500244454334

   => Energetics <=

    Nuclear Repulsion Energy =            555.8759836135691330
    One-Electron Energy =               -2522.1525553250980920
    Two-Electron Energy =                 935.7315692669856162
    Total Energy =                      -1030.5450024445433428
  Basis Set: (AUG-CC-PVTZ AUX)
    Blend: AUG-CC-PVTZ-RI
    Molecular point group: c1

    Geometry (in Angstrom), charge = 0, multiplicity = 1:

       Center              X                  Y                   Z               Mass
    ------------   -----------------  -----------------  -----------------  -----------------
         S           -0.242092175557    -0.999083416791    -0.503222498453    31.972071174400
         S           -1.250775175557    -0.044859416791     1.015904501547    31.972071174400
         C            2.166071824443     0.331437583209     0.182787501547    12.000000000000
         C            1.097273924443     0.145580983209    -0.891914698453    12.000000000000
         C            2.961496824443    -0.959489416791     0.351241501547    12.000000000000
         C            3.086927824443     1.497337583209    -0.177721498453    12.000000000000
         C           -2.429377175557     1.002195583209     0.100409501547    12.000000000000
         C           -3.510408175557     0.221091583209    -0.629614498453    12.000000000000
         H            1.668517824443     0.567153583209     1.132407501547     1.007825032230
         H            0.620197824443     1.167607583209    -1.091432498453     1.007825032230
         H            1.521250824443    -0.164575416791    -1.823837498453     1.007825032230
         H            3.487026824443    -1.207700416791    -0.578316498453     1.007825032230
         H            3.710795824443    -0.849876416791     1.141203501547     1.007825032230
         H            2.311156824443    -1.798315416791     0.611162501547     1.007825032230
         H            3.586790824443     1.313187583209    -1.135348498453     1.007825032230
         H            3.861304824443     1.629154583209     0.584282501547     1.007825032230
         H            2.529989824443     2.436229583209    -0.259947498453     1.007825032230
         H           -2.865952175557     1.649823583209     0.869187501547     1.007825032230
         H           -1.871363175557     1.644783583209    -0.587466498453     1.007825032230
         H           -3.069084175557    -0.443631416791    -1.375856498453     1.007825032230
         H           -4.090430175557    -0.383589416791     0.071426501547     1.007825032230
         H           -4.190378175557     0.908299583209    -1.143165498453     1.007825032230

  Basis Set: AUG-CC-PVTZ
    Blend: AUG-CC-PVTZ
  Basis Set: (AUG-CC-PVTZ AUX)
    Blend: AUG-CC-PVTZ-JKFIT
	 Reference Energy          =   -1030.5450024445433428 [Eh]
	 Singles Energy            =      -0.0000000000000000 [Eh]
	 Same-Spin Energy          =      -0.3702385657670216 [Eh]
	 Opposite-Spin Energy      =      -1.2690845621814533 [Eh]
	 Correlation Energy        =      -1.6393231279484750 [Eh]
	 Total Energy              =   -1032.1843255724918436 [Eh]

	 ================> DF-SCS-MP2 Energies <==================
	-----------------------------------------------------------
	 SCS Same-Spin Scale       =       0.3333333333333333 [-]
	 SCS Opposite-Spin Scale   =       1.2000000000000000 [-]
	 SCS Same-Spin Energy      =      -0.1234128552556739 [Eh]
	 SCS Opposite-Spin Energy  =      -1.5229014746177438 [Eh]
	 SCS Correlation Energy    =      -1.6463143298734177 [Eh]
	 SCS Total Energy          =   -1032.1913167744166913 [Eh]
	-----------------------------------------------------------

  Dipole Moment: [D]
     X:     0.0899      Y:     1.7673      Z:    -0.8554     Total:     1.9655

*** Psi4 exiting successfully. Buy a developer a beer!
