                               Psi4 1.4a3.dev225

  ==> Input File <==

--------------------------------------------------------------------------
#psi4
#
memory 32 gb

molecule  {
0 1
  S       -0.2843280    -1.0417270    -0.4821980
  S       -1.2930110    -0.0875030     1.0369290
  C        2.1238360     0.2887940     0.2038120
  C        1.0396170     0.1533370    -0.8629480
  C        2.9192610    -1.0021330     0.3722660
  C        3.0446920     1.4546940    -0.1566970
  C       -2.4716130     0.9595520     0.1214340
  C       -3.5526440     0.1784480    -0.6085900
  H        1.6262820     0.5245100     1.1534320
  H        0.5779620     1.1249640    -1.0704080
  H        1.4790150    -0.2072190    -1.8028130
  H        3.4447910    -1.2503440    -0.5572920
  H        3.6685600    -0.8925200     1.1622280
  H        2.3284344    -1.7641970     0.6084013
  H        3.5445550     1.2705440    -1.1143240
  H        3.8190690     1.5865110     0.6053070
  H        2.4877540     2.3935860    -0.2389230
  H       -2.9081880     1.6071800     0.8902120
  H       -1.9135990     1.6021400    -0.5664420
  H       -3.1113200    -0.4862750    -1.3548320
  H       -4.1326660    -0.4262330     0.0924510
  H       -4.2326140     0.8656560    -1.1221410
units angstrom
no_reorient  #important for SAPT in psi4, default
symmetry c1  #important for SAPT in psi4, default
}

set PROPERTIES_ORIGIN ["COM"]
properties('MP2/aug-cc-pvtz', properties = ['dipole'])
--------------------------------------------------------------------------

    Molecular point group: c1
  Charge       = 0
  Multiplicity = 1
  Basis Set: AUG-CC-PVTZ
    Blend: AUG-CC-PVTZ
  Basis Set: (AUG-CC-PVTZ AUX)
    Blend: AUG-CC-PVTZ-JKFIT

    Orbital Energies [Eh]
    ---------------------

    Doubly Occupied:

       1A    -91.967634     2A    -91.967253     3A    -11.262213
       4A    -11.257459     5A    -11.230099     6A    -11.221376
       7A    -11.216007     8A    -11.198031     9A     -8.966482
      10A     -8.966009    11A     -6.647595    12A     -6.647056
      13A     -6.646312    14A     -6.645880    15A     -6.645489
      16A     -6.645079    17A     -1.111231    18A     -1.076986
      19A     -1.012294    20A     -0.940775    21A     -0.933981
      22A     -0.861233    23A     -0.794848    24A     -0.752650
      25A     -0.645194    26A     -0.630979    27A     -0.611126
      28A     -0.593673    29A     -0.585581    30A     -0.551114
      31A     -0.541793    32A     -0.534790    33A     -0.517427
      34A     -0.511084    35A     -0.492817    36A     -0.476468
      37A     -0.471245    38A     -0.453132    39A     -0.429227
      40A     -0.353229    41A     -0.344290

  @DF-RHF Final Energy: -1030.54211680281355

   => Energetics <=

    Nuclear Repulsion Energy =            556.1143638459974454
    One-Electron Energy =               -2522.5986762375227954
    Two-Electron Energy =                 935.9421955887115701
    Total Energy =                      -1030.5421168028137799
  Basis Set: (AUG-CC-PVTZ AUX)
    Blend: AUG-CC-PVTZ-RI
    Molecular point group: c1

    Geometry (in Angstrom), charge = 0, multiplicity = 1:

       Center              X                  Y                   Z               Mass
    ------------   -----------------  -----------------  -----------------  -----------------
         S           -0.241258646548    -1.003629508609    -0.503697892126    31.972071174400
         S           -1.249941646548    -0.049405508609     1.015429107874    31.972071174400
         C            2.166905353452     0.326891491391     0.182312107874    12.000000000000
         C            1.082686353452     0.191434491391    -0.884447892126    12.000000000000
         C            2.962330353452    -0.964035508609     0.350766107874    12.000000000000
         C            3.087761353452     1.492791491391    -0.178196892126    12.000000000000
         C           -2.428543646548     0.997649491391     0.099934107874    12.000000000000
         C           -3.509574646548     0.216545491391    -0.630089892126    12.000000000000
         H            1.669351353452     0.562607491391     1.131932107874     1.007825032230
         H            0.621031353452     1.163061491391    -1.091907892126     1.007825032230
         H            1.522084353452    -0.169121508609    -1.824312892126     1.007825032230
         H            3.487860353452    -1.212246508609    -0.578791892126     1.007825032230
         H            3.711629353452    -0.854422508609     1.140728107874     1.007825032230
         H            2.371503753452    -1.726099508609     0.586901407874     1.007825032230
         H            3.587624353452     1.308641491391    -1.135823892126     1.007825032230
         H            3.862138353452     1.624608491391     0.583807107874     1.007825032230
         H            2.530823353452     2.431683491391    -0.260422892126     1.007825032230
         H           -2.865118646548     1.645277491391     0.868712107874     1.007825032230
         H           -1.870529646548     1.640237491391    -0.587941892126     1.007825032230
         H           -3.068250646548    -0.448177508609    -1.376331892126     1.007825032230
         H           -4.089596646548    -0.388135508609     0.070951107874     1.007825032230
         H           -4.189544646548     0.903753491391    -1.143640892126     1.007825032230

  Basis Set: AUG-CC-PVTZ
    Blend: AUG-CC-PVTZ
  Basis Set: (AUG-CC-PVTZ AUX)
    Blend: AUG-CC-PVTZ-JKFIT
	 Reference Energy          =   -1030.5421168028135526 [Eh]
	 Singles Energy            =      -0.0000000000000000 [Eh]
	 Same-Spin Energy          =      -0.3700077202583186 [Eh]
	 Opposite-Spin Energy      =      -1.2682907696500816 [Eh]
	 Correlation Energy        =      -1.6382984899084001 [Eh]
	 Total Energy              =   -1032.1804152927220457 [Eh]

	 ================> DF-SCS-MP2 Energies <==================
	-----------------------------------------------------------
	 SCS Same-Spin Scale       =       0.3333333333333333 [-]
	 SCS Opposite-Spin Scale   =       1.2000000000000000 [-]
	 SCS Same-Spin Energy      =      -0.1233359067527729 [Eh]
	 SCS Opposite-Spin Energy  =      -1.5219489235800978 [Eh]
	 SCS Correlation Energy    =      -1.6452848303328707 [Eh]
	 SCS Total Energy          =   -1032.1874016331464645 [Eh]
	-----------------------------------------------------------

  Dipole Moment: [D]
     X:     0.1030      Y:     1.7268      Z:    -0.8506     Total:     1.9277

*** Psi4 exiting successfully. Buy a developer a beer!
