                               Psi4 1.4a3.dev225

  ==> Input File <==

--------------------------------------------------------------------------
#psi4
#
memory 32 gb

molecule  {
0 1
  S       -0.2843280    -1.0417270    -0.4821980
  S       -1.2930110    -0.0875030     1.0369290
  C        2.1238360     0.2887940     0.2038120
  C        1.0396170     0.1533370    -0.8629480
  C        2.9192610    -1.0021330     0.3722660
  C        3.0446920     1.4546940    -0.1566970
  C       -2.4716130     0.9595520     0.1214340
  C       -3.5526440     0.1784480    -0.6085900
  H        1.6262820     0.5245100     1.1534320
  H        0.5779620     1.1249640    -1.0704080
  H        1.4790150    -0.2072190    -1.8028130
  H        3.4447910    -1.2503440    -0.5572920
  H        3.6685600    -0.8925200     1.1622280
  H        2.2689210    -1.8409590     0.6321870
  H        3.5445550     1.2705440    -1.1143240
  H        3.8190690     1.5865110     0.6053070
  H        2.4877540     2.3935860    -0.2389230
  H       -2.8882698     1.5776328     0.8551374
  H       -1.9135990     1.6021400    -0.5664420
  H       -3.1113200    -0.4862750    -1.3548320
  H       -4.1326660    -0.4262330     0.0924510
  H       -4.2326140     0.8656560    -1.1221410
units angstrom
no_reorient  #important for SAPT in psi4, default
symmetry c1  #important for SAPT in psi4, default
}

set PROPERTIES_ORIGIN ["COM"]
properties('MP2/aug-cc-pvtz', properties = ['dipole'])
--------------------------------------------------------------------------

    Molecular point group: c1
  Charge       = 0
  Multiplicity = 1
  Basis Set: AUG-CC-PVTZ
    Blend: AUG-CC-PVTZ
  Basis Set: (AUG-CC-PVTZ AUX)
    Blend: AUG-CC-PVTZ-JKFIT

    Orbital Energies [Eh]
    ---------------------

    Doubly Occupied:

       1A    -91.967148     2A    -91.966835     3A    -11.257450
       4A    -11.256172     5A    -11.230856     6A    -11.220881
       7A    -11.216779     8A    -11.210003     9A     -8.966037
      10A     -8.965594    11A     -6.647160    12A     -6.646638
      13A     -6.645873    14A     -6.645461    15A     -6.645055
      16A     -6.644661    17A     -1.110789    18A     -1.078091
      19A     -1.012406    20A     -0.934895    21A     -0.931048
      22A     -0.863484    23A     -0.795289    24A     -0.752809
      25A     -0.644412    26A     -0.633098    27A     -0.604911
      28A     -0.592328    29A     -0.585514    30A     -0.551343
      31A     -0.541467    32A     -0.535046    33A     -0.514136
      34A     -0.509371    35A     -0.493288    36A     -0.475816
      37A     -0.471605    38A     -0.452462    39A     -0.429166
      40A     -0.352745    41A     -0.343906

  @DF-RHF Final Energy: -1030.54720483132746

   => Energetics <=

    Nuclear Repulsion Energy =            555.9951606141607954
    One-Electron Energy =               -2522.4006711408464980
    Two-Electron Energy =                 935.8583056953582400
    Total Energy =                      -1030.5472048313274627
  Basis Set: (AUG-CC-PVTZ AUX)
    Blend: AUG-CC-PVTZ-RI
    Molecular point group: c1

    Geometry (in Angstrom), charge = 0, multiplicity = 1:

       Center              X                  Y                   Z               Mass
    ------------   -----------------  -----------------  -----------------  -----------------
         S           -0.240992708183    -1.002915490374    -0.503622071027    31.972071174400
         S           -1.249675708183    -0.048691490374     1.015504928973    31.972071174400
         C            2.167171291817     0.327605509626     0.182387928973    12.000000000000
         C            1.082952291817     0.192148509626    -0.884372071027    12.000000000000
         C            2.962596291817    -0.963321490374     0.350841928973    12.000000000000
         C            3.088027291817     1.493505509626    -0.178121071027    12.000000000000
         C           -2.428277708183     0.998363509626     0.100009928973    12.000000000000
         C           -3.509308708183     0.217259509626    -0.630014071027    12.000000000000
         H            1.669617291817     0.563321509626     1.132007928973     1.007825032230
         H            0.621297291817     1.163775509626    -1.091832071027     1.007825032230
         H            1.522350291817    -0.168407490374    -1.824237071027     1.007825032230
         H            3.488126291817    -1.211532490374    -0.578716071027     1.007825032230
         H            3.711895291817    -0.853708490374     1.140803928973     1.007825032230
         H            2.312256291817    -1.802147490374     0.610762928973     1.007825032230
         H            3.587890291817     1.309355509626    -1.135748071027     1.007825032230
         H            3.862404291817     1.625322509626     0.583882928973     1.007825032230
         H            2.531089291817     2.432397509626    -0.260347071027     1.007825032230
         H           -2.844934508183     1.616444309626     0.833713328973     1.007825032230
         H           -1.870263708183     1.640951509626    -0.587866071027     1.007825032230
         H           -3.067984708183    -0.447463490374    -1.376256071027     1.007825032230
         H           -4.089330708183    -0.387421490374     0.071026928973     1.007825032230
         H           -4.189278708183     0.904467509626    -1.143565071027     1.007825032230

  Basis Set: AUG-CC-PVTZ
    Blend: AUG-CC-PVTZ
  Basis Set: (AUG-CC-PVTZ AUX)
    Blend: AUG-CC-PVTZ-JKFIT
	 Reference Energy          =   -1030.5472048313274627 [Eh]
	 Singles Energy            =      -0.0000000000000000 [Eh]
	 Same-Spin Energy          =      -0.3700523082367676 [Eh]
	 Opposite-Spin Energy      =      -1.2685976669711676 [Eh]
	 Correlation Energy        =      -1.6386499752079353 [Eh]
	 Total Energy              =   -1032.1858548065354171 [Eh]

	 ================> DF-SCS-MP2 Energies <==================
	-----------------------------------------------------------
	 SCS Same-Spin Scale       =       0.3333333333333333 [-]
	 SCS Opposite-Spin Scale   =       1.2000000000000000 [-]
	 SCS Same-Spin Energy      =      -0.1233507694122559 [Eh]
	 SCS Opposite-Spin Energy  =      -1.5223172003654011 [Eh]
	 SCS Correlation Energy    =      -1.6456679697776568 [Eh]
	 SCS Total Energy          =   -1032.1928728011050680 [Eh]
	-----------------------------------------------------------

  Dipole Moment: [D]
     X:     0.1108      Y:     1.7823      Z:    -0.8513     Total:     1.9783

*** Psi4 exiting successfully. Buy a developer a beer!
