                               Psi4 1.4a3.dev225

  ==> Input File <==

--------------------------------------------------------------------------
#psi4
#
memory 32 gb

molecule  {
0 1
  S       -0.2843280    -1.0417270    -0.4821980
  S       -1.2930110    -0.0875030     1.0369290
  C        2.1238360     0.2887940     0.2038120
  C        1.0396170     0.1533370    -0.8629480
  C        2.9192610    -1.0021330     0.3722660
  C        3.0446920     1.4546940    -0.1566970
  C       -2.4716130     0.9595520     0.1214340
  C       -3.5526440     0.1784480    -0.6085900
  H        1.6262820     0.5245100     1.1534320
  H        0.5779620     1.1249640    -1.0704080
  H        1.4790150    -0.2072190    -1.8028130
  H        3.4447910    -1.2503440    -0.5572920
  H        3.6973560    -0.8336146     1.1230481
  H        2.2689210    -1.8409590     0.6321870
  H        3.5445550     1.2705440    -1.1143240
  H        3.8190690     1.5865110     0.6053070
  H        2.4877540     2.3935860    -0.2389230
  H       -2.9081880     1.6071800     0.8902120
  H       -1.9135990     1.6021400    -0.5664420
  H       -3.1113200    -0.4862750    -1.3548320
  H       -4.1326660    -0.4262330     0.0924510
  H       -4.2326140     0.8656560    -1.1221410
units angstrom
no_reorient  #important for SAPT in psi4, default
symmetry c1  #important for SAPT in psi4, default
}

set PROPERTIES_ORIGIN ["COM"]
properties('MP2/aug-cc-pvtz', properties = ['dipole'])
--------------------------------------------------------------------------

    Molecular point group: c1
  Charge       = 0
  Multiplicity = 1
  Basis Set: AUG-CC-PVTZ
    Blend: AUG-CC-PVTZ
  Basis Set: (AUG-CC-PVTZ AUX)
    Blend: AUG-CC-PVTZ-JKFIT

    Orbital Energies [Eh]
    ---------------------

    Doubly Occupied:

       1A    -91.967534     2A    -91.967053     3A    -11.262126
       4A    -11.257258     5A    -11.230539     6A    -11.221303
       7A    -11.217026     8A    -11.210223     9A     -8.966377
      10A     -8.965823    11A     -6.647485    12A     -6.646875
      13A     -6.646209    14A     -6.645688    15A     -6.645388
      16A     -6.644890    17A     -1.110763    18A     -1.076671
      19A     -1.011914    20A     -0.935185    21A     -0.930925
      22A     -0.860983    23A     -0.793451    24A     -0.751781
      25A     -0.642220    26A     -0.629375    27A     -0.607755
      28A     -0.592484    29A     -0.585800    30A     -0.551302
      31A     -0.540993    32A     -0.532733    33A     -0.514777
      34A     -0.509907    35A     -0.492508    36A     -0.474345
      37A     -0.471107    38A     -0.452910    39A     -0.428794
      40A     -0.352932    41A     -0.344087

  @DF-RHF Final Energy: -1030.54748699712763

   => Energetics <=

    Nuclear Repulsion Energy =            555.7689919297877168
    One-Electron Energy =               -2521.9579665958067380
    Two-Electron Energy =                 935.6414876688912727
    Total Energy =                      -1030.5474869971276348
  Basis Set: (AUG-CC-PVTZ AUX)
    Blend: AUG-CC-PVTZ-RI
    Molecular point group: c1

    Geometry (in Angstrom), charge = 0, multiplicity = 1:

       Center              X                  Y                   Z               Mass
    ------------   -----------------  -----------------  -----------------  -----------------
         S           -0.241052335300    -1.003509576016    -0.503594498069    31.972071174400
         S           -1.249735335300    -0.049285576016     1.015532501931    31.972071174400
         C            2.167111664700     0.327011423984     0.182415501931    12.000000000000
         C            1.082892664700     0.191554423984    -0.884344498069    12.000000000000
         C            2.962536664700    -0.963915576016     0.350869501931    12.000000000000
         C            3.087967664700     1.492911423984    -0.178093498069    12.000000000000
         C           -2.428337335300     0.997769423984     0.100037501931    12.000000000000
         C           -3.509368335300     0.216665423984    -0.629986498069    12.000000000000
         H            1.669557664700     0.562727423984     1.132035501931     1.007825032230
         H            0.621237664700     1.163181423984    -1.091804498069     1.007825032230
         H            1.522290664700    -0.169001576016    -1.824209498069     1.007825032230
         H            3.488066664700    -1.212126576016    -0.578688498069     1.007825032230
         H            3.740631664700    -0.795397176016     1.101651601931     1.007825032230
         H            2.312196664700    -1.802741576016     0.610790501931     1.007825032230
         H            3.587830664700     1.308761423984    -1.135720498069     1.007825032230
         H            3.862344664700     1.624728423984     0.583910501931     1.007825032230
         H            2.531029664700     2.431803423984    -0.260319498069     1.007825032230
         H           -2.864912335300     1.645397423984     0.868815501931     1.007825032230
         H           -1.870323335300     1.640357423984    -0.587838498069     1.007825032230
         H           -3.068044335300    -0.448057576016    -1.376228498069     1.007825032230
         H           -4.089390335300    -0.388015576016     0.071054501931     1.007825032230
         H           -4.189338335300     0.903873423984    -1.143537498069     1.007825032230

  Basis Set: AUG-CC-PVTZ
    Blend: AUG-CC-PVTZ
  Basis Set: (AUG-CC-PVTZ AUX)
    Blend: AUG-CC-PVTZ-JKFIT
	 Reference Energy          =   -1030.5474869971276348 [Eh]
	 Singles Energy            =      -0.0000000000000000 [Eh]
	 Same-Spin Energy          =      -0.3701544404653353 [Eh]
	 Opposite-Spin Energy      =      -1.2689921690180774 [Eh]
	 Correlation Energy        =      -1.6391466094834128 [Eh]
	 Total Energy              =   -1032.1866336066109398 [Eh]

	 ================> DF-SCS-MP2 Energies <==================
	-----------------------------------------------------------
	 SCS Same-Spin Scale       =       0.3333333333333333 [-]
	 SCS Opposite-Spin Scale   =       1.2000000000000000 [-]
	 SCS Same-Spin Energy      =      -0.1233848134884451 [Eh]
	 SCS Opposite-Spin Energy  =      -1.5227906028216929 [Eh]
	 SCS Correlation Energy    =      -1.6461754163101379 [Eh]
	 SCS Total Energy          =   -1032.1936624134377780 [Eh]
	-----------------------------------------------------------

  Dipole Moment: [D]
     X:     0.1199      Y:     1.7869      Z:    -0.8806     Total:     1.9957

*** Psi4 exiting successfully. Buy a developer a beer!
