                               Psi4 1.4a3.dev225

  ==> Input File <==

--------------------------------------------------------------------------
#psi4
#
memory 32 gb

molecule  {
0 1
  S       -0.2843280    -1.0417270    -0.4821980
  S       -1.2930110    -0.0875030     1.0369290
  C        2.1238360     0.2887940     0.2038120
  C        1.0396170     0.1533370    -0.8629480
  C        2.9192610    -1.0021330     0.3722660
  C        3.0446920     1.4546940    -0.1566970
  C       -2.4716130     0.9595520     0.1214340
  C       -3.5170937     0.2041351    -0.5845827
  H        1.6262820     0.5245100     1.1534320
  H        0.5779620     1.1249640    -1.0704080
  H        1.4790150    -0.2072190    -1.8028130
  H        3.4447910    -1.2503440    -0.5572920
  H        3.6685600    -0.8925200     1.1622280
  H        2.2689210    -1.8409590     0.6321870
  H        3.5445550     1.2705440    -1.1143240
  H        3.8190690     1.5865110     0.6053070
  H        2.4877540     2.3935860    -0.2389230
  H       -2.9081880     1.6071800     0.8902120
  H       -1.9135990     1.6021400    -0.5664420
  H       -3.1113200    -0.4862750    -1.3548320
  H       -4.1326660    -0.4262330     0.0924510
  H       -4.2326140     0.8656560    -1.1221410
units angstrom
no_reorient  #important for SAPT in psi4, default
symmetry c1  #important for SAPT in psi4, default
}

set PROPERTIES_ORIGIN ["COM"]
properties('MP2/aug-cc-pvtz', properties = ['dipole'])
--------------------------------------------------------------------------

    Molecular point group: c1
  Charge       = 0
  Multiplicity = 1
  Basis Set: AUG-CC-PVTZ
    Blend: AUG-CC-PVTZ
  Basis Set: (AUG-CC-PVTZ AUX)
    Blend: AUG-CC-PVTZ-JKFIT

    Orbital Energies [Eh]
    ---------------------

    Doubly Occupied:

       1A    -91.967571     2A    -91.967125     3A    -11.260242
       4A    -11.257647     5A    -11.230998     6A    -11.223254
       7A    -11.216886     8A    -11.210140     9A     -8.966481
      10A     -8.965888    11A     -6.647574    12A     -6.646940
      13A     -6.646309    14A     -6.645747    15A     -6.645481
      16A     -6.644949    17A     -1.111626    18A     -1.081818
      19A     -1.014648    20A     -0.934858    21A     -0.931157
      22A     -0.858450    23A     -0.793498    24A     -0.752411
      25A     -0.644099    26A     -0.631416    27A     -0.605111
      28A     -0.592371    29A     -0.587293    30A     -0.551967
      31A     -0.549601    32A     -0.535625    33A     -0.510921
      34A     -0.501615    35A     -0.489517    36A     -0.474729
      37A     -0.470782    38A     -0.452060    39A     -0.428691
      40A     -0.353504    41A     -0.344666

  @DF-RHF Final Energy: -1030.54503989035561

   => Energetics <=

    Nuclear Repulsion Energy =            556.5446647050659976
    One-Electron Energy =               -2523.4880784167939964
    Two-Electron Energy =                 936.3983738213723882
    Total Energy =                      -1030.5450398903556106
  Basis Set: (AUG-CC-PVTZ AUX)
    Blend: AUG-CC-PVTZ-RI
    Molecular point group: c1

    Geometry (in Angstrom), charge = 0, multiplicity = 1:

       Center              X                  Y                   Z               Mass
    ------------   -----------------  -----------------  -----------------  -----------------
         S           -0.243701935340    -1.005168174740    -0.505777543870    31.972071174400
         S           -1.252384935340    -0.050944174740     1.013349456130    31.972071174400
         C            2.164462064660     0.325352825260     0.180232456130    12.000000000000
         C            1.080243064660     0.189895825260    -0.886527543870    12.000000000000
         C            2.959887064660    -0.965574174740     0.348686456130    12.000000000000
         C            3.085318064660     1.491252825260    -0.180276543870    12.000000000000
         C           -2.430986935340     0.996110825260     0.097854456130    12.000000000000
         C           -3.476467635340     0.240693925260    -0.608162243870    12.000000000000
         H            1.666908064660     0.561068825260     1.129852456130     1.007825032230
         H            0.618588064660     1.161522825260    -1.093987543870     1.007825032230
         H            1.519641064660    -0.170660174740    -1.826392543870     1.007825032230
         H            3.485417064660    -1.213785174740    -0.580871543870     1.007825032230
         H            3.709186064660    -0.855961174740     1.138648456130     1.007825032230
         H            2.309547064660    -1.804400174740     0.608607456130     1.007825032230
         H            3.585181064660     1.307102825260    -1.137903543870     1.007825032230
         H            3.859695064660     1.623069825260     0.581727456130     1.007825032230
         H            2.528380064660     2.430144825260    -0.262502543870     1.007825032230
         H           -2.867561935340     1.643738825260     0.866632456130     1.007825032230
         H           -1.872972935340     1.638698825260    -0.590021543870     1.007825032230
         H           -3.070693935340    -0.449716174740    -1.378411543870     1.007825032230
         H           -4.092039935340    -0.389674174740     0.068871456130     1.007825032230
         H           -4.191987935340     0.902214825260    -1.145720543870     1.007825032230

  Basis Set: AUG-CC-PVTZ
    Blend: AUG-CC-PVTZ
  Basis Set: (AUG-CC-PVTZ AUX)
    Blend: AUG-CC-PVTZ-JKFIT
	 Reference Energy          =   -1030.5450398903556106 [Eh]
	 Singles Energy            =      -0.0000000000000000 [Eh]
	 Same-Spin Energy          =      -0.3705429802230892 [Eh]
	 Opposite-Spin Energy      =      -1.2693550395806135 [Eh]
	 Correlation Energy        =      -1.6398980198037028 [Eh]
	 Total Energy              =   -1032.1849379101593058 [Eh]

	 ================> DF-SCS-MP2 Energies <==================
	-----------------------------------------------------------
	 SCS Same-Spin Scale       =       0.3333333333333333 [-]
	 SCS Opposite-Spin Scale   =       1.2000000000000000 [-]
	 SCS Same-Spin Energy      =      -0.1235143267410297 [Eh]
	 SCS Opposite-Spin Energy  =      -1.5232260474967361 [Eh]
	 SCS Correlation Energy    =      -1.6467403742377658 [Eh]
	 SCS Total Energy          =   -1032.1917802645934898 [Eh]
	-----------------------------------------------------------

  Dipole Moment: [D]
     X:     0.1199      Y:     1.7628      Z:    -0.8668     Total:     1.9680

*** Psi4 exiting successfully. Buy a developer a beer!
