                               Psi4 1.4a3.dev225

  ==> Input File <==

--------------------------------------------------------------------------
#psi4
#
memory 32 gb

molecule  {
0 1
  S       -0.2843280    -1.0417270    -0.4821980
  S       -1.2930110    -0.0875030     1.0369290
  C        2.1238360     0.2887940     0.2038120
  C        1.0396170     0.1533370    -0.8629480
  C        2.9192610    -1.0021330     0.3722660
  C        3.0446920     1.4546940    -0.1566970
  C       -2.4716130     0.9595520     0.1214340
  C       -3.5526440     0.1784480    -0.6085900
  H        1.6262820     0.5245100     1.1534320
  H        0.5779620     1.1249640    -1.0704080
  H        1.4790150    -0.2072190    -1.8028130
  H        3.4447910    -1.2503440    -0.5572920
  H        3.6685600    -0.8925200     1.1622280
  H        2.2689210    -1.8409590     0.6321870
  H        3.5445550     1.2705440    -1.1143240
  H        3.8190690     1.5865110     0.6053070
  H        2.4877540     2.3935860    -0.2389230
  H       -2.9081880     1.6071800     0.8902120
  H       -1.9135990     1.6021400    -0.5664420
  H       -3.1113200    -0.4862750    -1.3548320
  H       -4.1326660    -0.4262330     0.0924510
  H       -4.1083835     0.7401031    -1.0283153
units angstrom
no_reorient  #important for SAPT in psi4, default
symmetry c1  #important for SAPT in psi4, default
}

set PROPERTIES_ORIGIN ["COM"]
properties('MP2/aug-cc-pvtz', properties = ['dipole'])
--------------------------------------------------------------------------

    Molecular point group: c1
  Charge       = 0
  Multiplicity = 1
  Basis Set: AUG-CC-PVTZ
    Blend: AUG-CC-PVTZ
  Basis Set: (AUG-CC-PVTZ AUX)
    Blend: AUG-CC-PVTZ-JKFIT

    Orbital Energies [Eh]
    ---------------------

    Doubly Occupied:

       1A    -91.966242     2A    -91.966159     3A    -11.260801
       4A    -11.256952     5A    -11.230411     6A    -11.216451
       7A    -11.209650     8A    -11.196240     9A     -8.965115
      10A     -8.964884    11A     -6.646266    12A     -6.645899
      13A     -6.644932    14A     -6.644777    15A     -6.644100
      16A     -6.643985    17A     -1.110362    18A     -1.079757
      19A     -1.017658    20A     -0.944576    21A     -0.930805
      22A     -0.868987    23A     -0.794502    24A     -0.751597
      25A     -0.643395    26A     -0.628828    27A     -0.625198
      28A     -0.602349    29A     -0.587242    30A     -0.551664
      31A     -0.539845    32A     -0.534326    33A     -0.512773
      34A     -0.507225    35A     -0.497476    36A     -0.475788
      37A     -0.472199    38A     -0.453601    39A     -0.427837
      40A     -0.351890    41A     -0.343326

  @DF-RHF Final Energy: -1030.51404870482315

   => Energetics <=

    Nuclear Repulsion Energy =            556.8048463879601968
    One-Electron Energy =               -2523.9256424306981899
    Two-Electron Energy =                 936.6067473379148396
    Total Energy =                      -1030.5140487048231535
  Basis Set: (AUG-CC-PVTZ AUX)
    Blend: AUG-CC-PVTZ-RI
    Molecular point group: c1

    Geometry (in Angstrom), charge = 0, multiplicity = 1:

       Center              X                  Y                   Z               Mass
    ------------   -----------------  -----------------  -----------------  -----------------
         S           -0.241693314381    -1.002270674869    -0.504487820790    31.972071174400
         S           -1.250376314381    -0.048046674869     1.014639179210    31.972071174400
         C            2.166470685619     0.328250325131     0.181522179210    12.000000000000
         C            1.082251685619     0.192793325131    -0.885237820790    12.000000000000
         C            2.961895685619    -0.962676674869     0.349976179210    12.000000000000
         C            3.087326685619     1.494150325131    -0.178986820790    12.000000000000
         C           -2.428978314381     0.999008325131     0.099144179210    12.000000000000
         C           -3.510009314381     0.217904325131    -0.630879820790    12.000000000000
         H            1.668916685619     0.563966325131     1.131142179210     1.007825032230
         H            0.620596685619     1.164420325131    -1.092697820790     1.007825032230
         H            1.521649685619    -0.167762674869    -1.825102820790     1.007825032230
         H            3.487425685619    -1.210887674869    -0.579581820790     1.007825032230
         H            3.711194685619    -0.853063674869     1.139938179210     1.007825032230
         H            2.311555685619    -1.801502674869     0.609897179210     1.007825032230
         H            3.587189685619     1.310000325131    -1.136613820790     1.007825032230
         H            3.861703685619     1.625967325131     0.583017179210     1.007825032230
         H            2.530388685619     2.433042325131    -0.261212820790     1.007825032230
         H           -2.865553314381     1.646636325131     0.867922179210     1.007825032230
         H           -1.870964314381     1.641596325131    -0.588731820790     1.007825032230
         H           -3.068685314381    -0.446818674869    -1.377121820790     1.007825032230
         H           -4.090031314381    -0.386776674869     0.070161179210     1.007825032230
         H           -4.065748814381     0.779559425131    -1.050605120790     1.007825032230

  Basis Set: AUG-CC-PVTZ
    Blend: AUG-CC-PVTZ
  Basis Set: (AUG-CC-PVTZ AUX)
    Blend: AUG-CC-PVTZ-JKFIT
	 Reference Energy          =   -1030.5140487048231535 [Eh]
	 Singles Energy            =      -0.0000000000000000 [Eh]
	 Same-Spin Energy          =      -0.3702669053674728 [Eh]
	 Opposite-Spin Energy      =      -1.2684053929353181 [Eh]
	 Correlation Energy        =      -1.6386722983027908 [Eh]
	 Total Energy              =   -1032.1527210031258619 [Eh]

	 ================> DF-SCS-MP2 Energies <==================
	-----------------------------------------------------------
	 SCS Same-Spin Scale       =       0.3333333333333333 [-]
	 SCS Opposite-Spin Scale   =       1.2000000000000000 [-]
	 SCS Same-Spin Energy      =      -0.1234223017891576 [Eh]
	 SCS Opposite-Spin Energy  =      -1.5220864715223816 [Eh]
	 SCS Correlation Energy    =      -1.6455087733115392 [Eh]
	 SCS Total Energy          =   -1032.1595574781347295 [Eh]
	-----------------------------------------------------------

  Dipole Moment: [D]
     X:     0.0108      Y:     1.8086      Z:    -0.9131     Total:     2.0260

*** Psi4 exiting successfully. Buy a developer a beer!
