                               Psi4 1.4a3.dev225

  ==> Input File <==

--------------------------------------------------------------------------
#psi4
#
memory 32 gb

molecule  {
0 1
  S       -0.2843280    -1.0417270    -0.4821980
  S       -1.2930110    -0.0875030     1.0369290
  C        2.1238360     0.2887940     0.2038120
  C        1.0396170     0.1533370    -0.8629480
  C        2.9192610    -1.0021330     0.3722660
  C        3.0446920     1.4546940    -0.1566970
  C       -2.4716130     0.9595520     0.1214340
  C       -3.5526440     0.1784480    -0.6085900
  H        1.6262820     0.5245100     1.1534320
  H        0.5779620     1.1249640    -1.0704080
  H        1.4590127    -0.1908058    -1.7600285
  H        3.4447910    -1.2503440    -0.5572920
  H        3.6685600    -0.8925200     1.1622280
  H        2.2689210    -1.8409590     0.6321870
  H        3.5445550     1.2705440    -1.1143240
  H        3.8190690     1.5865110     0.6053070
  H        2.4877540     2.3935860    -0.2389230
  H       -2.9081880     1.6071800     0.8902120
  H       -1.9135990     1.6021400    -0.5664420
  H       -3.1113200    -0.4862750    -1.3548320
  H       -4.1326660    -0.4262330     0.0924510
  H       -4.2326140     0.8656560    -1.1221410
units angstrom
no_reorient  #important for SAPT in psi4, default
symmetry c1  #important for SAPT in psi4, default
}

set PROPERTIES_ORIGIN ["COM"]
properties('MP2/aug-cc-pvtz', properties = ['dipole'])
--------------------------------------------------------------------------

    Molecular point group: c1
  Charge       = 0
  Multiplicity = 1
  Basis Set: AUG-CC-PVTZ
    Blend: AUG-CC-PVTZ
  Basis Set: (AUG-CC-PVTZ AUX)
    Blend: AUG-CC-PVTZ-JKFIT

    Orbital Energies [Eh]
    ---------------------

    Doubly Occupied:

       1A    -91.967339     2A    -91.966605     3A    -11.261975
       4A    -11.251644     5A    -11.230487     6A    -11.221190
       7A    -11.216820     8A    -11.210088     9A     -8.966171
      10A     -8.965416    11A     -6.647271    12A     -6.646487
      13A     -6.646004    14A     -6.645284    15A     -6.645185
      16A     -6.644487    17A     -1.111740    18A     -1.076538
      19A     -1.012103    20A     -0.937304    21A     -0.931114
      22A     -0.861807    23A     -0.793887    24A     -0.754696
      25A     -0.644540    26A     -0.629746    27A     -0.606061
      28A     -0.591908    29A     -0.587001    30A     -0.554563
      31A     -0.541175    32A     -0.535126    33A     -0.513978
      34A     -0.507921    35A     -0.492680    36A     -0.475303
      37A     -0.472113    38A     -0.452567    39A     -0.429110
      40A     -0.352730    41A     -0.343893

  @DF-RHF Final Energy: -1030.54727299674687

   => Energetics <=

    Nuclear Repulsion Energy =            556.0056049498408584
    One-Electron Energy =               -2522.4216393922047246
    Two-Electron Energy =                 935.8687614456171104
    Total Energy =                      -1030.5472729967468695
  Basis Set: (AUG-CC-PVTZ AUX)
    Blend: AUG-CC-PVTZ-RI
    Molecular point group: c1

    Geometry (in Angstrom), charge = 0, multiplicity = 1:

       Center              X                  Y                   Z               Mass
    ------------   -----------------  -----------------  -----------------  -----------------
         S           -0.240724584964    -1.003224180155    -0.504145006174    31.972071174400
         S           -1.249407584964    -0.049000180155     1.014981993826    31.972071174400
         C            2.167439415036     0.327296819845     0.181864993826    12.000000000000
         C            1.083220415036     0.191839819845    -0.884895006174    12.000000000000
         C            2.962864415036    -0.963630180155     0.350318993826    12.000000000000
         C            3.088295415036     1.493196819845    -0.178644006174    12.000000000000
         C           -2.428009584964     0.998054819845     0.099486993826    12.000000000000
         C           -3.509040584964     0.216950819845    -0.630537006174    12.000000000000
         H            1.669885415036     0.563012819845     1.131484993826     1.007825032230
         H            0.621565415036     1.163466819845    -1.092355006174     1.007825032230
         H            1.502616115036    -0.152302980155    -1.781975506174     1.007825032230
         H            3.488394415036    -1.211841180155    -0.579239006174     1.007825032230
         H            3.712163415036    -0.854017180155     1.140280993826     1.007825032230
         H            2.312524415036    -1.802456180155     0.610239993826     1.007825032230
         H            3.588158415036     1.309046819845    -1.136271006174     1.007825032230
         H            3.862672415036     1.625013819845     0.583359993826     1.007825032230
         H            2.531357415036     2.432088819845    -0.260870006174     1.007825032230
         H           -2.864584584964     1.645682819845     0.868264993826     1.007825032230
         H           -1.869995584964     1.640642819845    -0.588389006174     1.007825032230
         H           -3.067716584964    -0.447772180155    -1.376779006174     1.007825032230
         H           -4.089062584964    -0.387730180155     0.070503993826     1.007825032230
         H           -4.189010584964     0.904158819845    -1.144088006174     1.007825032230

  Basis Set: AUG-CC-PVTZ
    Blend: AUG-CC-PVTZ
  Basis Set: (AUG-CC-PVTZ AUX)
    Blend: AUG-CC-PVTZ-JKFIT
	 Reference Energy          =   -1030.5472729967468695 [Eh]
	 Singles Energy            =      -0.0000000000000000 [Eh]
	 Same-Spin Energy          =      -0.3700095398104874 [Eh]
	 Opposite-Spin Energy      =      -1.2685537106880016 [Eh]
	 Correlation Energy        =      -1.6385632504984891 [Eh]
	 Total Energy              =   -1032.1858362472453337 [Eh]

	 ================> DF-SCS-MP2 Energies <==================
	-----------------------------------------------------------
	 SCS Same-Spin Scale       =       0.3333333333333333 [-]
	 SCS Opposite-Spin Scale   =       1.2000000000000000 [-]
	 SCS Same-Spin Energy      =      -0.1233365132701625 [Eh]
	 SCS Opposite-Spin Energy  =      -1.5222644528256020 [Eh]
	 SCS Correlation Energy    =      -1.6456009660957645 [Eh]
	 SCS Total Energy          =   -1032.1928739628426683 [Eh]
	-----------------------------------------------------------

  Dipole Moment: [D]
     X:     0.1258      Y:     1.7654      Z:    -0.8798     Total:     1.9765

*** Psi4 exiting successfully. Buy a developer a beer!
