                               Psi4 1.4a3.dev225

  ==> Input File <==

--------------------------------------------------------------------------
#psi4
#
memory 32 gb

molecule  {
0 1
  S       -0.2843280    -1.0417270    -0.4821980
  S       -1.2930110    -0.0875030     1.0369290
  C        2.1238360     0.2887940     0.2038120
  C        1.0396170     0.1533370    -0.8629480
  C        2.9192610    -1.0021330     0.3722660
  C        3.0446920     1.4546940    -0.1566970
  C       -2.4716130     0.9595520     0.1214340
  C       -3.5881943     0.1527609    -0.6325973
  H        1.6262820     0.5245100     1.1534320
  H        0.5779620     1.1249640    -1.0704080
  H        1.4790150    -0.2072190    -1.8028130
  H        3.4447910    -1.2503440    -0.5572920
  H        3.6685600    -0.8925200     1.1622280
  H        2.2689210    -1.8409590     0.6321870
  H        3.5445550     1.2705440    -1.1143240
  H        3.8190690     1.5865110     0.6053070
  H        2.4877540     2.3935860    -0.2389230
  H       -2.9081880     1.6071800     0.8902120
  H       -1.9135990     1.6021400    -0.5664420
  H       -3.1113200    -0.4862750    -1.3548320
  H       -4.1326660    -0.4262330     0.0924510
  H       -4.2326140     0.8656560    -1.1221410
units angstrom
no_reorient  #important for SAPT in psi4, default
symmetry c1  #important for SAPT in psi4, default
}

set PROPERTIES_ORIGIN ["COM"]
properties('MP2/aug-cc-pvtz', properties = ['dipole'])
--------------------------------------------------------------------------

    Molecular point group: c1
  Charge       = 0
  Multiplicity = 1
  Basis Set: AUG-CC-PVTZ
    Blend: AUG-CC-PVTZ
  Basis Set: (AUG-CC-PVTZ AUX)
    Blend: AUG-CC-PVTZ-JKFIT

    Orbital Energies [Eh]
    ---------------------

    Doubly Occupied:

       1A    -91.967468     2A    -91.966842     3A    -11.263659
       4A    -11.257474     5A    -11.230871     6A    -11.220070
       7A    -11.216777     8A    -11.210019     9A     -8.966241
      10A     -8.965617    11A     -6.647354    12A     -6.646674
      13A     -6.646077    14A     -6.645482    15A     -6.645264
      16A     -6.644682    17A     -1.110046    18A     -1.072210
      19A     -1.008867    20A     -0.935516    21A     -0.931080
      22A     -0.863124    23A     -0.793551    24A     -0.751438
      25A     -0.643178    26A     -0.628691    27A     -0.604994
      28A     -0.592436    29A     -0.585637    30A     -0.551828
      31A     -0.536589    32A     -0.529398    33A     -0.520735
      34A     -0.508091    35A     -0.495751    36A     -0.475908
      37A     -0.471895    38A     -0.452277    39A     -0.428630
      40A     -0.352290    41A     -0.343302

  @DF-RHF Final Energy: -1030.54643643384543

   => Energetics <=

    Nuclear Repulsion Energy =            554.9236592711237108
    One-Electron Energy =               -2520.2841274783095287
    Two-Electron Energy =                 934.8140317733406164
    Total Energy =                      -1030.5464364338454288
  Basis Set: (AUG-CC-PVTZ AUX)
    Blend: AUG-CC-PVTZ-RI
    Molecular point group: c1

    Geometry (in Angstrom), charge = 0, multiplicity = 1:

       Center              X                  Y                   Z               Mass
    ------------   -----------------  -----------------  -----------------  -----------------
         S           -0.238015922659    -1.001059709373    -0.501937750332    31.972071174400
         S           -1.246698922659    -0.046835709373     1.017189249668    31.972071174400
         C            2.170148077341     0.329461290627     0.184072249668    12.000000000000
         C            1.085929077341     0.194004290627    -0.882687750332    12.000000000000
         C            2.965573077341    -0.961465709373     0.352526249668    12.000000000000
         C            3.091004077341     1.495361290627    -0.176436750332    12.000000000000
         C           -2.425300922659     1.000219290627     0.101694249668    12.000000000000
         C           -3.541882222659     0.193428190627    -0.652337050332    12.000000000000
         H            1.672594077341     0.565177290627     1.133692249668     1.007825032230
         H            0.624274077341     1.165631290627    -1.090147750332     1.007825032230
         H            1.525327077341    -0.166551709373    -1.822552750332     1.007825032230
         H            3.491103077341    -1.209676709373    -0.577031750332     1.007825032230
         H            3.714872077341    -0.851852709373     1.142488249668     1.007825032230
         H            2.315233077341    -1.800291709373     0.612447249668     1.007825032230
         H            3.590867077341     1.311211290627    -1.134063750332     1.007825032230
         H            3.865381077341     1.627178290627     0.585567249668     1.007825032230
         H            2.534066077341     2.434253290627    -0.258662750332     1.007825032230
         H           -2.861875922659     1.647847290627     0.870472249668     1.007825032230
         H           -1.867286922659     1.642807290627    -0.586181750332     1.007825032230
         H           -3.065007922659    -0.445607709373    -1.374571750332     1.007825032230
         H           -4.086353922659    -0.385565709373     0.072711249668     1.007825032230
         H           -4.186301922659     0.906323290627    -1.141880750332     1.007825032230

  Basis Set: AUG-CC-PVTZ
    Blend: AUG-CC-PVTZ
  Basis Set: (AUG-CC-PVTZ AUX)
    Blend: AUG-CC-PVTZ-JKFIT
	 Reference Energy          =   -1030.5464364338454288 [Eh]
	 Singles Energy            =      -0.0000000000000000 [Eh]
	 Same-Spin Energy          =      -0.3698500242492219 [Eh]
	 Opposite-Spin Energy      =      -1.2687597036284195 [Eh]
	 Correlation Energy        =      -1.6386097278776415 [Eh]
	 Total Energy              =   -1032.1850461617229939 [Eh]

	 ================> DF-SCS-MP2 Energies <==================
	-----------------------------------------------------------
	 SCS Same-Spin Scale       =       0.3333333333333333 [-]
	 SCS Opposite-Spin Scale   =       1.2000000000000000 [-]
	 SCS Same-Spin Energy      =      -0.1232833414164073 [Eh]
	 SCS Opposite-Spin Energy  =      -1.5225116443541034 [Eh]
	 SCS Correlation Energy    =      -1.6457949857705105 [Eh]
	 SCS Total Energy          =   -1032.1922314196158368 [Eh]
	-----------------------------------------------------------

  Dipole Moment: [D]
     X:     0.1183      Y:     1.7727      Z:    -0.8558     Total:     1.9720

*** Psi4 exiting successfully. Buy a developer a beer!
