                               Psi4 1.4a3.dev225

  ==> Input File <==

--------------------------------------------------------------------------
#psi4
#
memory 32 gb

molecule  {
0 1
  S       -0.2843280    -1.0417270    -0.4821980
  S       -1.2930110    -0.0875030     1.0369290
  C        2.1238360     0.2887940     0.2038120
  C        1.0396170     0.1533370    -0.8629480
  C        2.9192610    -1.0021330     0.3722660
  C        3.0446920     1.4546940    -0.1566970
  C       -2.4716130     0.9595520     0.1214340
  C       -3.5376244     0.2017554    -0.6538405
  H        1.6262820     0.5245100     1.1534320
  H        0.5779620     1.1249640    -1.0704080
  H        1.4790150    -0.2072190    -1.8028130
  H        3.4447910    -1.2503440    -0.5572920
  H        3.6685600    -0.8925200     1.1622280
  H        2.2689210    -1.8409590     0.6321870
  H        3.5445550     1.2705440    -1.1143240
  H        3.8190690     1.5865110     0.6053070
  H        2.4877540     2.3935860    -0.2389230
  H       -2.9081880     1.6071800     0.8902120
  H       -1.9135990     1.6021400    -0.5664420
  H       -3.1113200    -0.4862750    -1.3548320
  H       -4.1326660    -0.4262330     0.0924510
  H       -4.2326140     0.8656560    -1.1221410
units angstrom
no_reorient  #important for SAPT in psi4, default
symmetry c1  #important for SAPT in psi4, default
}

set PROPERTIES_ORIGIN ["COM"]
properties('MP2/aug-cc-pvtz', properties = ['dipole'])
--------------------------------------------------------------------------

    Molecular point group: c1
  Charge       = 0
  Multiplicity = 1
  Basis Set: AUG-CC-PVTZ
    Blend: AUG-CC-PVTZ
  Basis Set: (AUG-CC-PVTZ AUX)
    Blend: AUG-CC-PVTZ-JKFIT

    Orbital Energies [Eh]
    ---------------------

    Doubly Occupied:

       1A    -91.968275     2A    -91.967290     3A    -11.261956
       4A    -11.257712     5A    -11.231109     6A    -11.221514
       7A    -11.216939     8A    -11.210210     9A     -8.967034
      10A     -8.966069    11A     -6.648129    12A     -6.647149
      13A     -6.646857    14A     -6.646051    15A     -6.645924
      16A     -6.645126    17A     -1.110811    18A     -1.076411
      19A     -1.011936    20A     -0.935727    21A     -0.931253
      22A     -0.861270    23A     -0.793529    24A     -0.751883
      25A     -0.643383    26A     -0.628242    27A     -0.605797
      28A     -0.597057    29A     -0.586330    30A     -0.550929
      31A     -0.543162    32A     -0.535451    33A     -0.509609
      34A     -0.501901    35A     -0.493187    36A     -0.476122
      37A     -0.472309    38A     -0.454107    39A     -0.428876
      40A     -0.352865    41A     -0.344863

  @DF-RHF Final Energy: -1030.54519159714437

   => Energetics <=

    Nuclear Repulsion Energy =            555.6789499202413936
    One-Electron Energy =               -2521.7595703491583663
    Two-Electron Energy =                 935.5354288317726059
    Total Energy =                      -1030.5451915971443668
  Basis Set: (AUG-CC-PVTZ AUX)
    Blend: AUG-CC-PVTZ-RI
    Molecular point group: c1

    Geometry (in Angstrom), charge = 0, multiplicity = 1:

       Center              X                  Y                   Z               Mass
    ------------   -----------------  -----------------  -----------------  -----------------
         S           -0.242060067050    -1.004977866861    -0.500238902438    31.972071174400
         S           -1.250743067050    -0.050753866861     1.018888097562    31.972071174400
         C            2.166103932950     0.325543133139     0.185771097562    12.000000000000
         C            1.081884932950     0.190086133139    -0.880988902438    12.000000000000
         C            2.961528932950    -0.965383866861     0.354225097562    12.000000000000
         C            3.086959932950     1.491443133139    -0.174737902438    12.000000000000
         C           -2.429345067050     0.996301133139     0.103393097562    12.000000000000
         C           -3.495356467050     0.238504533139    -0.671881402438    12.000000000000
         H            1.668549932950     0.561259133139     1.135391097562     1.007825032230
         H            0.620229932950     1.161713133139    -1.088448902438     1.007825032230
         H            1.521282932950    -0.170469866861    -1.820853902438     1.007825032230
         H            3.487058932950    -1.213594866861    -0.575332902438     1.007825032230
         H            3.710827932950    -0.855770866861     1.144187097562     1.007825032230
         H            2.311188932950    -1.804209866861     0.614146097562     1.007825032230
         H            3.586822932950     1.307293133139    -1.132364902438     1.007825032230
         H            3.861336932950     1.623260133139     0.587266097562     1.007825032230
         H            2.530021932950     2.430335133139    -0.256963902438     1.007825032230
         H           -2.865920067050     1.643929133139     0.872171097562     1.007825032230
         H           -1.871331067050     1.638889133139    -0.584482902438     1.007825032230
         H           -3.069052067050    -0.449525866861    -1.372872902438     1.007825032230
         H           -4.090398067050    -0.389483866861     0.074410097562     1.007825032230
         H           -4.190346067050     0.902405133139    -1.140181902438     1.007825032230

  Basis Set: AUG-CC-PVTZ
    Blend: AUG-CC-PVTZ
  Basis Set: (AUG-CC-PVTZ AUX)
    Blend: AUG-CC-PVTZ-JKFIT
	 Reference Energy          =   -1030.5451915971443668 [Eh]
	 Singles Energy            =      -0.0000000000000000 [Eh]
	 Same-Spin Energy          =      -0.3701038318357424 [Eh]
	 Opposite-Spin Energy      =      -1.2690191864659544 [Eh]
	 Correlation Energy        =      -1.6391230183016967 [Eh]
	 Total Energy              =   -1032.1843146154460555 [Eh]

	 ================> DF-SCS-MP2 Energies <==================
	-----------------------------------------------------------
	 SCS Same-Spin Scale       =       0.3333333333333333 [-]
	 SCS Opposite-Spin Scale   =       1.2000000000000000 [-]
	 SCS Same-Spin Energy      =      -0.1233679439452474 [Eh]
	 SCS Opposite-Spin Energy  =      -1.5228230237591451 [Eh]
	 SCS Correlation Energy    =      -1.6461909677043927 [Eh]
	 SCS Total Energy          =   -1032.1913825648487091 [Eh]
	-----------------------------------------------------------

  Dipole Moment: [D]
     X:     0.1483      Y:     1.7768      Z:    -0.8740     Total:     1.9857

*** Psi4 exiting successfully. Buy a developer a beer!
