                               Psi4 1.4a3.dev225

  ==> Input File <==

--------------------------------------------------------------------------
#psi4
#
memory 32 gb

molecule  {
0 1
  S       -0.2843280    -1.0417270    -0.4821980
  S       -1.2930110    -0.0875030     1.0369290
  C        2.1382152     0.2999180     0.2232670
  C        1.0396170     0.1533370    -0.8629480
  C        2.9192610    -1.0021330     0.3722660
  C        3.0446920     1.4546940    -0.1566970
  C       -2.4716130     0.9595520     0.1214340
  C       -3.5526440     0.1784480    -0.6085900
  H        1.6262820     0.5245100     1.1534320
  H        0.5779620     1.1249640    -1.0704080
  H        1.4790150    -0.2072190    -1.8028130
  H        3.4447910    -1.2503440    -0.5572920
  H        3.6685600    -0.8925200     1.1622280
  H        2.2689210    -1.8409590     0.6321870
  H        3.5445550     1.2705440    -1.1143240
  H        3.8190690     1.5865110     0.6053070
  H        2.4877540     2.3935860    -0.2389230
  H       -2.9081880     1.6071800     0.8902120
  H       -1.9135990     1.6021400    -0.5664420
  H       -3.1113200    -0.4862750    -1.3548320
  H       -4.1326660    -0.4262330     0.0924510
  H       -4.2326140     0.8656560    -1.1221410
units angstrom
no_reorient  #important for SAPT in psi4, default
symmetry c1  #important for SAPT in psi4, default
}

set PROPERTIES_ORIGIN ["COM"]
properties('MP2/aug-cc-pvtz', properties = ['dipole'])
--------------------------------------------------------------------------

    Molecular point group: c1
  Charge       = 0
  Multiplicity = 1
  Basis Set: AUG-CC-PVTZ
    Blend: AUG-CC-PVTZ
  Basis Set: (AUG-CC-PVTZ AUX)
    Blend: AUG-CC-PVTZ-JKFIT

    Orbital Energies [Eh]
    ---------------------

    Doubly Occupied:

       1A    -91.967351     2A    -91.966802     3A    -11.261979
       4A    -11.257787     5A    -11.230831     6A    -11.221189
       7A    -11.216534     8A    -11.210089     9A     -8.966195
      10A     -8.965539    11A     -6.647300    12A     -6.646602
      13A     -6.646031    14A     -6.645401    15A     -6.645212
      16A     -6.644606    17A     -1.108936    18A     -1.076484
      19A     -1.012193    20A     -0.934019    21A     -0.932005
      22A     -0.859659    23A     -0.793811    24A     -0.752855
      25A     -0.642351    26A     -0.629751    27A     -0.605043
      28A     -0.591616    29A     -0.585354    30A     -0.551861
      31A     -0.541479    32A     -0.534965    33A     -0.513270
      34A     -0.507876    35A     -0.490232    36A     -0.476512
      37A     -0.473374    38A     -0.453354    39A     -0.428649
      40A     -0.352510    41A     -0.343371

  @DF-RHF Final Energy: -1030.54760468331824

   => Energetics <=

    Nuclear Repulsion Energy =            555.4408767107638596
    One-Electron Energy =               -2521.3150070002320717
    Two-Electron Energy =                 935.3265256061499713
    Total Energy =                      -1030.5476046833182409
  Basis Set: (AUG-CC-PVTZ AUX)
    Blend: AUG-CC-PVTZ-RI
    Molecular point group: c1

    Geometry (in Angstrom), charge = 0, multiplicity = 1:

       Center              X                  Y                   Z               Mass
    ------------   -----------------  -----------------  -----------------  -----------------
         S           -0.242008853382    -1.004003543622    -0.505413490184    31.972071174400
         S           -1.250691853382    -0.049779543622     1.013713509816    31.972071174400
         C            2.180534346618     0.337641456378     0.200051509816    12.000000000000
         C            1.081936146618     0.191060456378    -0.886163490184    12.000000000000
         C            2.961580146618    -0.964409543622     0.349050509816    12.000000000000
         C            3.087011146618     1.492417456378    -0.179912490184    12.000000000000
         C           -2.429293853382     0.997275456378     0.098218509816    12.000000000000
         C           -3.510324853382     0.216171456378    -0.631805490184    12.000000000000
         H            1.668601146618     0.562233456378     1.130216509816     1.007825032230
         H            0.620281146618     1.162687456378    -1.093623490184     1.007825032230
         H            1.521334146618    -0.169495543622    -1.826028490184     1.007825032230
         H            3.487110146618    -1.212620543622    -0.580507490184     1.007825032230
         H            3.710879146618    -0.854796543622     1.139012509816     1.007825032230
         H            2.311240146618    -1.803235543622     0.608971509816     1.007825032230
         H            3.586874146618     1.308267456378    -1.137539490184     1.007825032230
         H            3.861388146618     1.624234456378     0.582091509816     1.007825032230
         H            2.530073146618     2.431309456378    -0.262138490184     1.007825032230
         H           -2.865868853382     1.644903456378     0.866996509816     1.007825032230
         H           -1.871279853382     1.639863456378    -0.589657490184     1.007825032230
         H           -3.069000853382    -0.448551543622    -1.378047490184     1.007825032230
         H           -4.090346853382    -0.388509543622     0.069235509816     1.007825032230
         H           -4.190294853382     0.903379456378    -1.145356490184     1.007825032230

  Basis Set: AUG-CC-PVTZ
    Blend: AUG-CC-PVTZ
  Basis Set: (AUG-CC-PVTZ AUX)
    Blend: AUG-CC-PVTZ-JKFIT
	 Reference Energy          =   -1030.5476046833182409 [Eh]
	 Singles Energy            =      -0.0000000000000000 [Eh]
	 Same-Spin Energy          =      -0.3700351507932227 [Eh]
	 Opposite-Spin Energy      =      -1.2688328338741059 [Eh]
	 Correlation Energy        =      -1.6388679846673286 [Eh]
	 Total Energy              =   -1032.1864726679855266 [Eh]

	 ================> DF-SCS-MP2 Energies <==================
	-----------------------------------------------------------
	 SCS Same-Spin Scale       =       0.3333333333333333 [-]
	 SCS Opposite-Spin Scale   =       1.2000000000000000 [-]
	 SCS Same-Spin Energy      =      -0.1233450502644076 [Eh]
	 SCS Opposite-Spin Energy  =      -1.5225994006489272 [Eh]
	 SCS Correlation Energy    =      -1.6459444509133347 [Eh]
	 SCS Total Energy          =   -1032.1935491342314890 [Eh]
	-----------------------------------------------------------

  Dipole Moment: [D]
     X:     0.1301      Y:     1.7732      Z:    -0.8618     Total:     1.9759

*** Psi4 exiting successfully. Buy a developer a beer!
