                               Psi4 1.4a3.dev225

  ==> Input File <==

--------------------------------------------------------------------------
#psi4
#
memory 32 gb

molecule  {
0 1
  S       -0.2843280    -1.0417270    -0.4821980
  S       -1.2930110    -0.0875030     1.0369290
  C        2.1238360     0.2887940     0.2038120
  C        1.0396170     0.1533370    -0.8629480
  C        2.9192610    -1.0021330     0.3722660
  C        3.0446920     1.4546940    -0.1566970
  C       -2.4716130     0.9595520     0.1214340
  C       -3.5526440     0.1784480    -0.6085900
  H        1.6262820     0.5245100     1.1534320
  H        0.5779620     1.1249640    -1.0704080
  H        1.4790150    -0.2072190    -1.8028130
  H        3.4447910    -1.2503440    -0.5572920
  H        3.6685600    -0.8925200     1.1622280
  H        2.2689210    -1.8409590     0.6321870
  H        3.5445550     1.2705440    -1.1143240
  H        3.8190690     1.5865110     0.6053070
  H        2.4877540     2.3935860    -0.2389230
  H       -2.9081880     1.6071800     0.8902120
  H       -1.9135990     1.6021400    -0.5664420
  H       -3.1113200    -0.4862750    -1.3548320
  H       -4.1326660    -0.4262330     0.0924510
  H       -4.2201910     0.8531007    -1.1127584
units angstrom
no_reorient  #important for SAPT in psi4, default
symmetry c1  #important for SAPT in psi4, default
}

set PROPERTIES_ORIGIN ["COM"]
properties('MP2/aug-cc-pvtz', properties = ['dipole'])
--------------------------------------------------------------------------

    Molecular point group: c1
  Charge       = 0
  Multiplicity = 1
  Basis Set: AUG-CC-PVTZ
    Blend: AUG-CC-PVTZ
  Basis Set: (AUG-CC-PVTZ AUX)
    Blend: AUG-CC-PVTZ-JKFIT

    Orbital Energies [Eh]
    ---------------------

    Doubly Occupied:

       1A    -91.967329     2A    -91.966862     3A    -11.261928
       4A    -11.257475     5A    -11.230862     6A    -11.218802
       7A    -11.216779     8A    -11.210020     9A     -8.966173
      10A     -8.965629    11A     -6.647282    12A     -6.646679
      13A     -6.646005    14A     -6.645493    15A     -6.645185
      16A     -6.644694    17A     -1.110596    18A     -1.076670
      19A     -1.012050    20A     -0.935726    21A     -0.931082
      22A     -0.861602    23A     -0.793622    24A     -0.751845
      25A     -0.643481    26A     -0.629648    27A     -0.605270
      28A     -0.593538    29A     -0.586502    30A     -0.551495
      31A     -0.540988    32A     -0.534860    33A     -0.513494
      34A     -0.507964    35A     -0.493260    36A     -0.475464
      37A     -0.471815    38A     -0.452800    39A     -0.428581
      40A     -0.352758    41A     -0.343990

  @DF-RHF Final Energy: -1030.54809448364335

   => Energetics <=

    Nuclear Repulsion Energy =            555.8184820503789751
    One-Electron Energy =               -2522.0605515839970394
    Two-Electron Energy =                 935.6939750499747106
    Total Energy =                      -1030.5480944836435810
  Basis Set: (AUG-CC-PVTZ AUX)
    Blend: AUG-CC-PVTZ-RI
    Molecular point group: c1

    Geometry (in Angstrom), charge = 0, multiplicity = 1:

       Center              X                  Y                   Z               Mass
    ------------   -----------------  -----------------  -----------------  -----------------
         S           -0.240942367202    -1.003029615271    -0.503920664671    31.972071174400
         S           -1.249625367202    -0.048805615271     1.015206335329    31.972071174400
         C            2.167221632798     0.327491384729     0.182089335329    12.000000000000
         C            1.083002632798     0.192034384729    -0.884670664671    12.000000000000
         C            2.962646632798    -0.963435615271     0.350543335329    12.000000000000
         C            3.088077632798     1.493391384729    -0.178419664671    12.000000000000
         C           -2.428227367202     0.998249384729     0.099711335329    12.000000000000
         C           -3.509258367202     0.217145384729    -0.630312664671    12.000000000000
         H            1.669667632798     0.563207384729     1.131709335329     1.007825032230
         H            0.621347632798     1.163661384729    -1.092130664671     1.007825032230
         H            1.522400632798    -0.168521615271    -1.824535664671     1.007825032230
         H            3.488176632798    -1.211646615271    -0.579014664671     1.007825032230
         H            3.711945632798    -0.853822615271     1.140505335329     1.007825032230
         H            2.312306632798    -1.802261615271     0.610464335329     1.007825032230
         H            3.587940632798     1.309241384729    -1.136046664671     1.007825032230
         H            3.862454632798     1.625208384729     0.583584335329     1.007825032230
         H            2.531139632798     2.432283384729    -0.260645664671     1.007825032230
         H           -2.864802367202     1.645877384729     0.868489335329     1.007825032230
         H           -1.870213367202     1.640837384729    -0.588164664671     1.007825032230
         H           -3.067934367202    -0.447577615271    -1.376554664671     1.007825032230
         H           -4.089280367202    -0.387535615271     0.070728335329     1.007825032230
         H           -4.176805367202     0.891798084729    -1.134481064671     1.007825032230

  Basis Set: AUG-CC-PVTZ
    Blend: AUG-CC-PVTZ
  Basis Set: (AUG-CC-PVTZ AUX)
    Blend: AUG-CC-PVTZ-JKFIT
	 Reference Energy          =   -1030.5480944836433537 [Eh]
	 Singles Energy            =      -0.0000000000000000 [Eh]
	 Same-Spin Energy          =      -0.3701103221528831 [Eh]
	 Opposite-Spin Energy      =      -1.2687896887826786 [Eh]
	 Correlation Energy        =      -1.6389000109355618 [Eh]
	 Total Energy              =   -1032.1869944945788120 [Eh]

	 ================> DF-SCS-MP2 Energies <==================
	-----------------------------------------------------------
	 SCS Same-Spin Scale       =       0.3333333333333333 [-]
	 SCS Opposite-Spin Scale   =       1.2000000000000000 [-]
	 SCS Same-Spin Energy      =      -0.1233701073842944 [Eh]
	 SCS Opposite-Spin Energy  =      -1.5225476265392144 [Eh]
	 SCS Correlation Energy    =      -1.6459177339235087 [Eh]
	 SCS Total Energy          =   -1032.1940122175667511 [Eh]
	-----------------------------------------------------------

  Dipole Moment: [D]
     X:     0.1030      Y:     1.7732      Z:    -0.8688     Total:     1.9773

*** Psi4 exiting successfully. Buy a developer a beer!
