                               Psi4 1.4a3.dev225

  ==> Input File <==

--------------------------------------------------------------------------
#psi4
#
memory 32 gb

molecule  {
0 1
  S       -0.2843280    -1.0417270    -0.4821980
  S       -1.2930110    -0.0875030     1.0369290
  C        2.1238360     0.2887940     0.2038120
  C        1.0396170     0.1533370    -0.8629480
  C        2.9192610    -1.0021330     0.3722660
  C        3.0446920     1.4546940    -0.1566970
  C       -2.4716130     0.9595520     0.1214340
  C       -3.5526440     0.1784480    -0.6085900
  H        1.6262820     0.5245100     1.1534320
  H        0.5779620     1.1249640    -1.0704080
  H        1.4790150    -0.2072190    -1.8028130
  H        3.4447910    -1.2503440    -0.5572920
  H        3.6527836    -0.9221910     1.1803859
  H        2.2689210    -1.8409590     0.6321870
  H        3.5445550     1.2705440    -1.1143240
  H        3.8190690     1.5865110     0.6053070
  H        2.4877540     2.3935860    -0.2389230
  H       -2.9081880     1.6071800     0.8902120
  H       -1.9135990     1.6021400    -0.5664420
  H       -3.1113200    -0.4862750    -1.3548320
  H       -4.1326660    -0.4262330     0.0924510
  H       -4.2326140     0.8656560    -1.1221410
units angstrom
no_reorient  #important for SAPT in psi4, default
symmetry c1  #important for SAPT in psi4, default
}

set PROPERTIES_ORIGIN ["COM"]
properties('MP2/aug-cc-pvtz', properties = ['dipole'])
--------------------------------------------------------------------------

    Molecular point group: c1
  Charge       = 0
  Multiplicity = 1
  Basis Set: AUG-CC-PVTZ
    Blend: AUG-CC-PVTZ
  Basis Set: (AUG-CC-PVTZ AUX)
    Blend: AUG-CC-PVTZ-JKFIT

    Orbital Energies [Eh]
    ---------------------

    Doubly Occupied:

       1A    -91.967482     2A    -91.966929     3A    -11.262084
       4A    -11.257694     5A    -11.231145     6A    -11.221270
       7A    -11.216743     8A    -11.210005     9A     -8.966322
      10A     -8.965699    11A     -6.647426    12A     -6.646754
      13A     -6.646155    14A     -6.645560    15A     -6.645336
      16A     -6.644760    17A     -1.110627    18A     -1.076483
      19A     -1.011605    20A     -0.935033    21A     -0.931249
      22A     -0.860931    23A     -0.793656    24A     -0.751983
      25A     -0.644273    26A     -0.629990    27A     -0.603802
      28A     -0.591164    29A     -0.585617    30A     -0.551542
      31A     -0.541389    32A     -0.535928    33A     -0.513306
      34A     -0.506834    35A     -0.492705    36A     -0.476010
      37A     -0.471779    38A     -0.452490    39A     -0.428635
      40A     -0.352867    41A     -0.344098

  @DF-RHF Final Energy: -1030.54797382352808

   => Energetics <=

    Nuclear Repulsion Energy =            555.7028392922312605
    One-Electron Energy =               -2521.8309024499603765
    Two-Electron Energy =                 935.5800893342010340
    Total Energy =                      -1030.5479738235280820
  Basis Set: (AUG-CC-PVTZ AUX)
    Blend: AUG-CC-PVTZ-RI
    Molecular point group: c1

    Geometry (in Angstrom), charge = 0, multiplicity = 1:

       Center              X                  Y                   Z               Mass
    ------------   -----------------  -----------------  -----------------  -----------------
         S           -0.240752967923    -1.002914658880    -0.503979603354    31.972071174400
         S           -1.249435967923    -0.048690658880     1.015147396646    31.972071174400
         C            2.167411032077     0.327606341120     0.182030396646    12.000000000000
         C            1.083192032077     0.192149341120    -0.884729603354    12.000000000000
         C            2.962836032077    -0.963320658880     0.350484396646    12.000000000000
         C            3.088267032077     1.493506341120    -0.178478603354    12.000000000000
         C           -2.428037967923     0.998364341120     0.099652396646    12.000000000000
         C           -3.509068967923     0.217260341120    -0.630371603354    12.000000000000
         H            1.669857032077     0.563322341120     1.131650396646     1.007825032230
         H            0.621537032077     1.163776341120    -1.092189603354     1.007825032230
         H            1.522590032077    -0.168406658880    -1.824594603354     1.007825032230
         H            3.488366032077    -1.211531658880    -0.579073603354     1.007825032230
         H            3.696358632077    -0.883378658880     1.158604296646     1.007825032230
         H            2.312496032077    -1.802146658880     0.610405396646     1.007825032230
         H            3.588130032077     1.309356341120    -1.136105603354     1.007825032230
         H            3.862644032077     1.625323341120     0.583525396646     1.007825032230
         H            2.531329032077     2.432398341120    -0.260704603354     1.007825032230
         H           -2.864612967923     1.645992341120     0.868430396646     1.007825032230
         H           -1.870023967923     1.640952341120    -0.588223603354     1.007825032230
         H           -3.067744967923    -0.447462658880    -1.376613603354     1.007825032230
         H           -4.089090967923    -0.387420658880     0.070669396646     1.007825032230
         H           -4.189038967923     0.904468341120    -1.143922603354     1.007825032230

  Basis Set: AUG-CC-PVTZ
    Blend: AUG-CC-PVTZ
  Basis Set: (AUG-CC-PVTZ AUX)
    Blend: AUG-CC-PVTZ-JKFIT
	 Reference Energy          =   -1030.5479738235280820 [Eh]
	 Singles Energy            =      -0.0000000000000000 [Eh]
	 Same-Spin Energy          =      -0.3700987833118612 [Eh]
	 Opposite-Spin Energy      =      -1.2688785464430481 [Eh]
	 Correlation Energy        =      -1.6389773297549093 [Eh]
	 Total Energy              =   -1032.1869511532829620 [Eh]

	 ================> DF-SCS-MP2 Energies <==================
	-----------------------------------------------------------
	 SCS Same-Spin Scale       =       0.3333333333333333 [-]
	 SCS Opposite-Spin Scale   =       1.2000000000000000 [-]
	 SCS Same-Spin Energy      =      -0.1233662611039537 [Eh]
	 SCS Opposite-Spin Energy  =      -1.5226542557316576 [Eh]
	 SCS Correlation Energy    =      -1.6460205168356112 [Eh]
	 SCS Total Energy          =   -1032.1939943403635880 [Eh]
	-----------------------------------------------------------

  Dipole Moment: [D]
     X:     0.1143      Y:     1.7572      Z:    -0.8530     Total:     1.9567

*** Psi4 exiting successfully. Buy a developer a beer!
