                               Psi4 1.4a3.dev225

  ==> Input File <==

--------------------------------------------------------------------------
#psi4
#
memory 32 gb

molecule  {
0 1
  S       -0.2843280    -1.0417270    -0.4821980
  S       -1.2930110    -0.0875030     1.0369290
  C        2.1238360     0.2887940     0.2038120
  C        1.0396170     0.1533370    -0.8629480
  C        2.9192610    -1.0021330     0.3722660
  C        3.0446920     1.4546940    -0.1566970
  C       -2.4716130     0.9595520     0.1214340
  C       -3.5526440     0.1784480    -0.6085900
  H        1.6262820     0.5245100     1.1534320
  H        0.5779620     1.1249640    -1.0704080
  H        1.4790150    -0.2072190    -1.8028130
  H        3.4447910    -1.2503440    -0.5572920
  H        3.6685600    -0.8925200     1.1622280
  H        2.2689210    -1.8409590     0.6321870
  H        3.5445550     1.2705440    -1.1143240
  H        3.8190690     1.5865110     0.6053070
  H        2.4877540     2.3935860    -0.2389230
  H       -2.9081880     1.6071800     0.8902120
  H       -1.9237976     1.5903956    -0.5538699
  H       -3.1113200    -0.4862750    -1.3548320
  H       -4.1326660    -0.4262330     0.0924510
  H       -4.2326140     0.8656560    -1.1221410
units angstrom
no_reorient  #important for SAPT in psi4, default
symmetry c1  #important for SAPT in psi4, default
}

set PROPERTIES_ORIGIN ["COM"]
properties('MP2/aug-cc-pvtz', properties = ['dipole'])
--------------------------------------------------------------------------

    Molecular point group: c1
  Charge       = 0
  Multiplicity = 1
  Basis Set: AUG-CC-PVTZ
    Blend: AUG-CC-PVTZ
  Basis Set: (AUG-CC-PVTZ AUX)
    Blend: AUG-CC-PVTZ-JKFIT

    Orbital Energies [Eh]
    ---------------------

    Doubly Occupied:

       1A    -91.967332     2A    -91.966938     3A    -11.259746
       4A    -11.257556     5A    -11.230927     6A    -11.221100
       7A    -11.216834     8A    -11.210073     9A     -8.966187
      10A     -8.965704    11A     -6.647301    12A     -6.646749
      13A     -6.646018    14A     -6.645570    15A     -6.645197
      16A     -6.644772    17A     -1.110745    18A     -1.077108
      19A     -1.011926    20A     -0.935009    21A     -0.931111
      22A     -0.861707    23A     -0.794386    24A     -0.752525
      25A     -0.643874    26A     -0.631188    27A     -0.605041
      28A     -0.591576    29A     -0.585854    30A     -0.551438
      31A     -0.541222    32A     -0.534940    33A     -0.514570
      34A     -0.508215    35A     -0.492792    36A     -0.475416
      37A     -0.471742    38A     -0.452615    39A     -0.428873
      40A     -0.352906    41A     -0.344071

  @DF-RHF Final Energy: -1030.54819256210931

   => Energetics <=

    Nuclear Repulsion Energy =            555.8119756410821992
    One-Electron Energy =               -2522.0426238162867776
    Two-Electron Energy =                 935.6824556130952715
    Total Energy =                      -1030.5481925621093069
  Basis Set: (AUG-CC-PVTZ AUX)
    Blend: AUG-CC-PVTZ-RI
    Molecular point group: c1

    Geometry (in Angstrom), charge = 0, multiplicity = 1:

       Center              X                  Y                   Z               Mass
    ------------   -----------------  -----------------  -----------------  -----------------
         S           -0.240790430823    -1.003035061623    -0.503942086723    31.972071174400
         S           -1.249473430823    -0.048811061623     1.015184913277    31.972071174400
         C            2.167373569177     0.327485938377     0.182067913277    12.000000000000
         C            1.083154569177     0.192028938377    -0.884692086723    12.000000000000
         C            2.962798569177    -0.963441061623     0.350521913277    12.000000000000
         C            3.088229569177     1.493385938377    -0.178441086723    12.000000000000
         C           -2.428075430823     0.998243938377     0.099689913277    12.000000000000
         C           -3.509106430823     0.217139938377    -0.630334086723    12.000000000000
         H            1.669819569177     0.563201938377     1.131687913277     1.007825032230
         H            0.621499569177     1.163655938377    -1.092152086723     1.007825032230
         H            1.522552569177    -0.168527061623    -1.824557086723     1.007825032230
         H            3.488328569177    -1.211652061623    -0.579036086723     1.007825032230
         H            3.712097569177    -0.853828061623     1.140483913277     1.007825032230
         H            2.312458569177    -1.802267061623     0.610442913277     1.007825032230
         H            3.588092569177     1.309235938377    -1.136068086723     1.007825032230
         H            3.862606569177     1.625202938377     0.583562913277     1.007825032230
         H            2.531291569177     2.432277938377    -0.260667086723     1.007825032230
         H           -2.864650430823     1.645871938377     0.868467913277     1.007825032230
         H           -1.880260030823     1.629087538377    -0.575613986723     1.007825032230
         H           -3.067782430823    -0.447583061623    -1.376576086723     1.007825032230
         H           -4.089128430823    -0.387541061623     0.070706913277     1.007825032230
         H           -4.189076430823     0.904347938377    -1.143885086723     1.007825032230

  Basis Set: AUG-CC-PVTZ
    Blend: AUG-CC-PVTZ
  Basis Set: (AUG-CC-PVTZ AUX)
    Blend: AUG-CC-PVTZ-JKFIT
	 Reference Energy          =   -1030.5481925621093069 [Eh]
	 Singles Energy            =      -0.0000000000000000 [Eh]
	 Same-Spin Energy          =      -0.3700690277638530 [Eh]
	 Opposite-Spin Energy      =      -1.2687593844794789 [Eh]
	 Correlation Energy        =      -1.6388284122433319 [Eh]
	 Total Energy              =   -1032.1870209743526630 [Eh]

	 ================> DF-SCS-MP2 Energies <==================
	-----------------------------------------------------------
	 SCS Same-Spin Scale       =       0.3333333333333333 [-]
	 SCS Opposite-Spin Scale   =       1.2000000000000000 [-]
	 SCS Same-Spin Energy      =      -0.1233563425879510 [Eh]
	 SCS Opposite-Spin Energy  =      -1.5225112613753746 [Eh]
	 SCS Correlation Energy    =      -1.6458676039633255 [Eh]
	 SCS Total Energy          =   -1032.1940601660726315 [Eh]
	-----------------------------------------------------------

  Dipole Moment: [D]
     X:     0.1183      Y:     1.7760      Z:    -0.8659     Total:     1.9794

*** Psi4 exiting successfully. Buy a developer a beer!
