                               Psi4 1.4a3.dev225

  ==> Input File <==

--------------------------------------------------------------------------
#psi4
#
memory 32 gb

molecule  {
0 1
  S       -0.2843280    -1.0417270    -0.4821980
  S       -1.2930110    -0.0875030     1.0369290
  C        2.1238360     0.2887940     0.2038120
  C        1.0396170     0.1533370    -0.8629480
  C        2.9192610    -1.0021330     0.3722660
  C        3.0446920     1.4546940    -0.1566970
  C       -2.4716130     0.9595520     0.1214340
  C       -3.5526440     0.1784480    -0.6085900
  H        1.6262820     0.5245100     1.1534320
  H        0.5779620     1.1249640    -1.0704080
  H        1.4790150    -0.2072190    -1.8028130
  H        3.4447910    -1.2503440    -0.5572920
  H        3.6685600    -0.8925200     1.1622280
  H        2.2689210    -1.8409590     0.6321870
  H        3.4989396     1.2873488    -1.0269350
  H        3.8190690     1.5865110     0.6053070
  H        2.4877540     2.3935860    -0.2389230
  H       -2.9081880     1.6071800     0.8902120
  H       -1.9135990     1.6021400    -0.5664420
  H       -3.1113200    -0.4862750    -1.3548320
  H       -4.1326660    -0.4262330     0.0924510
  H       -4.2326140     0.8656560    -1.1221410
units angstrom
no_reorient  #important for SAPT in psi4, default
symmetry c1  #important for SAPT in psi4, default
}

set PROPERTIES_ORIGIN ["COM"]
properties('MP2/aug-cc-pvtz', properties = ['dipole'])
--------------------------------------------------------------------------

    Molecular point group: c1
  Charge       = 0
  Multiplicity = 1
  Basis Set: AUG-CC-PVTZ
    Blend: AUG-CC-PVTZ
  Basis Set: (AUG-CC-PVTZ AUX)
    Blend: AUG-CC-PVTZ-JKFIT

    Orbital Energies [Eh]
    ---------------------

    Doubly Occupied:

       1A    -91.967330     2A    -91.966822     3A    -11.261949
       4A    -11.257389     5A    -11.229789     6A    -11.221167
       7A    -11.209945     8A    -11.204035     9A     -8.966169
      10A     -8.965590    11A     -6.647274    12A     -6.646642
      13A     -6.646000    14A     -6.645454    15A     -6.645180
      16A     -6.644654    17A     -1.111167    18A     -1.076992
      19A     -1.012791    20A     -0.938419    21A     -0.934392
      22A     -0.861922    23A     -0.795957    24A     -0.752780
      25A     -0.644988    26A     -0.630025    27A     -0.605806
      28A     -0.591406    29A     -0.585212    30A     -0.561355
      31A     -0.542726    32A     -0.537212    33A     -0.513774
      34A     -0.507792    35A     -0.492587    36A     -0.474865
      37A     -0.473240    38A     -0.452292    39A     -0.428496
      40A     -0.352732    41A     -0.343891

  @DF-RHF Final Energy: -1030.54202280810159

   => Energetics <=

    Nuclear Repulsion Energy =            556.1891424563258397
    One-Electron Energy =               -2522.7659166989137702
    Two-Electron Energy =                 936.0347514344862248
    Total Energy =                      -1030.5420228081015921
  Basis Set: (AUG-CC-PVTZ AUX)
    Blend: AUG-CC-PVTZ-RI
    Molecular point group: c1

    Geometry (in Angstrom), charge = 0, multiplicity = 1:

       Center              X                  Y                   Z               Mass
    ------------   -----------------  -----------------  -----------------  -----------------
         S           -0.240552556386    -1.003226810309    -0.504444589149    31.972071174400
         S           -1.249235556386    -0.049002810309     1.014682410851    31.972071174400
         C            2.167611443614     0.327294189691     0.181565410851    12.000000000000
         C            1.083392443614     0.191837189691    -0.885194589149    12.000000000000
         C            2.963036443614    -0.963632810309     0.350019410851    12.000000000000
         C            3.088467443614     1.493194189691    -0.178943589149    12.000000000000
         C           -2.427837556386     0.998052189691     0.099187410851    12.000000000000
         C           -3.508868556386     0.216948189691    -0.630836589149    12.000000000000
         H            1.670057443614     0.563010189691     1.131185410851     1.007825032230
         H            0.621737443614     1.163464189691    -1.092654589149     1.007825032230
         H            1.522790443614    -0.168718810309    -1.825059589149     1.007825032230
         H            3.488566443614    -1.211843810309    -0.579538589149     1.007825032230
         H            3.712335443614    -0.854019810309     1.139981410851     1.007825032230
         H            2.312696443614    -1.802458810309     0.609940410851     1.007825032230
         H            3.542715043614     1.325848989691    -1.049181589149     1.007825032230
         H            3.862844443614     1.625011189691     0.583060410851     1.007825032230
         H            2.531529443614     2.432086189691    -0.261169589149     1.007825032230
         H           -2.864412556386     1.645680189691     0.867965410851     1.007825032230
         H           -1.869823556386     1.640640189691    -0.588688589149     1.007825032230
         H           -3.067544556386    -0.447774810309    -1.377078589149     1.007825032230
         H           -4.088890556386    -0.387732810309     0.070204410851     1.007825032230
         H           -4.188838556386     0.904156189691    -1.144387589149     1.007825032230

  Basis Set: AUG-CC-PVTZ
    Blend: AUG-CC-PVTZ
  Basis Set: (AUG-CC-PVTZ AUX)
    Blend: AUG-CC-PVTZ-JKFIT
	 Reference Energy          =   -1030.5420228081015921 [Eh]
	 Singles Energy            =      -0.0000000000000000 [Eh]
	 Same-Spin Energy          =      -0.3701304231635144 [Eh]
	 Opposite-Spin Energy      =      -1.2684506601986856 [Eh]
	 Correlation Energy        =      -1.6385810833622001 [Eh]
	 Total Energy              =   -1032.1806038914637611 [Eh]

	 ================> DF-SCS-MP2 Energies <==================
	-----------------------------------------------------------
	 SCS Same-Spin Scale       =       0.3333333333333333 [-]
	 SCS Opposite-Spin Scale   =       1.2000000000000000 [-]
	 SCS Same-Spin Energy      =      -0.1233768077211715 [Eh]
	 SCS Opposite-Spin Energy  =      -1.5221407922384227 [Eh]
	 SCS Correlation Energy    =      -1.6455175999595941 [Eh]
	 SCS Total Energy          =   -1032.1875404080612952 [Eh]
	-----------------------------------------------------------

  Dipole Moment: [D]
     X:     0.1521      Y:     1.7713      Z:    -0.9076     Total:     1.9961

*** Psi4 exiting successfully. Buy a developer a beer!
