                               Psi4 1.4a3.dev225

  ==> Input File <==

--------------------------------------------------------------------------
#psi4
#
memory 32 gb

molecule  {
0 1
  S       -0.2843280    -1.0417270    -0.4821980
  S       -1.2930110    -0.0875030     1.0369290
  C        2.1238360     0.2887940     0.2038120
  C        1.0396170     0.1533370    -0.8629480
  C        2.9192610    -1.0021330     0.3722660
  C        3.0446920     1.4546940    -0.1566970
  C       -2.4716130     0.9595520     0.1214340
  C       -3.5526440     0.1784480    -0.6085900
  H        1.6262820     0.5245100     1.1534320
  H        0.5779620     1.1249640    -1.0704080
  H        1.4790150    -0.2072190    -1.8028130
  H        3.4447910    -1.2503440    -0.5572920
  H        3.7027963    -0.8875117     1.1983222
  H        2.2689210    -1.8409590     0.6321870
  H        3.5445550     1.2705440    -1.1143240
  H        3.8190690     1.5865110     0.6053070
  H        2.4877540     2.3935860    -0.2389230
  H       -2.9081880     1.6071800     0.8902120
  H       -1.9135990     1.6021400    -0.5664420
  H       -3.1113200    -0.4862750    -1.3548320
  H       -4.1326660    -0.4262330     0.0924510
  H       -4.2326140     0.8656560    -1.1221410
units angstrom
no_reorient  #important for SAPT in psi4, default
symmetry c1  #important for SAPT in psi4, default
}

set PROPERTIES_ORIGIN ["COM"]
properties('MP2/aug-cc-pvtz', properties = ['dipole'])
--------------------------------------------------------------------------

    Molecular point group: c1
  Charge       = 0
  Multiplicity = 1
  Basis Set: AUG-CC-PVTZ
    Blend: AUG-CC-PVTZ
  Basis Set: (AUG-CC-PVTZ AUX)
    Blend: AUG-CC-PVTZ-JKFIT

    Orbital Energies [Eh]
    ---------------------

    Doubly Occupied:

       1A    -91.967720     2A    -91.967266     3A    -11.262278
       4A    -11.258029     5A    -11.231440     6A    -11.221430
       7A    -11.216837     8A    -11.216214     9A     -8.966564
      10A     -8.966036    11A     -6.647672    12A     -6.647085
      13A     -6.646394    14A     -6.645901    15A     -6.645573
      16A     -6.645102    17A     -1.110773    18A     -1.076555
      19A     -1.011552    20A     -0.934823    21A     -0.928554
      22A     -0.860896    23A     -0.793100    24A     -0.751880
      25A     -0.642343    26A     -0.629814    27A     -0.603907
      28A     -0.591539    29A     -0.585852    30A     -0.551422
      31A     -0.541335    32A     -0.533215    33A     -0.513386
      34A     -0.506077    35A     -0.491001    36A     -0.475757
      37A     -0.471347    38A     -0.452781    39A     -0.428966
      40A     -0.353158    41A     -0.344347

  @DF-RHF Final Energy: -1030.54602327630914

   => Energetics <=

    Nuclear Repulsion Energy =            555.4903801974767248
    One-Electron Energy =               -2521.4009575088484780
    Two-Electron Energy =                 935.3645540350626106
    Total Energy =                      -1030.5460232763091426
  Basis Set: (AUG-CC-PVTZ AUX)
    Blend: AUG-CC-PVTZ-RI
    Molecular point group: c1

    Geometry (in Angstrom), charge = 0, multiplicity = 1:

       Center              X                  Y                   Z               Mass
    ------------   -----------------  -----------------  -----------------  -----------------
         S           -0.241088874691    -1.003147579950    -0.504100071246    31.972071174400
         S           -1.249771874691    -0.048923579950     1.015026928754    31.972071174400
         C            2.167075125309     0.327373420050     0.181909928754    12.000000000000
         C            1.082856125309     0.191916420050    -0.884850071246    12.000000000000
         C            2.962500125309    -0.963553579950     0.350363928754    12.000000000000
         C            3.087931125309     1.493273420050    -0.178599071246    12.000000000000
         C           -2.428373874691     0.998131420050     0.099531928754    12.000000000000
         C           -3.509404874691     0.217027420050    -0.630492071246    12.000000000000
         H            1.669521125309     0.563089420050     1.131529928754     1.007825032230
         H            0.621201125309     1.163543420050    -1.092310071246     1.007825032230
         H            1.522254125309    -0.168639579950    -1.824715071246     1.007825032230
         H            3.488030125309    -1.211764579950    -0.579194071246     1.007825032230
         H            3.746035425309    -0.848932279950     1.176420128754     1.007825032230
         H            2.312160125309    -1.802379579950     0.610284928754     1.007825032230
         H            3.587794125309     1.309123420050    -1.136226071246     1.007825032230
         H            3.862308125309     1.625090420050     0.583404928754     1.007825032230
         H            2.530993125309     2.432165420050    -0.260825071246     1.007825032230
         H           -2.864948874691     1.645759420050     0.868309928754     1.007825032230
         H           -1.870359874691     1.640719420050    -0.588344071246     1.007825032230
         H           -3.068080874691    -0.447695579950    -1.376734071246     1.007825032230
         H           -4.089426874691    -0.387653579950     0.070548928754     1.007825032230
         H           -4.189374874691     0.904235420050    -1.144043071246     1.007825032230

  Basis Set: AUG-CC-PVTZ
    Blend: AUG-CC-PVTZ
  Basis Set: (AUG-CC-PVTZ AUX)
    Blend: AUG-CC-PVTZ-JKFIT
	 Reference Energy          =   -1030.5460232763091426 [Eh]
	 Singles Energy            =      -0.0000000000000000 [Eh]
	 Same-Spin Energy          =      -0.3700932111859130 [Eh]
	 Opposite-Spin Energy      =      -1.2692271976118934 [Eh]
	 Correlation Energy        =      -1.6393204087978064 [Eh]
	 Total Energy              =   -1032.1853436851070001 [Eh]

	 ================> DF-SCS-MP2 Energies <==================
	-----------------------------------------------------------
	 SCS Same-Spin Scale       =       0.3333333333333333 [-]
	 SCS Opposite-Spin Scale   =       1.2000000000000000 [-]
	 SCS Same-Spin Energy      =      -0.1233644037286377 [Eh]
	 SCS Opposite-Spin Energy  =      -1.5230726371342720 [Eh]
	 SCS Correlation Energy    =      -1.6464370408629097 [Eh]
	 SCS Total Energy          =   -1032.1924603171721628 [Eh]
	-----------------------------------------------------------

  Dipole Moment: [D]
     X:     0.0815      Y:     1.7726      Z:    -0.8844     Total:     1.9826

*** Psi4 exiting successfully. Buy a developer a beer!
