                               Psi4 1.4a3.dev225

  ==> Input File <==

--------------------------------------------------------------------------
#psi4
#
memory 32 gb

molecule  {
0 1
  S       -0.2843280    -1.0417270    -0.4821980
  S       -1.2930110    -0.0875030     1.0369290
  C        2.1238360     0.2887940     0.2038120
  C        1.0396170     0.1533370    -0.8629480
  C        2.9192610    -1.0021330     0.3722660
  C        3.0446920     1.4546940    -0.1566970
  C       -2.4716130     0.9595520     0.1214340
  C       -3.5526440     0.1784480    -0.6085900
  H        1.6262820     0.5245100     1.1534320
  H        0.5779620     1.1249640    -1.0704080
  H        1.4790150    -0.2072190    -1.8028130
  H        3.4447910    -1.2503440    -0.5572920
  H        3.6685600    -0.8925200     1.1622280
  H        2.2689210    -1.8409590     0.6321870
  H        3.5445550     1.2705440    -1.1143240
  H        3.8190690     1.5865110     0.6053070
  H        2.4877540     2.3935860    -0.2389230
  H       -2.9081880     1.6071800     0.8902120
  H       -1.9135990     1.6021400    -0.5664420
  H       -3.1113200    -0.4862750    -1.3548320
  H       -4.1326660    -0.4262330     0.0924510
  H       -4.3568445     0.9912089    -1.2159667
units angstrom
no_reorient  #important for SAPT in psi4, default
symmetry c1  #important for SAPT in psi4, default
}

set PROPERTIES_ORIGIN ["COM"]
properties('MP2/aug-cc-pvtz', properties = ['dipole'])
--------------------------------------------------------------------------

    Molecular point group: c1
  Charge       = 0
  Multiplicity = 1
  Basis Set: AUG-CC-PVTZ
    Blend: AUG-CC-PVTZ
  Basis Set: (AUG-CC-PVTZ AUX)
    Blend: AUG-CC-PVTZ-JKFIT

    Orbital Energies [Eh]
    ---------------------

    Doubly Occupied:

       1A    -91.969761     2A    -91.968398     3A    -11.264283
       4A    -11.258611     5A    -11.244489     6A    -11.231827
       7A    -11.217488     8A    -11.210817     9A     -8.968570
      10A     -8.967190    11A     -6.649640    12A     -6.648441
      13A     -6.648222    14A     -6.647581    15A     -6.647038
      16A     -6.646239    17A     -1.111721    18A     -1.076644
      19A     -1.010158    20A     -0.932400    21A     -0.930594
      22A     -0.856608    23A     -0.793771    24A     -0.752971
      25A     -0.644580    26A     -0.631816    27A     -0.604881
      28A     -0.589627    29A     -0.566050    30A     -0.549295
      31A     -0.543732    32A     -0.535912    33A     -0.515913
      34A     -0.509492    35A     -0.486840    36A     -0.475436
      37A     -0.468793    38A     -0.448603    39A     -0.430199
      40A     -0.354604    41A     -0.345450

  @DF-RHF Final Energy: -1030.52848063164583

   => Energetics <=

    Nuclear Repulsion Energy =            554.8722060199705766
    One-Electron Energy =               -2520.0920012549358944
    Two-Electron Energy =                 934.6913146033193698
    Total Energy =                      -1030.5284806316458344
  Basis Set: (AUG-CC-PVTZ AUX)
    Blend: AUG-CC-PVTZ-RI
    Molecular point group: c1

    Geometry (in Angstrom), charge = 0, multiplicity = 1:

       Center              X                  Y                   Z               Mass
    ------------   -----------------  -----------------  -----------------  -----------------
         S           -0.240024543618    -1.003957209244    -0.503227473412    31.972071174400
         S           -1.248707543618    -0.049733209244     1.015899526588    31.972071174400
         C            2.168139456382     0.326563790756     0.182782526588    12.000000000000
         C            1.083920456382     0.191106790756    -0.883977473412    12.000000000000
         C            2.963564456382    -0.964363209244     0.351236526588    12.000000000000
         C            3.088995456382     1.492463790756    -0.177726473412    12.000000000000
         C           -2.427309543618     0.997321790756     0.100404526588    12.000000000000
         C           -3.508340543618     0.216217790756    -0.629619473412    12.000000000000
         H            1.670585456382     0.562279790756     1.132402526588     1.007825032230
         H            0.622265456382     1.162733790756    -1.091437473412     1.007825032230
         H            1.523318456382    -0.169449209244    -1.823842473412     1.007825032230
         H            3.489094456382    -1.212574209244    -0.578321473412     1.007825032230
         H            3.712863456382    -0.854750209244     1.141198526588     1.007825032230
         H            2.313224456382    -1.803189209244     0.611157526588     1.007825032230
         H            3.588858456382     1.308313790756    -1.135353473412     1.007825032230
         H            3.863372456382     1.624280790756     0.584277526588     1.007825032230
         H            2.532057456382     2.431355790756    -0.259952473412     1.007825032230
         H           -2.863884543618     1.644949790756     0.869182526588     1.007825032230
         H           -1.869295543618     1.639909790756    -0.587471473412     1.007825032230
         H           -3.067016543618    -0.448505209244    -1.375861473412     1.007825032230
         H           -4.088362543618    -0.388463209244     0.071421526588     1.007825032230
         H           -4.312541043618     1.028978690756    -1.236996173412     1.007825032230

  Basis Set: AUG-CC-PVTZ
    Blend: AUG-CC-PVTZ
  Basis Set: (AUG-CC-PVTZ AUX)
    Blend: AUG-CC-PVTZ-JKFIT
	 Reference Energy          =   -1030.5284806316458344 [Eh]
	 Singles Energy            =      -0.0000000000000000 [Eh]
	 Same-Spin Energy          =      -0.3700331409198884 [Eh]
	 Opposite-Spin Energy      =      -1.2703325545459816 [Eh]
	 Correlation Energy        =      -1.6403656954658699 [Eh]
	 Total Energy              =   -1032.1688463271116234 [Eh]

	 ================> DF-SCS-MP2 Energies <==================
	-----------------------------------------------------------
	 SCS Same-Spin Scale       =       0.3333333333333333 [-]
	 SCS Opposite-Spin Scale   =       1.2000000000000000 [-]
	 SCS Same-Spin Energy      =      -0.1233443803066294 [Eh]
	 SCS Opposite-Spin Energy  =      -1.5243990654551778 [Eh]
	 SCS Correlation Energy    =      -1.6477434457618072 [Eh]
	 SCS Total Energy          =   -1032.1762240774075963 [Eh]
	-----------------------------------------------------------

  Dipole Moment: [D]
     X:     0.2941      Y:     1.6889      Z:    -0.7727     Total:     1.8804

*** Psi4 exiting successfully. Buy a developer a beer!
