                               Psi4 1.4a3.dev225

  ==> Input File <==

--------------------------------------------------------------------------
#psi4
#
memory 32 gb

molecule  {
0 1
  S       -0.2843280    -1.0417270    -0.4821980
  S       -1.2930110    -0.0875030     1.0369290
  C        2.1238360     0.2887940     0.2038120
  C        1.0396170     0.1533370    -0.8629480
  C        2.9192610    -1.0021330     0.3722660
  C        3.0446920     1.4546940    -0.1566970
  C       -2.4716130     0.9595520     0.1214340
  C       -3.5526440     0.1784480    -0.6085900
  H        1.6262820     0.5245100     1.1534320
  H        0.5779620     1.1249640    -1.0704080
  H        1.4790150    -0.2072190    -1.8028130
  H        3.4447910    -1.2503440    -0.5572920
  H        3.6685600    -0.8925200     1.1622280
  H        2.2689210    -1.8409590     0.6321870
  H        3.5445550     1.2705440    -1.1143240
  H        3.8190690     1.5865110     0.6053070
  H        2.4877540     2.3935860    -0.2389230
  H       -2.9081880     1.6071800     0.8902120
  H       -1.9034004     1.6138844    -0.5790141
  H       -3.1113200    -0.4862750    -1.3548320
  H       -4.1326660    -0.4262330     0.0924510
  H       -4.2326140     0.8656560    -1.1221410
units angstrom
no_reorient  #important for SAPT in psi4, default
symmetry c1  #important for SAPT in psi4, default
}

set PROPERTIES_ORIGIN ["COM"]
properties('MP2/aug-cc-pvtz', properties = ['dipole'])
--------------------------------------------------------------------------

    Molecular point group: c1
  Charge       = 0
  Multiplicity = 1
  Basis Set: AUG-CC-PVTZ
    Blend: AUG-CC-PVTZ
  Basis Set: (AUG-CC-PVTZ AUX)
    Blend: AUG-CC-PVTZ-JKFIT

    Orbital Energies [Eh]
    ---------------------

    Doubly Occupied:

       1A    -91.967679     2A    -91.967006     3A    -11.264422
       4A    -11.257554     5A    -11.230936     6A    -11.221471
       7A    -11.216825     8A    -11.210081     9A     -8.966506
      10A     -8.965779    11A     -6.647605    12A     -6.646841
      13A     -6.646339    14A     -6.645639    15A     -6.645521
      16A     -6.644839    17A     -1.110594    18A     -1.076022
      19A     -1.011494    20A     -0.935145    21A     -0.931116
      22A     -0.860256    23A     -0.792824    24A     -0.751310
      25A     -0.643285    26A     -0.628390    27A     -0.604905
      28A     -0.591717    29A     -0.585500    30A     -0.551449
      31A     -0.541153    32A     -0.534943    33A     -0.512749
      34A     -0.507874    35A     -0.492555    36A     -0.475445
      37A     -0.471668    38A     -0.452676    39A     -0.428510
      40A     -0.352876    41A     -0.344123

  @DF-RHF Final Energy: -1030.54750974719946

   => Energetics <=

    Nuclear Repulsion Energy =            555.6351502585456501
    One-Electron Energy =               -2521.6980715320542004
    Two-Electron Energy =                 935.5154115263088670
    Total Energy =                      -1030.5475097471994559
  Basis Set: (AUG-CC-PVTZ AUX)
    Blend: AUG-CC-PVTZ-RI
    Molecular point group: c1

    Geometry (in Angstrom), charge = 0, multiplicity = 1:

       Center              X                  Y                   Z               Mass
    ------------   -----------------  -----------------  -----------------  -----------------
         S           -0.240927427176    -1.003192822490    -0.503773207479    31.972071174400
         S           -1.249610427176    -0.048968822490     1.015353792521    31.972071174400
         C            2.167236572824     0.327328177510     0.182236792521    12.000000000000
         C            1.083017572824     0.191871177510    -0.884523207479    12.000000000000
         C            2.962661572824    -0.963598822490     0.350690792521    12.000000000000
         C            3.088092572824     1.493228177510    -0.178272207479    12.000000000000
         C           -2.428212427176     0.998086177510     0.099858792521    12.000000000000
         C           -3.509243427176     0.216982177510    -0.630165207479    12.000000000000
         H            1.669682572824     0.563044177510     1.131856792521     1.007825032230
         H            0.621362572824     1.163498177510    -1.091983207479     1.007825032230
         H            1.522415572824    -0.168684822490    -1.824388207479     1.007825032230
         H            3.488191572824    -1.211809822490    -0.578867207479     1.007825032230
         H            3.711960572824    -0.853985822490     1.140652792521     1.007825032230
         H            2.312321572824    -1.802424822490     0.610611792521     1.007825032230
         H            3.587955572824     1.309078177510    -1.135899207479     1.007825032230
         H            3.862469572824     1.625045177510     0.583731792521     1.007825032230
         H            2.531154572824     2.432120177510    -0.260498207479     1.007825032230
         H           -2.864787427176     1.645714177510     0.868636792521     1.007825032230
         H           -1.859999827176     1.652418577510    -0.600589307479     1.007825032230
         H           -3.067919427176    -0.447740822490    -1.376407207479     1.007825032230
         H           -4.089265427176    -0.387698822490     0.070875792521     1.007825032230
         H           -4.189213427176     0.904190177510    -1.143716207479     1.007825032230

  Basis Set: AUG-CC-PVTZ
    Blend: AUG-CC-PVTZ
  Basis Set: (AUG-CC-PVTZ AUX)
    Blend: AUG-CC-PVTZ-JKFIT
	 Reference Energy          =   -1030.5475097471994559 [Eh]
	 Singles Energy            =      -0.0000000000000000 [Eh]
	 Same-Spin Energy          =      -0.3701377698634080 [Eh]
	 Opposite-Spin Energy      =      -1.2690442424807804 [Eh]
	 Correlation Energy        =      -1.6391820123441883 [Eh]
	 Total Energy              =   -1032.1866917595436917 [Eh]

	 ================> DF-SCS-MP2 Energies <==================
	-----------------------------------------------------------
	 SCS Same-Spin Scale       =       0.3333333333333333 [-]
	 SCS Opposite-Spin Scale   =       1.2000000000000000 [-]
	 SCS Same-Spin Energy      =      -0.1233792566211360 [Eh]
	 SCS Opposite-Spin Energy  =      -1.5228530909769364 [Eh]
	 SCS Correlation Energy    =      -1.6462323475980725 [Eh]
	 SCS Total Energy          =   -1032.1937420947974715 [Eh]
	-----------------------------------------------------------

  Dipole Moment: [D]
     X:     0.1153      Y:     1.7581      Z:    -0.8575     Total:     1.9594

*** Psi4 exiting successfully. Buy a developer a beer!
