                               Psi4 1.4a3.dev225

  ==> Input File <==

--------------------------------------------------------------------------
#psi4
#
memory 32 gb

molecule  {
0 1
  S       -0.2843280    -1.0417270    -0.4821980
  S       -1.2930110    -0.0875030     1.0369290
  C        2.1238360     0.2887940     0.2038120
  C        1.0324007     0.1786025    -0.8584889
  C        2.9192610    -1.0021330     0.3722660
  C        3.0446920     1.4546940    -0.1566970
  C       -2.4716130     0.9595520     0.1214340
  C       -3.5526440     0.1784480    -0.6085900
  H        1.6262820     0.5245100     1.1534320
  H        0.5779620     1.1249640    -1.0704080
  H        1.4790150    -0.2072190    -1.8028130
  H        3.4447910    -1.2503440    -0.5572920
  H        3.6685600    -0.8925200     1.1622280
  H        2.2689210    -1.8409590     0.6321870
  H        3.5445550     1.2705440    -1.1143240
  H        3.8190690     1.5865110     0.6053070
  H        2.4877540     2.3935860    -0.2389230
  H       -2.9081880     1.6071800     0.8902120
  H       -1.9135990     1.6021400    -0.5664420
  H       -3.1113200    -0.4862750    -1.3548320
  H       -4.1326660    -0.4262330     0.0924510
  H       -4.2326140     0.8656560    -1.1221410
units angstrom
no_reorient  #important for SAPT in psi4, default
symmetry c1  #important for SAPT in psi4, default
}

set PROPERTIES_ORIGIN ["COM"]
properties('MP2/aug-cc-pvtz', properties = ['dipole'])
--------------------------------------------------------------------------

    Molecular point group: c1
  Charge       = 0
  Multiplicity = 1
  Basis Set: AUG-CC-PVTZ
    Blend: AUG-CC-PVTZ
  Basis Set: (AUG-CC-PVTZ AUX)
    Blend: AUG-CC-PVTZ-JKFIT

    Orbital Energies [Eh]
    ---------------------

    Doubly Occupied:

       1A    -91.966990     2A    -91.966973     3A    -11.261964
       4A    -11.257646     5A    -11.231145     6A    -11.221153
       7A    -11.216760     8A    -11.210608     9A     -8.965862
      10A     -8.965604    11A     -6.646999    12A     -6.646614
      13A     -6.645681    14A     -6.645452    15A     -6.644853
      16A     -6.644678    17A     -1.110251    18A     -1.076413
      19A     -1.010963    20A     -0.935215    21A     -0.931122
      22A     -0.861230    23A     -0.793084    24A     -0.752366
      25A     -0.646328    26A     -0.629521    27A     -0.604726
      28A     -0.591946    29A     -0.585530    30A     -0.549928
      31A     -0.541055    32A     -0.534926    33A     -0.513007
      34A     -0.509531    35A     -0.492710    36A     -0.476732
      37A     -0.470269    38A     -0.451506    39A     -0.429234
      40A     -0.353167    41A     -0.343485

  @DF-RHF Final Energy: -1030.54743613268033

   => Energetics <=

    Nuclear Repulsion Energy =            555.6387308143587234
    One-Electron Energy =               -2521.7058773290418685
    Two-Electron Energy =                 935.5197103820029270
    Total Energy =                      -1030.5474361326801045
  Basis Set: (AUG-CC-PVTZ AUX)
    Blend: AUG-CC-PVTZ-RI
    Molecular point group: c1

    Geometry (in Angstrom), charge = 0, multiplicity = 1:

       Center              X                  Y                   Z               Mass
    ------------   -----------------  -----------------  -----------------  -----------------
         S           -0.240281831573    -1.005134458809    -0.504214247455    31.972071174400
         S           -1.248964831573    -0.050910458809     1.014912752545    31.972071174400
         C            2.167882168427     0.325386541191     0.181795752545    12.000000000000
         C            1.076446868427     0.215195041191    -0.880505147455    12.000000000000
         C            2.963307168427    -0.965540458809     0.350249752545    12.000000000000
         C            3.088738168427     1.491286541191    -0.178713247455    12.000000000000
         C           -2.427566831573     0.996144541191     0.099417752545    12.000000000000
         C           -3.508597831573     0.215040541191    -0.630606247455    12.000000000000
         H            1.670328168427     0.561102541191     1.131415752545     1.007825032230
         H            0.622008168427     1.161556541191    -1.092424247455     1.007825032230
         H            1.523061168427    -0.170626458809    -1.824829247455     1.007825032230
         H            3.488837168427    -1.213751458809    -0.579308247455     1.007825032230
         H            3.712606168427    -0.855927458809     1.140211752545     1.007825032230
         H            2.312967168427    -1.804366458809     0.610170752545     1.007825032230
         H            3.588601168427     1.307136541191    -1.136340247455     1.007825032230
         H            3.863115168427     1.623103541191     0.583290752545     1.007825032230
         H            2.531800168427     2.430178541191    -0.260939247455     1.007825032230
         H           -2.864141831573     1.643772541191     0.868195752545     1.007825032230
         H           -1.869552831573     1.638732541191    -0.588458247455     1.007825032230
         H           -3.067273831573    -0.449682458809    -1.376848247455     1.007825032230
         H           -4.088619831573    -0.389640458809     0.070434752545     1.007825032230
         H           -4.188567831573     0.902248541191    -1.144157247455     1.007825032230

  Basis Set: AUG-CC-PVTZ
    Blend: AUG-CC-PVTZ
  Basis Set: (AUG-CC-PVTZ AUX)
    Blend: AUG-CC-PVTZ-JKFIT
	 Reference Energy          =   -1030.5474361326803319 [Eh]
	 Singles Energy            =      -0.0000000000000000 [Eh]
	 Same-Spin Energy          =      -0.3700797662330424 [Eh]
	 Opposite-Spin Energy      =      -1.2689270760304456 [Eh]
	 Correlation Energy        =      -1.6390068422634880 [Eh]
	 Total Energy              =   -1032.1864429749439296 [Eh]

	 ================> DF-SCS-MP2 Energies <==================
	-----------------------------------------------------------
	 SCS Same-Spin Scale       =       0.3333333333333333 [-]
	 SCS Opposite-Spin Scale   =       1.2000000000000000 [-]
	 SCS Same-Spin Energy      =      -0.1233599220776808 [Eh]
	 SCS Opposite-Spin Energy  =      -1.5227124912365346 [Eh]
	 SCS Correlation Energy    =      -1.6460724133142155 [Eh]
	 SCS Total Energy          =   -1032.1935085459945185 [Eh]
	-----------------------------------------------------------

  Dipole Moment: [D]
     X:     0.1323      Y:     1.7658      Z:    -0.8620     Total:     1.9694

*** Psi4 exiting successfully. Buy a developer a beer!
