                               Psi4 1.4a3.dev225

  ==> Input File <==

--------------------------------------------------------------------------
#psi4
#
memory 32 gb

molecule  {
0 1
  S       -0.2843280    -1.0417270    -0.4821980
  S       -1.2930110    -0.0875030     1.0369290
  C        2.1238360     0.2887940     0.2038120
  C        1.0396170     0.1533370    -0.8629480
  C        2.9192610    -1.0021330     0.3722660
  C        3.0446920     1.4546940    -0.1566970
  C       -2.4716130     0.9595520     0.1214340
  C       -3.5526440     0.1784480    -0.6085900
  H        1.6262820     0.5245100     1.1534320
  H        0.5779620     1.1249640    -1.0704080
  H        1.4790150    -0.2072190    -1.8028130
  H        3.4447910    -1.2503440    -0.5572920
  H        3.6761070    -0.8777323     1.1527867
  H        2.2689210    -1.8409590     0.6321870
  H        3.5445550     1.2705440    -1.1143240
  H        3.8190690     1.5865110     0.6053070
  H        2.4877540     2.3935860    -0.2389230
  H       -2.9081880     1.6071800     0.8902120
  H       -1.9135990     1.6021400    -0.5664420
  H       -3.1113200    -0.4862750    -1.3548320
  H       -4.1326660    -0.4262330     0.0924510
  H       -4.2326140     0.8656560    -1.1221410
units angstrom
no_reorient  #important for SAPT in psi4, default
symmetry c1  #important for SAPT in psi4, default
}

set PROPERTIES_ORIGIN ["COM"]
properties('MP2/aug-cc-pvtz', properties = ['dipole'])
--------------------------------------------------------------------------

    Molecular point group: c1
  Charge       = 0
  Multiplicity = 1
  Basis Set: AUG-CC-PVTZ
    Blend: AUG-CC-PVTZ
  Basis Set: (AUG-CC-PVTZ AUX)
    Blend: AUG-CC-PVTZ-JKFIT

    Orbital Energies [Eh]
    ---------------------

    Doubly Occupied:

       1A    -91.967508     2A    -91.966991     3A    -11.262105
       4A    -11.257483     5A    -11.230828     6A    -11.221286
       7A    -11.216876     8A    -11.210113     9A     -8.966349
      10A     -8.965761    11A     -6.647455    12A     -6.646814
      13A     -6.646182    14A     -6.645624    15A     -6.645362
      16A     -6.644825    17A     -1.110685    18A     -1.076569
      19A     -1.011750    20A     -0.935099    21A     -0.931057
      22A     -0.860953    23A     -0.793541    24A     -0.751875
      25A     -0.643200    26A     -0.629694    27A     -0.605619
      28A     -0.591870    29A     -0.585712    30A     -0.551402
      31A     -0.541109    32A     -0.534409    33A     -0.513861
      34A     -0.508629    35A     -0.492654    36A     -0.475137
      37A     -0.471626    38A     -0.452715    39A     -0.428723
      40A     -0.352901    41A     -0.344094

  @DF-RHF Final Energy: -1030.54804825249380

   => Energetics <=

    Nuclear Repulsion Energy =            555.7332825869722228
    One-Electron Energy =               -2521.8897737911038348
    Two-Electron Energy =                 935.6084429516379259
    Total Energy =                      -1030.5480482524937997
  Basis Set: (AUG-CC-PVTZ AUX)
    Blend: AUG-CC-PVTZ-RI
    Molecular point group: c1

    Geometry (in Angstrom), charge = 0, multiplicity = 1:

       Center              X                  Y                   Z               Mass
    ------------   -----------------  -----------------  -----------------  -----------------
         S           -0.240909617892    -1.003213262600    -0.503794235276    31.972071174400
         S           -1.249592617892    -0.048989262600     1.015332764724    31.972071174400
         C            2.167254382108     0.327307737400     0.182215764724    12.000000000000
         C            1.083035382108     0.191850737400    -0.884544235276    12.000000000000
         C            2.962679382108    -0.963619262600     0.350669764724    12.000000000000
         C            3.088110382108     1.493207737400    -0.178293235276    12.000000000000
         C           -2.428194617892     0.998065737400     0.099837764724    12.000000000000
         C           -3.509225617892     0.216961737400    -0.630186235276    12.000000000000
         H            1.669700382108     0.563023737400     1.131835764724     1.007825032230
         H            0.621380382108     1.163477737400    -1.092004235276     1.007825032230
         H            1.522433382108    -0.168705262600    -1.824409235276     1.007825032230
         H            3.488209382108    -1.211830262600    -0.578888235276     1.007825032230
         H            3.719525382108    -0.839218562600     1.131190464724     1.007825032230
         H            2.312339382108    -1.802445262600     0.610590764724     1.007825032230
         H            3.587973382108     1.309057737400    -1.135920235276     1.007825032230
         H            3.862487382108     1.625024737400     0.583710764724     1.007825032230
         H            2.531172382108     2.432099737400    -0.260519235276     1.007825032230
         H           -2.864769617892     1.645693737400     0.868615764724     1.007825032230
         H           -1.870180617892     1.640653737400    -0.588038235276     1.007825032230
         H           -3.067901617892    -0.447761262600    -1.376428235276     1.007825032230
         H           -4.089247617892    -0.387719262600     0.070854764724     1.007825032230
         H           -4.189195617892     0.904169737400    -1.143737235276     1.007825032230

  Basis Set: AUG-CC-PVTZ
    Blend: AUG-CC-PVTZ
  Basis Set: (AUG-CC-PVTZ AUX)
    Blend: AUG-CC-PVTZ-JKFIT
	 Reference Energy          =   -1030.5480482524937997 [Eh]
	 Singles Energy            =      -0.0000000000000000 [Eh]
	 Same-Spin Energy          =      -0.3701098990242939 [Eh]
	 Opposite-Spin Energy      =      -1.2689121924023397 [Eh]
	 Correlation Energy        =      -1.6390220914266336 [Eh]
	 Total Energy              =   -1032.1870703439203680 [Eh]

	 ================> DF-SCS-MP2 Energies <==================
	-----------------------------------------------------------
	 SCS Same-Spin Scale       =       0.3333333333333333 [-]
	 SCS Opposite-Spin Scale   =       1.2000000000000000 [-]
	 SCS Same-Spin Energy      =      -0.1233699663414313 [Eh]
	 SCS Opposite-Spin Energy  =      -1.5226946308828075 [Eh]
	 SCS Correlation Energy    =      -1.6460645972242389 [Eh]
	 SCS Total Energy          =   -1032.1941128497180671 [Eh]
	-----------------------------------------------------------

  Dipole Moment: [D]
     X:     0.1179      Y:     1.7723      Z:    -0.8665     Total:     1.9763

*** Psi4 exiting successfully. Buy a developer a beer!
