                               Psi4 1.4a3.dev225

  ==> Input File <==

--------------------------------------------------------------------------
#psi4
#
memory 32 gb

molecule  {
0 1
  S       -0.2843280    -1.0417270    -0.4821980
  S       -1.2930110    -0.0875030     1.0369290
  C        2.1238360     0.2887940     0.2038120
  C        1.0396170     0.1533370    -0.8629480
  C        2.9192610    -1.0021330     0.3722660
  C        3.0446920     1.4546940    -0.1566970
  C       -2.4716130     0.9595520     0.1214340
  C       -3.5526440     0.1784480    -0.6085900
  H        1.6262820     0.5245100     1.1534320
  H        0.5779620     1.1249640    -1.0704080
  H        1.4790150    -0.2072190    -1.8028130
  H        3.4447910    -1.2503440    -0.5572920
  H        3.6685600    -0.8925200     1.1622280
  H        2.2689210    -1.8409590     0.6321870
  H        3.5217473     1.2789464    -1.0706295
  H        3.8190690     1.5865110     0.6053070
  H        2.4877540     2.3935860    -0.2389230
  H       -2.9081880     1.6071800     0.8902120
  H       -1.9135990     1.6021400    -0.5664420
  H       -3.1113200    -0.4862750    -1.3548320
  H       -4.1326660    -0.4262330     0.0924510
  H       -4.2326140     0.8656560    -1.1221410
units angstrom
no_reorient  #important for SAPT in psi4, default
symmetry c1  #important for SAPT in psi4, default
}

set PROPERTIES_ORIGIN ["COM"]
properties('MP2/aug-cc-pvtz', properties = ['dipole'])
--------------------------------------------------------------------------

    Molecular point group: c1
  Charge       = 0
  Multiplicity = 1
  Basis Set: AUG-CC-PVTZ
    Blend: AUG-CC-PVTZ
  Basis Set: (AUG-CC-PVTZ AUX)
    Blend: AUG-CC-PVTZ-JKFIT

    Orbital Energies [Eh]
    ---------------------

    Doubly Occupied:

       1A    -91.967407     2A    -91.966888     3A    -11.262017
       4A    -11.257463     5A    -11.230324     6A    -11.221219
       7A    -11.210477     8A    -11.210002     9A     -8.966247
      10A     -8.965657    11A     -6.647352    12A     -6.646710
      13A     -6.646079    14A     -6.645520    15A     -6.645259
      16A     -6.644721    17A     -1.110852    18A     -1.076717
      19A     -1.012154    20A     -0.935594    21A     -0.933578
      22A     -0.861395    23A     -0.794680    24A     -0.752323
      25A     -0.644174    26A     -0.629888    27A     -0.605275
      28A     -0.591512    29A     -0.585423    30A     -0.555776
      31A     -0.542053    32A     -0.536643    33A     -0.513727
      34A     -0.507923    35A     -0.492633    36A     -0.475099
      37A     -0.472606    38A     -0.452466    39A     -0.428587
      40A     -0.352803    41A     -0.343984

  @DF-RHF Final Energy: -1030.54706882305641

   => Energetics <=

    Nuclear Repulsion Energy =            555.9486703983326379
    One-Electron Energy =               -2522.3090655061796497
    Two-Electron Energy =                 935.8133262847907190
    Total Energy =                      -1030.5470688230564065
  Basis Set: (AUG-CC-PVTZ AUX)
    Blend: AUG-CC-PVTZ-RI
    Molecular point group: c1

    Geometry (in Angstrom), charge = 0, multiplicity = 1:

       Center              X                  Y                   Z               Mass
    ------------   -----------------  -----------------  -----------------  -----------------
         S           -0.240705742693    -1.003170376183    -0.504151118125    31.972071174400
         S           -1.249388742693    -0.048946376183     1.014975881875    31.972071174400
         C            2.167458257307     0.327350623817     0.181858881875    12.000000000000
         C            1.083239257307     0.191893623817    -0.884901118125    12.000000000000
         C            2.962883257307    -0.963576376183     0.350312881875    12.000000000000
         C            3.088314257307     1.493250623817    -0.178650118125    12.000000000000
         C           -2.427990742693     0.998108623817     0.099480881875    12.000000000000
         C           -3.509021742693     0.217004623817    -0.630543118125    12.000000000000
         H            1.669904257307     0.563066623817     1.131478881875     1.007825032230
         H            0.621584257307     1.163520623817    -1.092361118125     1.007825032230
         H            1.522637257307    -0.168662376183    -1.824766118125     1.007825032230
         H            3.488413257307    -1.211787376183    -0.579245118125     1.007825032230
         H            3.712182257307    -0.853963376183     1.140274881875     1.007825032230
         H            2.312543257307    -1.802402376183     0.610233881875     1.007825032230
         H            3.565369557307     1.317503023817    -1.092582618125     1.007825032230
         H            3.862691257307     1.625067623817     0.583353881875     1.007825032230
         H            2.531376257307     2.432142623817    -0.260876118125     1.007825032230
         H           -2.864565742693     1.645736623817     0.868258881875     1.007825032230
         H           -1.869976742693     1.640696623817    -0.588395118125     1.007825032230
         H           -3.067697742693    -0.447718376183    -1.376785118125     1.007825032230
         H           -4.089043742693    -0.387676376183     0.070497881875     1.007825032230
         H           -4.188991742693     0.904212623817    -1.144094118125     1.007825032230

  Basis Set: AUG-CC-PVTZ
    Blend: AUG-CC-PVTZ
  Basis Set: (AUG-CC-PVTZ AUX)
    Blend: AUG-CC-PVTZ-JKFIT
	 Reference Energy          =   -1030.5470688230564065 [Eh]
	 Singles Energy            =      -0.0000000000000000 [Eh]
	 Same-Spin Energy          =      -0.3701120461084713 [Eh]
	 Opposite-Spin Energy      =      -1.2686372537180242 [Eh]
	 Correlation Energy        =      -1.6387492998264954 [Eh]
	 Total Energy              =   -1032.1858181228828926 [Eh]

	 ================> DF-SCS-MP2 Energies <==================
	-----------------------------------------------------------
	 SCS Same-Spin Scale       =       0.3333333333333333 [-]
	 SCS Opposite-Spin Scale   =       1.2000000000000000 [-]
	 SCS Same-Spin Energy      =      -0.1233706820361571 [Eh]
	 SCS Opposite-Spin Energy  =      -1.5223647044616289 [Eh]
	 SCS Correlation Energy    =      -1.6457353864977859 [Eh]
	 SCS Total Energy          =   -1032.1928042095541969 [Eh]
	-----------------------------------------------------------

  Dipole Moment: [D]
     X:     0.1357      Y:     1.7694      Z:    -0.8863     Total:     1.9836

*** Psi4 exiting successfully. Buy a developer a beer!
