                               Psi4 1.4a3.dev225

  ==> Input File <==

--------------------------------------------------------------------------
#psi4
#
memory 32 gb

molecule  {
0 1
  S       -0.2843280    -1.0417270    -0.4821980
  S       -1.2930110    -0.0875030     1.0369290
  C        2.0359419     0.2332447     0.2268032
  C        1.0396170     0.1533370    -0.8629480
  C        2.9192610    -1.0021330     0.3722660
  C        3.0446920     1.4546940    -0.1566970
  C       -2.4716130     0.9595520     0.1214340
  C       -3.5526440     0.1784480    -0.6085900
  H        1.6262820     0.5245100     1.1534320
  H        0.5779620     1.1249640    -1.0704080
  H        1.4790150    -0.2072190    -1.8028130
  H        3.4447910    -1.2503440    -0.5572920
  H        3.6685600    -0.8925200     1.1622280
  H        2.2689210    -1.8409590     0.6321870
  H        3.5445550     1.2705440    -1.1143240
  H        3.8190690     1.5865110     0.6053070
  H        2.4877540     2.3935860    -0.2389230
  H       -2.9081880     1.6071800     0.8902120
  H       -1.9135990     1.6021400    -0.5664420
  H       -3.1113200    -0.4862750    -1.3548320
  H       -4.1326660    -0.4262330     0.0924510
  H       -4.2326140     0.8656560    -1.1221410
units angstrom
no_reorient  #important for SAPT in psi4, default
symmetry c1  #important for SAPT in psi4, default
}

set PROPERTIES_ORIGIN ["COM"]
properties('MP2/aug-cc-pvtz', properties = ['dipole'])
--------------------------------------------------------------------------

    Molecular point group: c1
  Charge       = 0
  Multiplicity = 1
  Basis Set: AUG-CC-PVTZ
    Blend: AUG-CC-PVTZ
  Basis Set: (AUG-CC-PVTZ AUX)
    Blend: AUG-CC-PVTZ-JKFIT

    Orbital Energies [Eh]
    ---------------------

    Doubly Occupied:

       1A    -91.967676     2A    -91.965183     3A    -11.262269
       4A    -11.258030     5A    -11.230812     6A    -11.221249
       7A    -11.218365     8A    -11.210863     9A     -8.966503
      10A     -8.964295    11A     -6.647584    12A     -6.646363
      13A     -6.645532    14A     -6.645336    15A     -6.644160
      16A     -6.643338    17A     -1.113770    18A     -1.075045
      19A     -1.007855    20A     -0.937091    21A     -0.923353
      22A     -0.862621    23A     -0.799366    24A     -0.756326
      25A     -0.646626    26A     -0.629194    27A     -0.603014
      28A     -0.589281    29A     -0.584221    30A     -0.550272
      31A     -0.540024    32A     -0.534899    33A     -0.516959
      34A     -0.509653    35A     -0.500318    36A     -0.486168
      37A     -0.471695    38A     -0.436636    39A     -0.422420
      40A     -0.353695    41A     -0.343233

  @DF-RHF Final Energy: -1030.53827296511690

   => Energetics <=

    Nuclear Repulsion Energy =            556.5132080246085025
    One-Electron Energy =               -2523.4403789504635824
    Two-Electron Energy =                 936.3888979607380634
    Total Energy =                      -1030.5382729651169029
  Basis Set: (AUG-CC-PVTZ AUX)
    Blend: AUG-CC-PVTZ-RI
    Molecular point group: c1

    Geometry (in Angstrom), charge = 0, multiplicity = 1:

       Center              X                  Y                   Z               Mass
    ------------   -----------------  -----------------  -----------------  -----------------
         S           -0.233829917049    -0.998671588206    -0.505696284957    31.972071174400
         S           -1.242512917049    -0.044447588206     1.013430715043    31.972071174400
         C            2.086439982951     0.276300111794     0.203304915043    12.000000000000
         C            1.090115082951     0.196392411794    -0.886446284957    12.000000000000
         C            2.969759082951    -0.959077588206     0.348767715043    12.000000000000
         C            3.095190082951     1.497749411794    -0.180195284957    12.000000000000
         C           -2.421114917049     1.002607411794     0.097935715043    12.000000000000
         C           -3.502145917049     0.221503411794    -0.632088284957    12.000000000000
         H            1.676780082951     0.567565411794     1.129933715043     1.007825032230
         H            0.628460082951     1.168019411794    -1.093906284957     1.007825032230
         H            1.529513082951    -0.164163588206    -1.826311284957     1.007825032230
         H            3.495289082951    -1.207288588206    -0.580790284957     1.007825032230
         H            3.719058082951    -0.849464588206     1.138729715043     1.007825032230
         H            2.319419082951    -1.797903588206     0.608688715043     1.007825032230
         H            3.595053082951     1.313599411794    -1.137822284957     1.007825032230
         H            3.869567082951     1.629566411794     0.581808715043     1.007825032230
         H            2.538252082951     2.436641411794    -0.262421284957     1.007825032230
         H           -2.857689917049     1.650235411794     0.866713715043     1.007825032230
         H           -1.863100917049     1.645195411794    -0.589940284957     1.007825032230
         H           -3.060821917049    -0.443219588206    -1.378330284957     1.007825032230
         H           -4.082167917049    -0.383177588206     0.068952715043     1.007825032230
         H           -4.182115917049     0.908711411794    -1.145639284957     1.007825032230

  Basis Set: AUG-CC-PVTZ
    Blend: AUG-CC-PVTZ
  Basis Set: (AUG-CC-PVTZ AUX)
    Blend: AUG-CC-PVTZ-JKFIT
	 Reference Energy          =   -1030.5382729651169029 [Eh]
	 Singles Energy            =      -0.0000000000000000 [Eh]
	 Same-Spin Energy          =      -0.3703474021459274 [Eh]
	 Opposite-Spin Energy      =      -1.2695333864026481 [Eh]
	 Correlation Energy        =      -1.6398807885485756 [Eh]
	 Total Energy              =   -1032.1781537536655833 [Eh]

	 ================> DF-SCS-MP2 Energies <==================
	-----------------------------------------------------------
	 SCS Same-Spin Scale       =       0.3333333333333333 [-]
	 SCS Opposite-Spin Scale   =       1.2000000000000000 [-]
	 SCS Same-Spin Energy      =      -0.1234491340486425 [Eh]
	 SCS Opposite-Spin Energy  =      -1.5234400636831777 [Eh]
	 SCS Correlation Energy    =      -1.6468891977318203 [Eh]
	 SCS Total Energy          =   -1032.1851621628486555 [Eh]
	-----------------------------------------------------------

  Dipole Moment: [D]
     X:     0.1204      Y:     1.7405      Z:    -0.8672     Total:     1.9483

*** Psi4 exiting successfully. Buy a developer a beer!
