                               Psi4 1.4a3.dev225

  ==> Input File <==

--------------------------------------------------------------------------
#psi4
#
memory 32 gb

molecule  {
0 1
  S       -0.2843280    -1.0417270    -0.4821980
  S       -1.2930110    -0.0875030     1.0369290
  C        2.1238360     0.2887940     0.2038120
  C        1.0396170     0.1533370    -0.8629480
  C        2.9192610    -1.0021330     0.3722660
  C        3.0446920     1.4546940    -0.1566970
  C       -2.4716130     0.9595520     0.1214340
  C       -3.5526440     0.1784480    -0.6085900
  H        1.6262820     0.5245100     1.1534320
  H        0.5779620     1.1249640    -1.0704080
  H        1.4790150    -0.2072190    -1.8028130
  H        3.4447910    -1.2503440    -0.5572920
  H        3.6685600    -0.8925200     1.1622280
  H        2.2689210    -1.8409590     0.6321870
  H        3.5445550     1.2705440    -1.1143240
  H        3.8190690     1.5865110     0.6053070
  H        2.4877540     2.3935860    -0.2389230
  H       -2.8285152     1.4889910     0.7499137
  H       -1.9135990     1.6021400    -0.5664420
  H       -3.1113200    -0.4862750    -1.3548320
  H       -4.1326660    -0.4262330     0.0924510
  H       -4.2326140     0.8656560    -1.1221410
units angstrom
no_reorient  #important for SAPT in psi4, default
symmetry c1  #important for SAPT in psi4, default
}

set PROPERTIES_ORIGIN ["COM"]
properties('MP2/aug-cc-pvtz', properties = ['dipole'])
--------------------------------------------------------------------------

    Molecular point group: c1
  Charge       = 0
  Multiplicity = 1
  Basis Set: AUG-CC-PVTZ
    Blend: AUG-CC-PVTZ
  Basis Set: (AUG-CC-PVTZ AUX)
    Blend: AUG-CC-PVTZ-JKFIT

    Orbital Energies [Eh]
    ---------------------

    Doubly Occupied:

       1A    -91.966714     2A    -91.966423     3A    -11.257300
       4A    -11.238085     5A    -11.230747     6A    -11.220006
       7A    -11.216709     8A    -11.209888     9A     -8.965536
      10A     -8.965330    11A     -6.646702    12A     -6.646353
      13A     -6.645340    14A     -6.645254    15A     -6.644513
      16A     -6.644462    17A     -1.112072    18A     -1.085334
      19A     -1.015508    20A     -0.934566    21A     -0.930949
      22A     -0.874756    23A     -0.801654    24A     -0.755821
      25A     -0.652276    26A     -0.638794    27A     -0.604824
      28A     -0.593917    29A     -0.585166    30A     -0.551184
      31A     -0.542911    32A     -0.535431    33A     -0.517267
      34A     -0.510954    35A     -0.494381    36A     -0.476572
      37A     -0.471442    38A     -0.452130    39A     -0.430326
      40A     -0.352541    41A     -0.343583

  @DF-RHF Final Energy: -1030.51485413926139

   => Energetics <=

    Nuclear Repulsion Energy =            556.9163808587212543
    One-Electron Energy =               -2524.1150275495324422
    Two-Electron Energy =                 936.6837925515498000
    Total Energy =                      -1030.5148541392613879
  Basis Set: (AUG-CC-PVTZ AUX)
    Blend: AUG-CC-PVTZ-RI
    Molecular point group: c1

    Geometry (in Angstrom), charge = 0, multiplicity = 1:

       Center              X                  Y                   Z               Mass
    ------------   -----------------  -----------------  -----------------  -----------------
         S           -0.241394045735    -1.002320133984    -0.502915343475    31.972071174400
         S           -1.250077045735    -0.048096133984     1.016211656525    31.972071174400
         C            2.166769954265     0.328200866016     0.183094656525    12.000000000000
         C            1.082550954265     0.192743866016    -0.883665343475    12.000000000000
         C            2.962194954265    -0.962726133984     0.351548656525    12.000000000000
         C            3.087625954265     1.494100866016    -0.177414343475    12.000000000000
         C           -2.428679045735     0.998958866016     0.100716656525    12.000000000000
         C           -3.509710045735     0.217854866016    -0.629307343475    12.000000000000
         H            1.669215954265     0.563916866016     1.132714656525     1.007825032230
         H            0.620895954265     1.164370866016    -1.091125343475     1.007825032230
         H            1.521948954265    -0.167812133984    -1.823530343475     1.007825032230
         H            3.487724954265    -1.210937133984    -0.578009343475     1.007825032230
         H            3.711493954265    -0.853113133984     1.141510656525     1.007825032230
         H            2.311854954265    -1.801552133984     0.611469656525     1.007825032230
         H            3.587488954265     1.309950866016    -1.135041343475     1.007825032230
         H            3.862002954265     1.625917866016     0.584589656525     1.007825032230
         H            2.530687954265     2.432992866016    -0.259640343475     1.007825032230
         H           -2.785581245735     1.528397866016     0.729196356525     1.007825032230
         H           -1.870665045735     1.641546866016    -0.587159343475     1.007825032230
         H           -3.068386045735    -0.446868133984    -1.375549343475     1.007825032230
         H           -4.089732045735    -0.386826133984     0.071733656525     1.007825032230
         H           -4.189680045735     0.905062866016    -1.142858343475     1.007825032230

  Basis Set: AUG-CC-PVTZ
    Blend: AUG-CC-PVTZ
  Basis Set: (AUG-CC-PVTZ AUX)
    Blend: AUG-CC-PVTZ-JKFIT
	 Reference Energy          =   -1030.5148541392613879 [Eh]
	 Singles Energy            =      -0.0000000000000000 [Eh]
	 Same-Spin Energy          =      -0.3699926591095903 [Eh]
	 Opposite-Spin Energy      =      -1.2682621583440048 [Eh]
	 Correlation Energy        =      -1.6382548174535951 [Eh]
	 Total Energy              =   -1032.1531089567149593 [Eh]

	 ================> DF-SCS-MP2 Energies <==================
	-----------------------------------------------------------
	 SCS Same-Spin Scale       =       0.3333333333333333 [-]
	 SCS Opposite-Spin Scale   =       1.2000000000000000 [-]
	 SCS Same-Spin Energy      =      -0.1233308863698634 [Eh]
	 SCS Opposite-Spin Energy  =      -1.5219145900128057 [Eh]
	 SCS Correlation Energy    =      -1.6452454763826692 [Eh]
	 SCS Total Energy          =   -1032.1600996156439578 [Eh]
	-----------------------------------------------------------

  Dipole Moment: [D]
     X:     0.1087      Y:     1.8069      Z:    -0.8351     Total:     1.9935

*** Psi4 exiting successfully. Buy a developer a beer!
