                               Psi4 1.4a3.dev225

  ==> Input File <==

--------------------------------------------------------------------------
#psi4
#
memory 32 gb

molecule  {
0 1
  S       -0.2843280    -1.0417270    -0.4821980
  S       -1.2930110    -0.0875030     1.0369290
  C        2.1238360     0.2887940     0.2038120
  C        1.0396170     0.1533370    -0.8629480
  C        2.9192610    -1.0021330     0.3722660
  C        3.0567387     1.4699464    -0.1614132
  C       -2.4716130     0.9595520     0.1214340
  C       -3.5526440     0.1784480    -0.6085900
  H        1.6262820     0.5245100     1.1534320
  H        0.5779620     1.1249640    -1.0704080
  H        1.4790150    -0.2072190    -1.8028130
  H        3.4447910    -1.2503440    -0.5572920
  H        3.6685600    -0.8925200     1.1622280
  H        2.2689210    -1.8409590     0.6321870
  H        3.5445550     1.2705440    -1.1143240
  H        3.8190690     1.5865110     0.6053070
  H        2.4877540     2.3935860    -0.2389230
  H       -2.9081880     1.6071800     0.8902120
  H       -1.9135990     1.6021400    -0.5664420
  H       -3.1113200    -0.4862750    -1.3548320
  H       -4.1326660    -0.4262330     0.0924510
  H       -4.2326140     0.8656560    -1.1221410
units angstrom
no_reorient  #important for SAPT in psi4, default
symmetry c1  #important for SAPT in psi4, default
}

set PROPERTIES_ORIGIN ["COM"]
properties('MP2/aug-cc-pvtz', properties = ['dipole'])
--------------------------------------------------------------------------

    Molecular point group: c1
  Charge       = 0
  Multiplicity = 1
  Basis Set: AUG-CC-PVTZ
    Blend: AUG-CC-PVTZ
  Basis Set: (AUG-CC-PVTZ AUX)
    Blend: AUG-CC-PVTZ-JKFIT

    Orbital Energies [Eh]
    ---------------------

    Doubly Occupied:

       1A    -91.967463     2A    -91.966935     3A    -11.262075
       4A    -11.257487     5A    -11.231779     6A    -11.221262
       7A    -11.215926     8A    -11.210020     9A     -8.966304
      10A     -8.965705    11A     -6.647409    12A     -6.646758
      13A     -6.646137    14A     -6.645567    15A     -6.645317
      16A     -6.644767    17A     -1.109350    18A     -1.075714
      19A     -1.011058    20A     -0.934967    21A     -0.931436
      22A     -0.861132    23A     -0.793625    24A     -0.751514
      25A     -0.643145    26A     -0.629515    27A     -0.604577
      28A     -0.591175    29A     -0.585265    30A     -0.552448
      31A     -0.541339    32A     -0.536724    33A     -0.513637
      34A     -0.508284    35A     -0.493098    36A     -0.475412
      37A     -0.472438    38A     -0.450390    39A     -0.428451
      40A     -0.352838    41A     -0.344034

  @DF-RHF Final Energy: -1030.54796291699768

   => Energetics <=

    Nuclear Repulsion Energy =            555.3695124789334159
    One-Electron Energy =               -2521.1699981112783462
    Two-Electron Energy =                 935.2525227153473679
    Total Energy =                      -1030.5479629169976761
  Basis Set: (AUG-CC-PVTZ AUX)
    Blend: AUG-CC-PVTZ-RI
    Molecular point group: c1

    Geometry (in Angstrom), charge = 0, multiplicity = 1:

       Center              X                  Y                   Z               Mass
    ------------   -----------------  -----------------  -----------------  -----------------
         S           -0.241822320152    -1.004333697443    -0.503480486106    31.972071174400
         S           -1.250505320152    -0.050109697443     1.015646513894    31.972071174400
         C            2.166341679848     0.326187302557     0.182529513894    12.000000000000
         C            1.082122679848     0.190730302557    -0.884230486106    12.000000000000
         C            2.961766679848    -0.964739697443     0.350983513894    12.000000000000
         C            3.099244379848     1.507339702557    -0.182695686106    12.000000000000
         C           -2.429107320152     0.996945302557     0.100151513894    12.000000000000
         C           -3.510138320152     0.215841302557    -0.629872486106    12.000000000000
         H            1.668787679848     0.561903302557     1.132149513894     1.007825032230
         H            0.620467679848     1.162357302557    -1.091690486106     1.007825032230
         H            1.521520679848    -0.169825697443    -1.824095486106     1.007825032230
         H            3.487296679848    -1.212950697443    -0.578574486106     1.007825032230
         H            3.711065679848    -0.855126697443     1.140945513894     1.007825032230
         H            2.311426679848    -1.803565697443     0.610904513894     1.007825032230
         H            3.587060679848     1.307937302557    -1.135606486106     1.007825032230
         H            3.861574679848     1.623904302557     0.584024513894     1.007825032230
         H            2.530259679848     2.430979302557    -0.260205486106     1.007825032230
         H           -2.865682320152     1.644573302557     0.868929513894     1.007825032230
         H           -1.871093320152     1.639533302557    -0.587724486106     1.007825032230
         H           -3.068814320152    -0.448881697443    -1.376114486106     1.007825032230
         H           -4.090160320152    -0.388839697443     0.071168513894     1.007825032230
         H           -4.190108320152     0.903049302557    -1.143423486106     1.007825032230

  Basis Set: AUG-CC-PVTZ
    Blend: AUG-CC-PVTZ
  Basis Set: (AUG-CC-PVTZ AUX)
    Blend: AUG-CC-PVTZ-JKFIT
	 Reference Energy          =   -1030.5479629169976761 [Eh]
	 Singles Energy            =      -0.0000000000000000 [Eh]
	 Same-Spin Energy          =      -0.3699792606566752 [Eh]
	 Opposite-Spin Energy      =      -1.2688010906748284 [Eh]
	 Correlation Energy        =      -1.6387803513315036 [Eh]
	 Total Energy              =   -1032.1867432683291099 [Eh]

	 ================> DF-SCS-MP2 Energies <==================
	-----------------------------------------------------------
	 SCS Same-Spin Scale       =       0.3333333333333333 [-]
	 SCS Opposite-Spin Scale   =       1.2000000000000000 [-]
	 SCS Same-Spin Energy      =      -0.1233264202188917 [Eh]
	 SCS Opposite-Spin Energy  =      -1.5225613088097940 [Eh]
	 SCS Correlation Energy    =      -1.6458877290286857 [Eh]
	 SCS Total Energy          =   -1032.1938506460262488 [Eh]
	-----------------------------------------------------------

  Dipole Moment: [D]
     X:     0.1173      Y:     1.7659      Z:    -0.8625     Total:     1.9688

*** Psi4 exiting successfully. Buy a developer a beer!
