                               Psi4 1.4a3.dev225

  ==> Input File <==

--------------------------------------------------------------------------
#psi4
#
memory 32 gb

molecule  {
0 1
  S       -0.2843280    -1.0417270    -0.4821980
  S       -1.2930110    -0.0875030     1.0369290
  C        2.1238360     0.2887940     0.2038120
  C        1.0396170     0.1533370    -0.8629480
  C        2.9192610    -1.0021330     0.3722660
  C        3.0446920     1.4546940    -0.1566970
  C       -2.4716130     0.9595520     0.1214340
  C       -3.5526440     0.1784480    -0.6085900
  H        1.6262820     0.5245100     1.1534320
  H        0.5779620     1.1249640    -1.0704080
  H        1.4790150    -0.2072190    -1.8028130
  H        3.4447910    -1.2503440    -0.5572920
  H        3.6343237    -0.8975283     1.1261338
  H        2.2689210    -1.8409590     0.6321870
  H        3.5445550     1.2705440    -1.1143240
  H        3.8190690     1.5865110     0.6053070
  H        2.4877540     2.3935860    -0.2389230
  H       -2.9081880     1.6071800     0.8902120
  H       -1.9135990     1.6021400    -0.5664420
  H       -3.1113200    -0.4862750    -1.3548320
  H       -4.1326660    -0.4262330     0.0924510
  H       -4.2326140     0.8656560    -1.1221410
units angstrom
no_reorient  #important for SAPT in psi4, default
symmetry c1  #important for SAPT in psi4, default
}

set PROPERTIES_ORIGIN ["COM"]
properties('MP2/aug-cc-pvtz', properties = ['dipole'])
--------------------------------------------------------------------------

    Molecular point group: c1
  Charge       = 0
  Multiplicity = 1
  Basis Set: AUG-CC-PVTZ
    Blend: AUG-CC-PVTZ
  Basis Set: (AUG-CC-PVTZ AUX)
    Blend: AUG-CC-PVTZ-JKFIT

    Orbital Energies [Eh]
    ---------------------

    Doubly Occupied:

       1A    -91.967304     2A    -91.966708     3A    -11.261938
       4A    -11.257137     5A    -11.230484     6A    -11.221148
       7A    -11.216838     8A    -11.203796     9A     -8.966144
      10A     -8.965477    11A     -6.647246    12A     -6.646536
      13A     -6.645977    14A     -6.645338    15A     -6.645159
      16A     -6.644538    17A     -1.110663    18A     -1.076602
      19A     -1.011975    20A     -0.936736    21A     -0.932939
      22A     -0.861043    23A     -0.794190    24A     -0.752028
      25A     -0.645216    26A     -0.629825    27A     -0.606200
      28A     -0.591778    29A     -0.585558    30A     -0.551600
      31A     -0.541150    32A     -0.537108    33A     -0.514226
      34A     -0.509650    35A     -0.493727    36A     -0.475178
      37A     -0.471793    38A     -0.452504    39A     -0.428456
      40A     -0.352653    41A     -0.343873

  @DF-RHF Final Energy: -1030.54709807734116

   => Energetics <=

    Nuclear Repulsion Energy =            555.9684085809548151
    One-Electron Energy =               -2522.3541358120514815
    Two-Electron Energy =                 935.8386291537555053
    Total Energy =                      -1030.5470980773411611
  Basis Set: (AUG-CC-PVTZ AUX)
    Blend: AUG-CC-PVTZ-RI
    Molecular point group: c1

    Geometry (in Angstrom), charge = 0, multiplicity = 1:

       Center              X                  Y                   Z               Mass
    ------------   -----------------  -----------------  -----------------  -----------------
         S           -0.240628983308    -1.003080304163    -0.503615222955    31.972071174400
         S           -1.249311983308    -0.048856304163     1.015511777045    31.972071174400
         C            2.167535016692     0.327440695837     0.182394777045    12.000000000000
         C            1.083316016692     0.191983695837    -0.884365222955    12.000000000000
         C            2.962960016692    -0.963486304163     0.350848777045    12.000000000000
         C            3.088391016692     1.493340695837    -0.178114222955    12.000000000000
         C           -2.427913983308     0.998198695837     0.100016777045    12.000000000000
         C           -3.508944983308     0.217094695837    -0.630007222955    12.000000000000
         H            1.669981016692     0.563156695837     1.132014777045     1.007825032230
         H            0.621661016692     1.163610695837    -1.091825222955     1.007825032230
         H            1.522714016692    -0.168572304163    -1.824230222955     1.007825032230
         H            3.488490016692    -1.211697304163    -0.578709222955     1.007825032230
         H            3.678022716692    -0.858881604163     1.104716577045     1.007825032230
         H            2.312620016692    -1.802312304163     0.610769777045     1.007825032230
         H            3.588254016692     1.309190695837    -1.135741222955     1.007825032230
         H            3.862768016692     1.625157695837     0.583889777045     1.007825032230
         H            2.531453016692     2.432232695837    -0.260340222955     1.007825032230
         H           -2.864488983308     1.645826695837     0.868794777045     1.007825032230
         H           -1.869899983308     1.640786695837    -0.587859222955     1.007825032230
         H           -3.067620983308    -0.447628304163    -1.376249222955     1.007825032230
         H           -4.088966983308    -0.387586304163     0.071033777045     1.007825032230
         H           -4.188914983308     0.904302695837    -1.143558222955     1.007825032230

  Basis Set: AUG-CC-PVTZ
    Blend: AUG-CC-PVTZ
  Basis Set: (AUG-CC-PVTZ AUX)
    Blend: AUG-CC-PVTZ-JKFIT
	 Reference Energy          =   -1030.5470980773411611 [Eh]
	 Singles Energy            =      -0.0000000000000000 [Eh]
	 Same-Spin Energy          =      -0.3701161374160744 [Eh]
	 Opposite-Spin Energy      =      -1.2686217203496328 [Eh]
	 Correlation Energy        =      -1.6387378577657072 [Eh]
	 Total Energy              =   -1032.1858359351069794 [Eh]

	 ================> DF-SCS-MP2 Energies <==================
	-----------------------------------------------------------
	 SCS Same-Spin Scale       =       0.3333333333333333 [-]
	 SCS Opposite-Spin Scale   =       1.2000000000000000 [-]
	 SCS Same-Spin Energy      =      -0.1233720458053581 [Eh]
	 SCS Opposite-Spin Energy  =      -1.5223460644195594 [Eh]
	 SCS Correlation Energy    =      -1.6457181102249177 [Eh]
	 SCS Total Energy          =   -1032.1928161875659953 [Eh]
	-----------------------------------------------------------

  Dipole Moment: [D]
     X:     0.1485      Y:     1.7626      Z:    -0.8423     Total:     1.9592

*** Psi4 exiting successfully. Buy a developer a beer!
