                               Psi4 1.4a3.dev225

  ==> Input File <==

--------------------------------------------------------------------------
#psi4
#
memory 32 gb

molecule  {
0 1
  S       -0.2843280    -1.0417270    -0.4821980
  S       -1.2930110    -0.0875030     1.0369290
  C        2.1238360     0.2887940     0.2038120
  C        1.0396170     0.1533370    -0.8629480
  C        2.9192610    -1.0021330     0.3722660
  C        3.0446920     1.4546940    -0.1566970
  C       -2.4716130     0.9595520     0.1214340
  C       -3.5526440     0.1784480    -0.6085900
  H        1.6262820     0.5245100     1.1534320
  H        0.5779620     1.1249640    -1.0704080
  H        1.4790150    -0.2072190    -1.8028130
  H        3.4447910    -1.2503440    -0.5572920
  H        3.6685600    -0.8925200     1.1622280
  H        2.2689210    -1.8409590     0.6321870
  H        3.5445550     1.2705440    -1.1143240
  H        3.8190690     1.5865110     0.6053070
  H        2.4877540     2.3935860    -0.2389230
  H       -2.9161553     1.6189989     0.9042418
  H       -1.9135990     1.6021400    -0.5664420
  H       -3.1113200    -0.4862750    -1.3548320
  H       -4.1326660    -0.4262330     0.0924510
  H       -4.2326140     0.8656560    -1.1221410
units angstrom
no_reorient  #important for SAPT in psi4, default
symmetry c1  #important for SAPT in psi4, default
}

set PROPERTIES_ORIGIN ["COM"]
properties('MP2/aug-cc-pvtz', properties = ['dipole'])
--------------------------------------------------------------------------

    Molecular point group: c1
  Charge       = 0
  Multiplicity = 1
  Basis Set: AUG-CC-PVTZ
    Blend: AUG-CC-PVTZ
  Basis Set: (AUG-CC-PVTZ AUX)
    Blend: AUG-CC-PVTZ-JKFIT

    Orbital Energies [Eh]
    ---------------------

    Doubly Occupied:

       1A    -91.967655     2A    -91.967038     3A    -11.264420
       4A    -11.257606     5A    -11.230967     6A    -11.221456
       7A    -11.216854     8A    -11.210111     9A     -8.966477
      10A     -8.965812    11A     -6.647575    12A     -6.646869
      13A     -6.646307    14A     -6.645673    15A     -6.645486
      16A     -6.644874    17A     -1.110640    18A     -1.076019
      19A     -1.011462    20A     -0.935157    21A     -0.931145
      22A     -0.860074    23A     -0.792963    24A     -0.751578
      25A     -0.643340    26A     -0.628444    27A     -0.605007
      28A     -0.591348    29A     -0.585754    30A     -0.551491
      31A     -0.541094    32A     -0.534904    33A     -0.513534
      34A     -0.507474    35A     -0.492383    36A     -0.475243
      37A     -0.471755    38A     -0.452727    39A     -0.428488
      40A     -0.352958    41A     -0.344183

  @DF-RHF Final Energy: -1030.54755317806098

   => Energetics <=

    Nuclear Repulsion Energy =            555.6175083258896166
    One-Electron Energy =               -2521.6614306366964229
    Two-Electron Energy =                 935.4963691327458264
    Total Energy =                      -1030.5475531780612073
  Basis Set: (AUG-CC-PVTZ AUX)
    Blend: AUG-CC-PVTZ-RI
    Molecular point group: c1

    Geometry (in Angstrom), charge = 0, multiplicity = 1:

       Center              X                  Y                   Z               Mass
    ------------   -----------------  -----------------  -----------------  -----------------
         S           -0.240805417192    -1.003193322864    -0.503951877262    31.972071174400
         S           -1.249488417192    -0.048969322864     1.015175122738    31.972071174400
         C            2.167358582808     0.327327677136     0.182058122738    12.000000000000
         C            1.083139582808     0.191870677136    -0.884701877262    12.000000000000
         C            2.962783582808    -0.963599322864     0.350512122738    12.000000000000
         C            3.088214582808     1.493227677136    -0.178450877262    12.000000000000
         C           -2.428090417192     0.998085677136     0.099680122738    12.000000000000
         C           -3.509121417192     0.216981677136    -0.630343877262    12.000000000000
         H            1.669804582808     0.563043677136     1.131678122738     1.007825032230
         H            0.621484582808     1.163497677136    -1.092161877262     1.007825032230
         H            1.522537582808    -0.168685322864    -1.824566877262     1.007825032230
         H            3.488313582808    -1.211810322864    -0.579045877262     1.007825032230
         H            3.712082582808    -0.853986322864     1.140474122738     1.007825032230
         H            2.312443582808    -1.802425322864     0.610433122738     1.007825032230
         H            3.588077582808     1.309077677136    -1.136077877262     1.007825032230
         H            3.862591582808     1.625044677136     0.583553122738     1.007825032230
         H            2.531276582808     2.432119677136    -0.260676877262     1.007825032230
         H           -2.872632717192     1.657532577136     0.882487922738     1.007825032230
         H           -1.870076417192     1.640673677136    -0.588195877262     1.007825032230
         H           -3.067797417192    -0.447741322864    -1.376585877262     1.007825032230
         H           -4.089143417192    -0.387699322864     0.070697122738     1.007825032230
         H           -4.189091417192     0.904189677136    -1.143894877262     1.007825032230

  Basis Set: AUG-CC-PVTZ
    Blend: AUG-CC-PVTZ
  Basis Set: (AUG-CC-PVTZ AUX)
    Blend: AUG-CC-PVTZ-JKFIT
	 Reference Energy          =   -1030.5475531780609799 [Eh]
	 Singles Energy            =      -0.0000000000000000 [Eh]
	 Same-Spin Energy          =      -0.3701249512484502 [Eh]
	 Opposite-Spin Energy      =      -1.2690346597971836 [Eh]
	 Correlation Energy        =      -1.6391596110456339 [Eh]
	 Total Energy              =   -1032.1867127891066502 [Eh]

	 ================> DF-SCS-MP2 Energies <==================
	-----------------------------------------------------------
	 SCS Same-Spin Scale       =       0.3333333333333333 [-]
	 SCS Opposite-Spin Scale   =       1.2000000000000000 [-]
	 SCS Same-Spin Energy      =      -0.1233749837494834 [Eh]
	 SCS Opposite-Spin Energy  =      -1.5228415917566203 [Eh]
	 SCS Correlation Energy    =      -1.6462165755061036 [Eh]
	 SCS Total Energy          =   -1032.1937697535670395 [Eh]
	-----------------------------------------------------------

  Dipole Moment: [D]
     X:     0.1201      Y:     1.7604      Z:    -0.8669     Total:     1.9660

*** Psi4 exiting successfully. Buy a developer a beer!
