                               Psi4 1.4a3.dev225

  ==> Input File <==

--------------------------------------------------------------------------
#psi4
#
memory 32 gb

molecule  {
0 1
  S       -0.2843280    -1.0417270    -0.4821980
  S       -1.2930110    -0.0875030     1.0369290
  C        2.1238360     0.2887940     0.2038120
  C        1.0396170     0.1533370    -0.8629480
  C        2.9192610    -1.0021330     0.3722660
  C        3.0446920     1.4546940    -0.1566970
  C       -2.4716130     0.9595520     0.1214340
  C       -3.5526440     0.1784480    -0.6085900
  H        1.6262820     0.5245100     1.1534320
  H        0.5779620     1.1249640    -1.0704080
  H        1.4790150    -0.2072190    -1.8028130
  H        3.4447910    -1.2503440    -0.5572920
  H        3.6685600    -0.8925200     1.1622280
  H        2.2689210    -1.8409590     0.6321870
  H        3.5901704     1.2537392    -1.2017130
  H        3.8190690     1.5865110     0.6053070
  H        2.4877540     2.3935860    -0.2389230
  H       -2.9081880     1.6071800     0.8902120
  H       -1.9135990     1.6021400    -0.5664420
  H       -3.1113200    -0.4862750    -1.3548320
  H       -4.1326660    -0.4262330     0.0924510
  H       -4.2326140     0.8656560    -1.1221410
units angstrom
no_reorient  #important for SAPT in psi4, default
symmetry c1  #important for SAPT in psi4, default
}

set PROPERTIES_ORIGIN ["COM"]
properties('MP2/aug-cc-pvtz', properties = ['dipole'])
--------------------------------------------------------------------------

    Molecular point group: c1
  Charge       = 0
  Multiplicity = 1
  Basis Set: AUG-CC-PVTZ
    Blend: AUG-CC-PVTZ
  Basis Set: (AUG-CC-PVTZ AUX)
    Blend: AUG-CC-PVTZ-JKFIT

    Orbital Energies [Eh]
    ---------------------

    Doubly Occupied:

       1A    -91.967734     2A    -91.967186     3A    -11.262300
       4A    -11.257802     5A    -11.232376     6A    -11.229054
       7A    -11.221436     8A    -11.210290     9A     -8.966578
      10A     -8.965958    11A     -6.647683    12A     -6.647014
      13A     -6.646412    14A     -6.645819    15A     -6.645593
      16A     -6.645020    17A     -1.110600    18A     -1.076426
      19A     -1.011209    20A     -0.935144    21A     -0.926838
      22A     -0.860294    23A     -0.791911    24A     -0.751262
      25A     -0.642739    26A     -0.629744    27A     -0.604944
      28A     -0.591993    29A     -0.586336    30A     -0.547873
      31A     -0.540475    32A     -0.526529    33A     -0.513116
      34A     -0.508439    35A     -0.492780    36A     -0.476305
      37A     -0.468867    38A     -0.452872    39A     -0.428965
      40A     -0.353110    41A     -0.344376

  @DF-RHF Final Energy: -1030.54179687668511

   => Energetics <=

    Nuclear Repulsion Energy =            555.3065862583212038
    One-Electron Energy =               -2521.0339604051628157
    Two-Electron Energy =                 935.1855772701565002
    Total Energy =                      -1030.5417968766851118
  Basis Set: (AUG-CC-PVTZ AUX)
    Blend: AUG-CC-PVTZ-RI
    Molecular point group: c1

    Geometry (in Angstrom), charge = 0, multiplicity = 1:

       Center              X                  Y                   Z               Mass
    ------------   -----------------  -----------------  -----------------  -----------------
         S           -0.241165301613    -1.003001073804    -0.503270705053    31.972071174400
         S           -1.249848301613    -0.048777073804     1.015856294947    31.972071174400
         C            2.166998698387     0.327519926196     0.182739294947    12.000000000000
         C            1.082779698387     0.192062926196    -0.884020705053    12.000000000000
         C            2.962423698387    -0.963407073804     0.351193294947    12.000000000000
         C            3.087854698387     1.493419926196    -0.177769705053    12.000000000000
         C           -2.428450301613     0.998277926196     0.100361294947    12.000000000000
         C           -3.509481301613     0.217173926196    -0.629662705053    12.000000000000
         H            1.669444698387     0.563235926196     1.132359294947     1.007825032230
         H            0.621124698387     1.163689926196    -1.091480705053     1.007825032230
         H            1.522177698387    -0.168493073804    -1.823885705053     1.007825032230
         H            3.487953698387    -1.211618073804    -0.578364705053     1.007825032230
         H            3.711722698387    -0.853794073804     1.141155294947     1.007825032230
         H            2.312083698387    -1.802233073804     0.611114294947     1.007825032230
         H            3.633333098387     1.292465126196    -1.222785705053     1.007825032230
         H            3.862231698387     1.625236926196     0.584234294947     1.007825032230
         H            2.530916698387     2.432311926196    -0.259995705053     1.007825032230
         H           -2.865025301613     1.645905926196     0.869139294947     1.007825032230
         H           -1.870436301613     1.640865926196    -0.587514705053     1.007825032230
         H           -3.068157301613    -0.447549073804    -1.375904705053     1.007825032230
         H           -4.089503301613    -0.387507073804     0.071378294947     1.007825032230
         H           -4.189451301613     0.904381926196    -1.143213705053     1.007825032230

  Basis Set: AUG-CC-PVTZ
    Blend: AUG-CC-PVTZ
  Basis Set: (AUG-CC-PVTZ AUX)
    Blend: AUG-CC-PVTZ-JKFIT
	 Reference Energy          =   -1030.5417968766851118 [Eh]
	 Singles Energy            =      -0.0000000000000000 [Eh]
	 Same-Spin Energy          =      -0.3700912265294977 [Eh]
	 Opposite-Spin Energy      =      -1.2695667945313871 [Eh]
	 Correlation Energy        =      -1.6396580210608849 [Eh]
	 Total Energy              =   -1032.1814548977461072 [Eh]

	 ================> DF-SCS-MP2 Energies <==================
	-----------------------------------------------------------
	 SCS Same-Spin Scale       =       0.3333333333333333 [-]
	 SCS Opposite-Spin Scale   =       1.2000000000000000 [-]
	 SCS Same-Spin Energy      =      -0.1233637421764992 [Eh]
	 SCS Opposite-Spin Energy  =      -1.5234801534376645 [Eh]
	 SCS Correlation Energy    =      -1.6468438956141638 [Eh]
	 SCS Total Energy          =   -1032.1886407722993226 [Eh]
	-----------------------------------------------------------

  Dipole Moment: [D]
     X:     0.0718      Y:     1.7626      Z:    -0.8039     Total:     1.9386

*** Psi4 exiting successfully. Buy a developer a beer!
