                               Psi4 1.4a3.dev225

  ==> Input File <==

--------------------------------------------------------------------------
#psi4
#
memory 32 gb

molecule  {
0 1
  S       -0.2843280    -1.0417270    -0.4821980
  S       -1.2930110    -0.0875030     1.0369290
  C        2.1238360     0.2887940     0.2038120
  C        1.0396170     0.1533370    -0.8629480
  C        2.9192610    -1.0021330     0.3722660
  C        3.0446920     1.4546940    -0.1566970
  C       -2.4716130     0.9595520     0.1214340
  C       -3.5526440     0.1784480    -0.6085900
  H        1.6262820     0.5245100     1.1534320
  H        0.5779620     1.1249640    -1.0704080
  H        1.4790150    -0.2072190    -1.8028130
  H        3.4447910    -1.2503440    -0.5572920
  H        3.6685600    -0.8925200     1.1622280
  H        2.3879478    -1.6874351     0.5846156
  H        3.5445550     1.2705440    -1.1143240
  H        3.8190690     1.5865110     0.6053070
  H        2.4877540     2.3935860    -0.2389230
  H       -2.9081880     1.6071800     0.8902120
  H       -1.9135990     1.6021400    -0.5664420
  H       -3.1113200    -0.4862750    -1.3548320
  H       -4.1326660    -0.4262330     0.0924510
  H       -4.2326140     0.8656560    -1.1221410
units angstrom
no_reorient  #important for SAPT in psi4, default
symmetry c1  #important for SAPT in psi4, default
}

set PROPERTIES_ORIGIN ["COM"]
properties('MP2/aug-cc-pvtz', properties = ['dipole'])
--------------------------------------------------------------------------

    Molecular point group: c1
  Charge       = 0
  Multiplicity = 1
  Basis Set: AUG-CC-PVTZ
    Blend: AUG-CC-PVTZ
  Basis Set: (AUG-CC-PVTZ AUX)
    Blend: AUG-CC-PVTZ-JKFIT

    Orbital Energies [Eh]
    ---------------------

    Doubly Occupied:

       1A    -91.967743     2A    -91.967496     3A    -11.262308
       4A    -11.257416     5A    -11.229504     6A    -11.221452
       7A    -11.215407     8A    -11.186013     9A     -8.966600
      10A     -8.966235    11A     -6.647724    12A     -6.647271
      13A     -6.646426    14A     -6.646114    15A     -6.645600
      16A     -6.645313    17A     -1.112310    18A     -1.077760
      19A     -1.013481    20A     -0.952210    21A     -0.934116
      22A     -0.861557    23A     -0.796546    24A     -0.753688
      25A     -0.649335    26A     -0.632938    27A     -0.617321
      28A     -0.594590    29A     -0.585486    30A     -0.550921
      31A     -0.542670    32A     -0.535145    33A     -0.521852
      34A     -0.511703    35A     -0.492918    36A     -0.477018
      37A     -0.470929    38A     -0.453421    39A     -0.429588
      40A     -0.353472    41A     -0.344426

  @DF-RHF Final Energy: -1030.51403953372073

   => Energetics <=

    Nuclear Repulsion Energy =            556.5721345998426841
    One-Electron Energy =               -2523.4043008786038627
    Two-Electron Energy =                 936.3181267450405585
    Total Energy =                      -1030.5140395337207337
  Basis Set: (AUG-CC-PVTZ AUX)
    Blend: AUG-CC-PVTZ-RI
    Molecular point group: c1

    Geometry (in Angstrom), charge = 0, multiplicity = 1:

       Center              X                  Y                   Z               Mass
    ------------   -----------------  -----------------  -----------------  -----------------
         S           -0.241658364097    -1.004145074490    -0.503538137152    31.972071174400
         S           -1.250341364097    -0.049921074490     1.015588862848    31.972071174400
         C            2.166505635903     0.326375925510     0.182471862848    12.000000000000
         C            1.082286635903     0.190918925510    -0.884288137152    12.000000000000
         C            2.961930635903    -0.964551074490     0.350925862848    12.000000000000
         C            3.087361635903     1.492275925510    -0.178037137152    12.000000000000
         C           -2.428943364097     0.997133925510     0.100093862848    12.000000000000
         C           -3.509974364097     0.216029925510    -0.629930137152    12.000000000000
         H            1.668951635903     0.562091925510     1.132091862848     1.007825032230
         H            0.620631635903     1.162545925510    -1.091748137152     1.007825032230
         H            1.521684635903    -0.169637074490    -1.824153137152     1.007825032230
         H            3.487460635903    -1.212762074490    -0.578632137152     1.007825032230
         H            3.711229635903    -0.854938074490     1.140887862848     1.007825032230
         H            2.430617435903    -1.649853174490     0.563275462848     1.007825032230
         H            3.587224635903     1.308125925510    -1.135664137152     1.007825032230
         H            3.861738635903     1.624092925510     0.583966862848     1.007825032230
         H            2.530423635903     2.431167925510    -0.260263137152     1.007825032230
         H           -2.865518364097     1.644761925510     0.868871862848     1.007825032230
         H           -1.870929364097     1.639721925510    -0.587782137152     1.007825032230
         H           -3.068650364097    -0.448693074490    -1.376172137152     1.007825032230
         H           -4.089996364097    -0.388651074490     0.071110862848     1.007825032230
         H           -4.189944364097     0.903237925510    -1.143481137152     1.007825032230

  Basis Set: AUG-CC-PVTZ
    Blend: AUG-CC-PVTZ
  Basis Set: (AUG-CC-PVTZ AUX)
    Blend: AUG-CC-PVTZ-JKFIT
	 Reference Energy          =   -1030.5140395337207337 [Eh]
	 Singles Energy            =      -0.0000000000000000 [Eh]
	 Same-Spin Energy          =      -0.3699896481195192 [Eh]
	 Opposite-Spin Energy      =      -1.2680636146603490 [Eh]
	 Correlation Energy        =      -1.6380532627798683 [Eh]
	 Total Energy              =   -1032.1520927965007104 [Eh]

	 ================> DF-SCS-MP2 Energies <==================
	-----------------------------------------------------------
	 SCS Same-Spin Scale       =       0.3333333333333333 [-]
	 SCS Opposite-Spin Scale   =       1.2000000000000000 [-]
	 SCS Same-Spin Energy      =      -0.1233298827065064 [Eh]
	 SCS Opposite-Spin Energy  =      -1.5216763375924187 [Eh]
	 SCS Correlation Energy    =      -1.6450062202989251 [Eh]
	 SCS Total Energy          =   -1032.1590457540196439 [Eh]
	-----------------------------------------------------------

  Dipole Moment: [D]
     X:     0.0948      Y:     1.6984      Z:    -0.8433     Total:     1.8986

*** Psi4 exiting successfully. Buy a developer a beer!
