                               Psi4 1.4a3.dev225

  ==> Input File <==

--------------------------------------------------------------------------
#psi4
#
memory 32 gb

molecule  {
0 1
  S       -0.2843280    -1.0417270    -0.4821980
  S       -1.2930110    -0.0875030     1.0369290
  C        2.1238360     0.2887940     0.2038120
  C        1.0396170     0.1533370    -0.8629480
  C        2.9192610    -1.0021330     0.3722660
  C        3.0446920     1.4546940    -0.1566970
  C       -2.4716130     0.9595520     0.1214340
  C       -3.5526440     0.1784480    -0.6085900
  H        1.6262820     0.5245100     1.1534320
  H        0.5779620     1.1249640    -1.0704080
  H        1.4790150    -0.2072190    -1.8028130
  H        3.4447910    -1.2503440    -0.5572920
  H        3.5316148    -0.9125534     1.0178511
  H        2.2689210    -1.8409590     0.6321870
  H        3.5445550     1.2705440    -1.1143240
  H        3.8190690     1.5865110     0.6053070
  H        2.4877540     2.3935860    -0.2389230
  H       -2.9081880     1.6071800     0.8902120
  H       -1.9135990     1.6021400    -0.5664420
  H       -3.1113200    -0.4862750    -1.3548320
  H       -4.1326660    -0.4262330     0.0924510
  H       -4.2326140     0.8656560    -1.1221410
units angstrom
no_reorient  #important for SAPT in psi4, default
symmetry c1  #important for SAPT in psi4, default
}

set PROPERTIES_ORIGIN ["COM"]
properties('MP2/aug-cc-pvtz', properties = ['dipole'])
--------------------------------------------------------------------------

    Molecular point group: c1
  Charge       = 0
  Multiplicity = 1
  Basis Set: AUG-CC-PVTZ
    Blend: AUG-CC-PVTZ
  Basis Set: (AUG-CC-PVTZ AUX)
    Blend: AUG-CC-PVTZ-JKFIT

    Orbital Energies [Eh]
    ---------------------

    Doubly Occupied:

       1A    -91.966870     2A    -91.966119     3A    -11.261583
       4A    -11.256213     5A    -11.229512     6A    -11.220854
       7A    -11.216926     8A    -11.184881     9A     -8.965707
      10A     -8.964884    11A     -6.646805    12A     -6.645954
      13A     -6.645541    14A     -6.644749    15A     -6.644721
      16A     -6.643944    17A     -1.111500    18A     -1.077391
      19A     -1.013961    20A     -0.951037    21A     -0.933428
      22A     -0.861578    23A     -0.796835    24A     -0.752879
      25A     -0.653509    26A     -0.630073    27A     -0.610238
      28A     -0.592279    29A     -0.585412    30A     -0.553722
      31A     -0.544997    32A     -0.540081    33A     -0.516817
      34A     -0.511096    35A     -0.495020    36A     -0.474789
      37A     -0.471542    38A     -0.452179    39A     -0.427926
      40A     -0.352130    41A     -0.343381

  @DF-RHF Final Energy: -1030.51415151015635

   => Energetics <=

    Nuclear Repulsion Energy =            556.8083422354004597
    One-Electron Energy =               -2523.9268633767374013
    Two-Electron Energy =                 936.6043696311805888
    Total Energy =                      -1030.5141515101563527
  Basis Set: (AUG-CC-PVTZ AUX)
    Blend: AUG-CC-PVTZ-RI
    Molecular point group: c1

    Geometry (in Angstrom), charge = 0, multiplicity = 1:

       Center              X                  Y                   Z               Mass
    ------------   -----------------  -----------------  -----------------  -----------------
         S           -0.239939146234    -1.002979389140    -0.502887949847    31.972071174400
         S           -1.248622146234    -0.048755389140     1.016239050153    31.972071174400
         C            2.168224853766     0.327541610860     0.183122050153    12.000000000000
         C            1.084005853766     0.192084610860    -0.883637949847    12.000000000000
         C            2.963649853766    -0.963385389140     0.351576050153    12.000000000000
         C            3.089080853766     1.493441610860    -0.177386949847    12.000000000000
         C           -2.427224146234     0.998299610860     0.100744050153    12.000000000000
         C           -3.508255146234     0.217195610860    -0.629279949847    12.000000000000
         H            1.670670853766     0.563257610860     1.132742050153     1.007825032230
         H            0.622350853766     1.163711610860    -1.091097949847     1.007825032230
         H            1.523403853766    -0.168471389140    -1.823502949847     1.007825032230
         H            3.489179853766    -1.211596389140    -0.577981949847     1.007825032230
         H            3.576003653766    -0.873805789140     0.997161150153     1.007825032230
         H            2.313309853766    -1.802211389140     0.611497050153     1.007825032230
         H            3.588943853766     1.309291610860    -1.135013949847     1.007825032230
         H            3.863457853766     1.625258610860     0.584617050153     1.007825032230
         H            2.532142853766     2.432333610860    -0.259612949847     1.007825032230
         H           -2.863799146234     1.645927610860     0.869522050153     1.007825032230
         H           -1.869210146234     1.640887610860    -0.587131949847     1.007825032230
         H           -3.066931146234    -0.447527389140    -1.375521949847     1.007825032230
         H           -4.088277146234    -0.387485389140     0.071761050153     1.007825032230
         H           -4.188225146234     0.904403610860    -1.142830949847     1.007825032230

  Basis Set: AUG-CC-PVTZ
    Blend: AUG-CC-PVTZ
  Basis Set: (AUG-CC-PVTZ AUX)
    Blend: AUG-CC-PVTZ-JKFIT
	 Reference Energy          =   -1030.5141515101563527 [Eh]
	 Singles Energy            =      -0.0000000000000000 [Eh]
	 Same-Spin Energy          =      -0.3702298225904236 [Eh]
	 Opposite-Spin Energy      =      -1.2683031264392222 [Eh]
	 Correlation Energy        =      -1.6385329490296456 [Eh]
	 Total Energy              =   -1032.1526844591860481 [Eh]

	 ================> DF-SCS-MP2 Energies <==================
	-----------------------------------------------------------
	 SCS Same-Spin Scale       =       0.3333333333333333 [-]
	 SCS Opposite-Spin Scale   =       1.2000000000000000 [-]
	 SCS Same-Spin Energy      =      -0.1234099408634745 [Eh]
	 SCS Opposite-Spin Energy  =      -1.5219637517270665 [Eh]
	 SCS Correlation Energy    =      -1.6453736925905411 [Eh]
	 SCS Total Energy          =   -1032.1595252027468632 [Eh]
	-----------------------------------------------------------

  Dipole Moment: [D]
     X:     0.2202      Y:     1.7510      Z:    -0.8012     Total:     1.9381

*** Psi4 exiting successfully. Buy a developer a beer!
