                               Psi4 1.4a3.dev225

  ==> Input File <==

--------------------------------------------------------------------------
#psi4
#
memory 32 gb

molecule  {
0 1
  S       -0.2843280    -1.0417270    -0.4821980
  S       -1.2930110    -0.0875030     1.0369290
  C        2.0427973     0.2139189     0.0883659
  C        1.0396170     0.1533370    -0.8629480
  C        2.9192610    -1.0021330     0.3722660
  C        3.0446920     1.4546940    -0.1566970
  C       -2.4716130     0.9595520     0.1214340
  C       -3.5526440     0.1784480    -0.6085900
  H        1.6262820     0.5245100     1.1534320
  H        0.5779620     1.1249640    -1.0704080
  H        1.4790150    -0.2072190    -1.8028130
  H        3.4447910    -1.2503440    -0.5572920
  H        3.6685600    -0.8925200     1.1622280
  H        2.2689210    -1.8409590     0.6321870
  H        3.5445550     1.2705440    -1.1143240
  H        3.8190690     1.5865110     0.6053070
  H        2.4877540     2.3935860    -0.2389230
  H       -2.9081880     1.6071800     0.8902120
  H       -1.9135990     1.6021400    -0.5664420
  H       -3.1113200    -0.4862750    -1.3548320
  H       -4.1326660    -0.4262330     0.0924510
  H       -4.2326140     0.8656560    -1.1221410
units angstrom
no_reorient  #important for SAPT in psi4, default
symmetry c1  #important for SAPT in psi4, default
}

set PROPERTIES_ORIGIN ["COM"]
properties('MP2/aug-cc-pvtz', properties = ['dipole'])
--------------------------------------------------------------------------

    Molecular point group: c1
  Charge       = 0
  Multiplicity = 1
  Basis Set: AUG-CC-PVTZ
    Blend: AUG-CC-PVTZ
  Basis Set: (AUG-CC-PVTZ AUX)
    Blend: AUG-CC-PVTZ-JKFIT

    Orbital Energies [Eh]
    ---------------------

    Doubly Occupied:

       1A    -91.968180     2A    -91.967504     3A    -11.262588
       4A    -11.254309     5A    -11.235058     6A    -11.221612
       7A    -11.220125     8A    -11.212224     9A     -8.966981
      10A     -8.966508    11A     -6.648077    12A     -6.647510
      13A     -6.646795    14A     -6.646368    15A     -6.645975
      16A     -6.645533    17A     -1.127050    18A     -1.077932
      19A     -1.008262    20A     -0.943234    21A     -0.926201
      22A     -0.868965    23A     -0.793994    24A     -0.745189
      25A     -0.653687    26A     -0.630460    27A     -0.606509
      28A     -0.592732    29A     -0.587149    30A     -0.551119
      31A     -0.540441    32A     -0.534581    33A     -0.527766
      34A     -0.513006    35A     -0.506026    36A     -0.477232
      37A     -0.457314    38A     -0.427300    39A     -0.419480
      40A     -0.354948    41A     -0.346004

  @DF-RHF Final Energy: -1030.51894644244931

   => Energetics <=

    Nuclear Repulsion Energy =            557.4405536215938355
    One-Electron Energy =               -2525.1751451327868381
    Two-Electron Energy =                 937.2156450687435836
    Total Energy =                      -1030.5189464424493053
  Basis Set: (AUG-CC-PVTZ AUX)
    Blend: AUG-CC-PVTZ-RI
    Molecular point group: c1

    Geometry (in Angstrom), charge = 0, multiplicity = 1:

       Center              X                  Y                   Z               Mass
    ------------   -----------------  -----------------  -----------------  -----------------
         S           -0.234378152806    -0.997126077425    -0.494625263851    31.972071174400
         S           -1.243061152806    -0.042902077425     1.024501736149    31.972071174400
         C            2.092747147194     0.258519822575     0.075938636149    12.000000000000
         C            1.089566847194     0.197937922575    -0.875375263851    12.000000000000
         C            2.969210847194    -0.957532077425     0.359838736149    12.000000000000
         C            3.094641847194     1.499294922575    -0.169124263851    12.000000000000
         C           -2.421663152806     1.004152922575     0.109006736149    12.000000000000
         C           -3.502694152806     0.223048922575    -0.621017263851    12.000000000000
         H            1.676231847194     0.569110922575     1.141004736149     1.007825032230
         H            0.627911847194     1.169564922575    -1.082835263851     1.007825032230
         H            1.528964847194    -0.162618077425    -1.815240263851     1.007825032230
         H            3.494740847194    -1.205743077425    -0.569719263851     1.007825032230
         H            3.718509847194    -0.847919077425     1.149800736149     1.007825032230
         H            2.318870847194    -1.796358077425     0.619759736149     1.007825032230
         H            3.594504847194     1.315144922575    -1.126751263851     1.007825032230
         H            3.869018847194     1.631111922575     0.592879736149     1.007825032230
         H            2.537703847194     2.438186922575    -0.251350263851     1.007825032230
         H           -2.858238152806     1.651780922575     0.877784736149     1.007825032230
         H           -1.863649152806     1.646740922575    -0.578869263851     1.007825032230
         H           -3.061370152806    -0.441674077425    -1.367259263851     1.007825032230
         H           -4.082716152806    -0.381632077425     0.080023736149     1.007825032230
         H           -4.182664152806     0.910256922575    -1.134568263851     1.007825032230

  Basis Set: AUG-CC-PVTZ
    Blend: AUG-CC-PVTZ
  Basis Set: (AUG-CC-PVTZ AUX)
    Blend: AUG-CC-PVTZ-JKFIT
	 Reference Energy          =   -1030.5189464424493053 [Eh]
	 Singles Energy            =      -0.0000000000000000 [Eh]
	 Same-Spin Energy          =      -0.3718836622671353 [Eh]
	 Opposite-Spin Energy      =      -1.2716668764621575 [Eh]
	 Correlation Energy        =      -1.6435505387292928 [Eh]
	 Total Energy              =   -1032.1624969811784922 [Eh]

	 ================> DF-SCS-MP2 Energies <==================
	-----------------------------------------------------------
	 SCS Same-Spin Scale       =       0.3333333333333333 [-]
	 SCS Opposite-Spin Scale   =       1.2000000000000000 [-]
	 SCS Same-Spin Energy      =      -0.1239612207557118 [Eh]
	 SCS Opposite-Spin Energy  =      -1.5260002517545890 [Eh]
	 SCS Correlation Energy    =      -1.6499614725103007 [Eh]
	 SCS Total Energy          =   -1032.1689079149596182 [Eh]
	-----------------------------------------------------------

  Dipole Moment: [D]
     X:     0.0725      Y:     1.7338      Z:    -0.8595     Total:     1.9365

*** Psi4 exiting successfully. Buy a developer a beer!
