                               Psi4 1.4a3.dev225

  ==> Input File <==

--------------------------------------------------------------------------
#psi4
#
memory 32 gb

molecule  {
0 1
  S       -0.2843280    -1.0417270    -0.4821980
  S       -1.2930110    -0.0875030     1.0369290
  C        2.1238360     0.2887940     0.2038120
  C        1.0396170     0.1533370    -0.8629480
  C        2.9192610    -1.0021330     0.3722660
  C        3.0446920     1.4546940    -0.1566970
  C       -2.4716130     0.9595520     0.1214340
  C       -3.5526440     0.1784480    -0.6085900
  H        1.6262820     0.5245100     1.1534320
  H        0.5779620     1.1249640    -1.0704080
  H        1.4790150    -0.2072190    -1.8028130
  H        3.4447910    -1.2503440    -0.5572920
  H        3.6685600    -0.8925200     1.1622280
  H        2.1498942    -1.9944829     0.6797584
  H        3.5445550     1.2705440    -1.1143240
  H        3.8190690     1.5865110     0.6053070
  H        2.4877540     2.3935860    -0.2389230
  H       -2.9081880     1.6071800     0.8902120
  H       -1.9135990     1.6021400    -0.5664420
  H       -3.1113200    -0.4862750    -1.3548320
  H       -4.1326660    -0.4262330     0.0924510
  H       -4.2326140     0.8656560    -1.1221410
units angstrom
no_reorient  #important for SAPT in psi4, default
symmetry c1  #important for SAPT in psi4, default
}

set PROPERTIES_ORIGIN ["COM"]
properties('MP2/aug-cc-pvtz', properties = ['dipole'])
--------------------------------------------------------------------------

    Molecular point group: c1
  Charge       = 0
  Multiplicity = 1
  Basis Set: AUG-CC-PVTZ
    Blend: AUG-CC-PVTZ
  Basis Set: (AUG-CC-PVTZ AUX)
    Blend: AUG-CC-PVTZ-JKFIT

    Orbital Energies [Eh]
    ---------------------

    Doubly Occupied:

       1A    -91.967186     2A    -91.966330     3A    -11.261830
       4A    -11.257968     5A    -11.233344     6A    -11.232016
       7A    -11.221056     8A    -11.219130     9A     -8.966014
      10A     -8.965122    11A     -6.647108    12A     -6.646187
      13A     -6.645843    14A     -6.645038    15A     -6.644964
      16A     -6.644172    17A     -1.110539    18A     -1.076290
      19A     -1.011409    20A     -0.934955    21A     -0.921808
      22A     -0.860560    23A     -0.792254    24A     -0.751350
      25A     -0.643162    26A     -0.629071    27A     -0.600394
      28A     -0.586963    29A     -0.583303    30A     -0.552522
      31A     -0.540581    32A     -0.536647    33A     -0.512381
      34A     -0.497382    35A     -0.491968    36A     -0.473540
      37A     -0.468427    38A     -0.449535    39A     -0.426478
      40A     -0.351884    41A     -0.343487

  @DF-RHF Final Energy: -1030.52756081781763

   => Energetics <=

    Nuclear Repulsion Energy =            555.0751810550019627
    One-Electron Energy =               -2520.5850858699959645
    Two-Electron Energy =                 934.9823439971764856
    Total Energy =                      -1030.5275608178176299
  Basis Set: (AUG-CC-PVTZ AUX)
    Blend: AUG-CC-PVTZ-RI
    Molecular point group: c1

    Geometry (in Angstrom), charge = 0, multiplicity = 1:

       Center              X                  Y                   Z               Mass
    ------------   -----------------  -----------------  -----------------  -----------------
         S           -0.240059493902    -1.002082809623    -0.504177157050    31.972071174400
         S           -1.248742493902    -0.047858809623     1.014949842950    31.972071174400
         C            2.168104506098     0.328438190377     0.181832842950    12.000000000000
         C            1.083885506098     0.192981190377    -0.884927157050    12.000000000000
         C            2.963529506098    -0.962488809623     0.350286842950    12.000000000000
         C            3.088960506098     1.494338190377    -0.178676157050    12.000000000000
         C           -2.427344493902     0.999196190377     0.099454842950    12.000000000000
         C           -3.508375493902     0.218092190377    -0.630569157050    12.000000000000
         H            1.670550506098     0.564154190377     1.131452842950     1.007825032230
         H            0.622230506098     1.164608190377    -1.092387157050     1.007825032230
         H            1.523283506098    -0.167574809623    -1.824792157050     1.007825032230
         H            3.489059506098    -1.210699809623    -0.579271157050     1.007825032230
         H            3.712828506098    -0.852875809623     1.140248842950     1.007825032230
         H            2.194162706098    -1.954838709623     0.657779242950     1.007825032230
         H            3.588823506098     1.310188190377    -1.136303157050     1.007825032230
         H            3.863337506098     1.626155190377     0.583327842950     1.007825032230
         H            2.532022506098     2.433230190377    -0.260902157050     1.007825032230
         H           -2.863919493902     1.646824190377     0.868232842950     1.007825032230
         H           -1.869330493902     1.641784190377    -0.588421157050     1.007825032230
         H           -3.067051493902    -0.446630809623    -1.376811157050     1.007825032230
         H           -4.088397493902    -0.386588809623     0.070471842950     1.007825032230
         H           -4.188345493902     0.905300190377    -1.144120157050     1.007825032230

  Basis Set: AUG-CC-PVTZ
    Blend: AUG-CC-PVTZ
  Basis Set: (AUG-CC-PVTZ AUX)
    Blend: AUG-CC-PVTZ-JKFIT
	 Reference Energy          =   -1030.5275608178176299 [Eh]
	 Singles Energy            =      -0.0000000000000000 [Eh]
	 Same-Spin Energy          =      -0.3703853002702879 [Eh]
	 Opposite-Spin Energy      =      -1.2707930556202431 [Eh]
	 Correlation Energy        =      -1.6411783558905311 [Eh]
	 Total Energy              =   -1032.1687391737082180 [Eh]

	 ================> DF-SCS-MP2 Energies <==================
	-----------------------------------------------------------
	 SCS Same-Spin Scale       =       0.3333333333333333 [-]
	 SCS Opposite-Spin Scale   =       1.2000000000000000 [-]
	 SCS Same-Spin Energy      =      -0.1234617667567626 [Eh]
	 SCS Opposite-Spin Energy  =      -1.5249516667442917 [Eh]
	 SCS Correlation Energy    =      -1.6484134335010543 [Eh]
	 SCS Total Energy          =   -1032.1759742513186211 [Eh]
	-----------------------------------------------------------

  Dipole Moment: [D]
     X:     0.1560      Y:     1.8825      Z:    -0.8965     Total:     2.0909

*** Psi4 exiting successfully. Buy a developer a beer!
