                               Psi4 1.4a3.dev225

  ==> Input File <==

--------------------------------------------------------------------------
#psi4
#
memory 32 gb

molecule  {
0 1
  S       -0.2843280    -1.0417270    -0.4821980
  S       -1.2930110    -0.0875030     1.0369290
  C        2.1238360     0.2887940     0.2038120
  C        1.0396170     0.1533370    -0.8629480
  C        2.9192610    -1.0021330     0.3722660
  C        3.0446920     1.4546940    -0.1566970
  C       -2.4716130     0.9595520     0.1214340
  C       -3.5526440     0.1784480    -0.6085900
  H        1.6262820     0.5245100     1.1534320
  H        0.5779620     1.1249640    -1.0704080
  H        1.4790150    -0.2072190    -1.8028130
  H        3.4447910    -1.2503440    -0.5572920
  H        3.6685600    -0.8925200     1.1622280
  H        2.2689210    -1.8409590     0.6321870
  H        3.5445550     1.2705440    -1.1143240
  H        3.8190690     1.5865110     0.6053070
  H        2.4877540     2.3935860    -0.2389230
  H       -2.9081880     1.6071800     0.8902120
  H       -1.8116126     1.7195837    -0.6921629
  H       -3.1113200    -0.4862750    -1.3548320
  H       -4.1326660    -0.4262330     0.0924510
  H       -4.2326140     0.8656560    -1.1221410
units angstrom
no_reorient  #important for SAPT in psi4, default
symmetry c1  #important for SAPT in psi4, default
}

set PROPERTIES_ORIGIN ["COM"]
properties('MP2/aug-cc-pvtz', properties = ['dipole'])
--------------------------------------------------------------------------

    Molecular point group: c1
  Charge       = 0
  Multiplicity = 1
  Basis Set: AUG-CC-PVTZ
    Blend: AUG-CC-PVTZ
  Basis Set: (AUG-CC-PVTZ AUX)
    Blend: AUG-CC-PVTZ-JKFIT

    Orbital Energies [Eh]
    ---------------------

    Doubly Occupied:

       1A    -91.969858     2A    -91.967544     3A    -11.283887
       4A    -11.257504     5A    -11.230988     6A    -11.223638
       7A    -11.216754     8A    -11.210136     9A     -8.968553
      10A     -8.966322    11A     -6.649618    12A     -6.648408
      13A     -6.647572    14A     -6.647383    15A     -6.646163
      16A     -6.645362    17A     -1.110336    18A     -1.073353
      19A     -1.010550    20A     -0.936014    21A     -0.931139
      22A     -0.856566    23A     -0.788312    24A     -0.747044
      25A     -0.642204    26A     -0.618079    27A     -0.603861
      28A     -0.592526    29A     -0.583492    30A     -0.551522
      31A     -0.541626    32A     -0.535110    33A     -0.509887
      34A     -0.501642    35A     -0.488970    36A     -0.475622
      37A     -0.470865    38A     -0.453081    39A     -0.426237
      40A     -0.352827    41A     -0.344540

  @DF-RHF Final Energy: -1030.52763387578284

   => Energetics <=

    Nuclear Repulsion Energy =            554.9252429103321447
    One-Electron Energy =               -2520.2555565581296833
    Two-Electron Energy =                 934.8026797720145851
    Total Energy =                      -1030.5276338757830672
  Basis Set: (AUG-CC-PVTZ AUX)
    Blend: AUG-CC-PVTZ-RI
    Molecular point group: c1

    Geometry (in Angstrom), charge = 0, multiplicity = 1:

       Center              X                  Y                   Z               Mass
    ------------   -----------------  -----------------  -----------------  -----------------
         S           -0.241543913454    -1.003902744375    -0.503013251553    31.972071174400
         S           -1.250226913454    -0.049678744375     1.016113748447    31.972071174400
         C            2.166620086546     0.326618255625     0.182996748447    12.000000000000
         C            1.082401086546     0.191161255625    -0.883763251553    12.000000000000
         C            2.962045086546    -0.964308744375     0.351450748447    12.000000000000
         C            3.087476086546     1.492518255625    -0.177512251553    12.000000000000
         C           -2.428828913454     0.997376255625     0.100618748447    12.000000000000
         C           -3.509859913454     0.216272255625    -0.629405251553    12.000000000000
         H            1.669066086546     0.562334255625     1.132616748447     1.007825032230
         H            0.620746086546     1.162788255625    -1.091223251553     1.007825032230
         H            1.521799086546    -0.169394744375    -1.823628251553     1.007825032230
         H            3.487575086546    -1.212519744375    -0.578107251553     1.007825032230
         H            3.711344086546    -0.854695744375     1.141412748447     1.007825032230
         H            2.311705086546    -1.803134744375     0.611371748447     1.007825032230
         H            3.587339086546     1.308368255625    -1.135139251553     1.007825032230
         H            3.861853086546     1.624335255625     0.584491748447     1.007825032230
         H            2.530538086546     2.431410255625    -0.259738251553     1.007825032230
         H           -2.865403913454     1.645004255625     0.869396748447     1.007825032230
         H           -1.768828513454     1.757407955625    -0.712978151553     1.007825032230
         H           -3.068535913454    -0.448450744375    -1.375647251553     1.007825032230
         H           -4.089881913454    -0.388408744375     0.071635748447     1.007825032230
         H           -4.189829913454     0.903480255625    -1.142956251553     1.007825032230

  Basis Set: AUG-CC-PVTZ
    Blend: AUG-CC-PVTZ
  Basis Set: (AUG-CC-PVTZ AUX)
    Blend: AUG-CC-PVTZ-JKFIT
	 Reference Energy          =   -1030.5276338757828398 [Eh]
	 Singles Energy            =      -0.0000000000000000 [Eh]
	 Same-Spin Energy          =      -0.3705008752722646 [Eh]
	 Opposite-Spin Energy      =      -1.2708006229374185 [Eh]
	 Correlation Energy        =      -1.6413014982096832 [Eh]
	 Total Energy              =   -1032.1689353739925537 [Eh]

	 ================> DF-SCS-MP2 Energies <==================
	-----------------------------------------------------------
	 SCS Same-Spin Scale       =       0.3333333333333333 [-]
	 SCS Opposite-Spin Scale   =       1.2000000000000000 [-]
	 SCS Same-Spin Energy      =      -0.1235002917574215 [Eh]
	 SCS Opposite-Spin Energy  =      -1.5249607475249021 [Eh]
	 SCS Correlation Energy    =      -1.6484610392823236 [Eh]
	 SCS Total Energy          =   -1032.1760949150650504 [Eh]
	-----------------------------------------------------------

  Dipole Moment: [D]
     X:     0.0932      Y:     1.6437      Z:    -0.7981     Total:     1.8296

*** Psi4 exiting successfully. Buy a developer a beer!
