                               Psi4 1.4a3.dev225

  ==> Input File <==

--------------------------------------------------------------------------
#psi4
#
memory 32 gb

molecule  {
0 1
  S       -0.2843280    -1.0417270    -0.4821980
  S       -1.2930110    -0.0875030     1.0369290
  C        2.1238360     0.2887940     0.2038120
  C        1.0013465     0.3052794    -0.8313700
  C        2.9192610    -1.0021330     0.3722660
  C        3.0446920     1.4546940    -0.1566970
  C       -2.4716130     0.9595520     0.1214340
  C       -3.5526440     0.1784480    -0.6085900
  H        1.6262820     0.5245100     1.1534320
  H        0.5779620     1.1249640    -1.0704080
  H        1.4790150    -0.2072190    -1.8028130
  H        3.4447910    -1.2503440    -0.5572920
  H        3.6685600    -0.8925200     1.1622280
  H        2.2689210    -1.8409590     0.6321870
  H        3.5445550     1.2705440    -1.1143240
  H        3.8190690     1.5865110     0.6053070
  H        2.4877540     2.3935860    -0.2389230
  H       -2.9081880     1.6071800     0.8902120
  H       -1.9135990     1.6021400    -0.5664420
  H       -3.1113200    -0.4862750    -1.3548320
  H       -4.1326660    -0.4262330     0.0924510
  H       -4.2326140     0.8656560    -1.1221410
units angstrom
no_reorient  #important for SAPT in psi4, default
symmetry c1  #important for SAPT in psi4, default
}

set PROPERTIES_ORIGIN ["COM"]
properties('MP2/aug-cc-pvtz', properties = ['dipole'])
--------------------------------------------------------------------------

    Molecular point group: c1
  Charge       = 0
  Multiplicity = 1
  Basis Set: AUG-CC-PVTZ
    Blend: AUG-CC-PVTZ
  Basis Set: (AUG-CC-PVTZ AUX)
    Blend: AUG-CC-PVTZ-JKFIT

    Orbital Energies [Eh]
    ---------------------

    Doubly Occupied:

       1A    -91.967472     2A    -91.964478     3A    -11.261279
       4A    -11.260760     5A    -11.233973     6A    -11.220481
       7A    -11.216844     8A    -11.214012     9A     -8.965434
      10A     -8.963417    11A     -6.646455    12A     -6.645073
      13A     -6.644474    14A     -6.644368    15A     -6.643312
      16A     -6.642471    17A     -1.109342    18A     -1.076050
      19A     -1.007694    20A     -0.940164    21A     -0.929958
      22A     -0.863489    23A     -0.791961    24A     -0.761048
      25A     -0.658999    26A     -0.628315    27A     -0.607223
      28A     -0.591390    29A     -0.583457    30A     -0.546186
      31A     -0.538791    32A     -0.535455    33A     -0.517619
      34A     -0.509829    35A     -0.493003    36A     -0.480050
      37A     -0.462145    38A     -0.444946    39A     -0.428754
      40A     -0.353776    41A     -0.339237

  @DF-RHF Final Energy: -1030.51815754748532

   => Energetics <=

    Nuclear Repulsion Energy =            555.1685796996875979
    One-Electron Energy =               -2520.7071091354355303
    Two-Electron Energy =                 935.0203718882627300
    Total Energy =                      -1030.5181575474853162
  Basis Set: (AUG-CC-PVTZ AUX)
    Blend: AUG-CC-PVTZ-RI
    Molecular point group: c1

    Geometry (in Angstrom), charge = 0, multiplicity = 1:

       Center              X                  Y                   Z               Mass
    ------------   -----------------  -----------------  -----------------  -----------------
         S           -0.237798384528    -1.015264984567    -0.506382983152    31.972071174400
         S           -1.246481384528    -0.061040984567     1.012744016848    31.972071174400
         C            2.170365615472     0.315256015433     0.179627016848    12.000000000000
         C            1.047876115472     0.331741415433    -0.855554983152    12.000000000000
         C            2.965790615472    -0.975670984567     0.348081016848    12.000000000000
         C            3.091221615472     1.481156015433    -0.180881983152    12.000000000000
         C           -2.425083384528     0.986014015433     0.097249016848    12.000000000000
         C           -3.506114384528     0.204910015433    -0.632774983152    12.000000000000
         H            1.672811615472     0.550972015433     1.129247016848     1.007825032230
         H            0.624491615472     1.151426015433    -1.094592983152     1.007825032230
         H            1.525544615472    -0.180756984567    -1.826997983152     1.007825032230
         H            3.491320615472    -1.223881984567    -0.581476983152     1.007825032230
         H            3.715089615472    -0.866057984567     1.138043016848     1.007825032230
         H            2.315450615472    -1.814496984567     0.608002016848     1.007825032230
         H            3.591084615472     1.297006015433    -1.138508983152     1.007825032230
         H            3.865598615472     1.612973015433     0.581122016848     1.007825032230
         H            2.534283615472     2.420048015433    -0.263107983152     1.007825032230
         H           -2.861658384528     1.633642015433     0.866027016848     1.007825032230
         H           -1.867069384528     1.628602015433    -0.590626983152     1.007825032230
         H           -3.064790384528    -0.459812984567    -1.379016983152     1.007825032230
         H           -4.086136384528    -0.399770984567     0.068266016848     1.007825032230
         H           -4.186084384528     0.892118015433    -1.146325983152     1.007825032230

  Basis Set: AUG-CC-PVTZ
    Blend: AUG-CC-PVTZ
  Basis Set: (AUG-CC-PVTZ AUX)
    Blend: AUG-CC-PVTZ-JKFIT
	 Reference Energy          =   -1030.5181575474853162 [Eh]
	 Singles Energy            =      -0.0000000000000000 [Eh]
	 Same-Spin Energy          =      -0.3704533636223085 [Eh]
	 Opposite-Spin Energy      =      -1.2704625548330717 [Eh]
	 Correlation Energy        =      -1.6409159184553803 [Eh]
	 Total Energy              =   -1032.1590734659407644 [Eh]

	 ================> DF-SCS-MP2 Energies <==================
	-----------------------------------------------------------
	 SCS Same-Spin Scale       =       0.3333333333333333 [-]
	 SCS Opposite-Spin Scale   =       1.2000000000000000 [-]
	 SCS Same-Spin Energy      =      -0.1234844545407695 [Eh]
	 SCS Opposite-Spin Energy  =      -1.5245550657996860 [Eh]
	 SCS Correlation Energy    =      -1.6480395203404554 [Eh]
	 SCS Total Energy          =   -1032.1661970678258058 [Eh]
	-----------------------------------------------------------

  Dipole Moment: [D]
     X:     0.2286      Y:     1.7458      Z:    -0.8292     Total:     1.9462

*** Psi4 exiting successfully. Buy a developer a beer!
