                               Psi4 1.4a3.dev225

  ==> Input File <==

--------------------------------------------------------------------------
#psi4
#
memory 32 gb

molecule  {
0 1
  S       -0.2843280    -1.0417270    -0.4821980
  S       -1.2930110    -0.0875030     1.0369290
  C        2.1238360     0.2887940     0.2038120
  C        1.0396170     0.1533370    -0.8629480
  C        2.9192610    -1.0021330     0.3722660
  C        3.0446920     1.4546940    -0.1566970
  C       -2.4716130     0.9595520     0.1214340
  C       -3.5787154     0.1347155    -0.5154769
  H        1.6262820     0.5245100     1.1534320
  H        0.5779620     1.1249640    -1.0704080
  H        1.4790150    -0.2072190    -1.8028130
  H        3.4447910    -1.2503440    -0.5572920
  H        3.6685600    -0.8925200     1.1622280
  H        2.2689210    -1.8409590     0.6321870
  H        3.5445550     1.2705440    -1.1143240
  H        3.8190690     1.5865110     0.6053070
  H        2.4877540     2.3935860    -0.2389230
  H       -2.9081880     1.6071800     0.8902120
  H       -1.9135990     1.6021400    -0.5664420
  H       -3.1113200    -0.4862750    -1.3548320
  H       -4.1326660    -0.4262330     0.0924510
  H       -4.2326140     0.8656560    -1.1221410
units angstrom
no_reorient  #important for SAPT in psi4, default
symmetry c1  #important for SAPT in psi4, default
}

set PROPERTIES_ORIGIN ["COM"]
properties('MP2/aug-cc-pvtz', properties = ['dipole'])
--------------------------------------------------------------------------

    Molecular point group: c1
  Charge       = 0
  Multiplicity = 1
  Basis Set: AUG-CC-PVTZ
    Blend: AUG-CC-PVTZ
  Basis Set: (AUG-CC-PVTZ AUX)
    Blend: AUG-CC-PVTZ-JKFIT

    Orbital Energies [Eh]
    ---------------------

    Doubly Occupied:

       1A    -91.966590     2A    -91.966257     3A    -11.263728
       4A    -11.257431     5A    -11.230718     6A    -11.223630
       7A    -11.216730     8A    -11.209931     9A     -8.965416
      10A     -8.965190    11A     -6.646558    12A     -6.646189
      13A     -6.645222    14A     -6.645087    15A     -6.644411
      16A     -6.644274    17A     -1.110637    18A     -1.077538
      19A     -1.011924    20A     -0.934797    21A     -0.930987
      22A     -0.862209    23A     -0.794816    24A     -0.752826
      25A     -0.644606    26A     -0.635413    27A     -0.604394
      28A     -0.588097    29A     -0.577290    30A     -0.562430
      31A     -0.547340    32A     -0.535334    33A     -0.518673
      34A     -0.505668    35A     -0.486039    36A     -0.473818
      37A     -0.468978    38A     -0.448078    39A     -0.428285
      40A     -0.353139    41A     -0.342608

  @DF-RHF Final Energy: -1030.53444717470074

   => Energetics <=

    Nuclear Repulsion Energy =            555.8466401504991836
    One-Electron Energy =               -2522.0956067587617326
    Two-Electron Energy =                 935.7145194335615770
    Total Energy =                      -1030.5344471747007447
  Basis Set: (AUG-CC-PVTZ AUX)
    Blend: AUG-CC-PVTZ-RI
    Molecular point group: c1

    Geometry (in Angstrom), charge = 0, multiplicity = 1:

       Center              X                  Y                   Z               Mass
    ------------   -----------------  -----------------  -----------------  -----------------
         S           -0.238773963317    -0.999616593939    -0.511304029653    31.972071174400
         S           -1.247456963317    -0.045392593939     1.007822970347    31.972071174400
         C            2.169390036683     0.330904406061     0.174705970347    12.000000000000
         C            1.085171036683     0.195447406061    -0.892054029653    12.000000000000
         C            2.964815036683    -0.960022593939     0.343159970347    12.000000000000
         C            3.090246036683     1.496804406061    -0.185803029653    12.000000000000
         C           -2.426058963317     1.001662406061     0.092327970347    12.000000000000
         C           -3.533161363317     0.176825906061    -0.544582929653    12.000000000000
         H            1.671836036683     0.566620406061     1.124325970347     1.007825032230
         H            0.623516036683     1.167074406061    -1.099514029653     1.007825032230
         H            1.524569036683    -0.165108593939    -1.831919029653     1.007825032230
         H            3.490345036683    -1.208233593939    -0.586398029653     1.007825032230
         H            3.714114036683    -0.850409593939     1.133121970347     1.007825032230
         H            2.314475036683    -1.798848593939     0.603080970347     1.007825032230
         H            3.590109036683     1.312654406061    -1.143430029653     1.007825032230
         H            3.864623036683     1.628621406061     0.576200970347     1.007825032230
         H            2.533308036683     2.435696406061    -0.268029029653     1.007825032230
         H           -2.862633963317     1.649290406061     0.861105970347     1.007825032230
         H           -1.868044963317     1.644250406061    -0.595548029653     1.007825032230
         H           -3.065765963317    -0.444164593939    -1.383938029653     1.007825032230
         H           -4.087111963317    -0.384122593939     0.063344970347     1.007825032230
         H           -4.187059963317     0.907766406061    -1.151247029653     1.007825032230

  Basis Set: AUG-CC-PVTZ
    Blend: AUG-CC-PVTZ
  Basis Set: (AUG-CC-PVTZ AUX)
    Blend: AUG-CC-PVTZ-JKFIT
	 Reference Energy          =   -1030.5344471747007447 [Eh]
	 Singles Energy            =      -0.0000000000000000 [Eh]
	 Same-Spin Energy          =      -0.3703899025402025 [Eh]
	 Opposite-Spin Energy      =      -1.2695227992805036 [Eh]
	 Correlation Energy        =      -1.6399127018207060 [Eh]
	 Total Energy              =   -1032.1743598765215211 [Eh]

	 ================> DF-SCS-MP2 Energies <==================
	-----------------------------------------------------------
	 SCS Same-Spin Scale       =       0.3333333333333333 [-]
	 SCS Opposite-Spin Scale   =       1.2000000000000000 [-]
	 SCS Same-Spin Energy      =      -0.1234633008467342 [Eh]
	 SCS Opposite-Spin Energy  =      -1.5234273591366043 [Eh]
	 SCS Correlation Energy    =      -1.6468906599833384 [Eh]
	 SCS Total Energy          =   -1032.1813378346839727 [Eh]
	-----------------------------------------------------------

  Dipole Moment: [D]
     X:     0.0902      Y:     1.7604      Z:    -0.8366     Total:     1.9511

*** Psi4 exiting successfully. Buy a developer a beer!
