                               Psi4 1.4a3.dev225

  ==> Input File <==

--------------------------------------------------------------------------
#psi4
#
memory 32 gb

molecule  {
0 1
  S       -0.2843280    -1.0417270    -0.4821980
  S       -1.2930110    -0.0875030     1.0369290
  C        2.1238360     0.2887940     0.2038120
  C        1.0396170     0.1533370    -0.8629480
  C        2.9192610    -1.0021330     0.3722660
  C        3.0446920     1.4546940    -0.1566970
  C       -2.4716130     0.9595520     0.1214340
  C       -3.5897354     0.1143436    -0.4677278
  H        1.6262820     0.5245100     1.1534320
  H        0.5779620     1.1249640    -1.0704080
  H        1.4790150    -0.2072190    -1.8028130
  H        3.4447910    -1.2503440    -0.5572920
  H        3.6685600    -0.8925200     1.1622280
  H        2.2689210    -1.8409590     0.6321870
  H        3.5445550     1.2705440    -1.1143240
  H        3.8190690     1.5865110     0.6053070
  H        2.4877540     2.3935860    -0.2389230
  H       -2.9081880     1.6071800     0.8902120
  H       -1.9135990     1.6021400    -0.5664420
  H       -3.1113200    -0.4862750    -1.3548320
  H       -4.1326660    -0.4262330     0.0924510
  H       -4.2326140     0.8656560    -1.1221410
units angstrom
no_reorient  #important for SAPT in psi4, default
symmetry c1  #important for SAPT in psi4, default
}

set PROPERTIES_ORIGIN ["COM"]
properties('MP2/aug-cc-pvtz', properties = ['dipole'])
--------------------------------------------------------------------------

    Molecular point group: c1
  Charge       = 0
  Multiplicity = 1
  Basis Set: AUG-CC-PVTZ
    Blend: AUG-CC-PVTZ
  Basis Set: (AUG-CC-PVTZ AUX)
    Blend: AUG-CC-PVTZ-JKFIT

    Orbital Energies [Eh]
    ---------------------

    Doubly Occupied:

       1A    -91.966540     2A    -91.965807     3A    -11.265253
       4A    -11.257467     5A    -11.230687     6A    -11.226169
       7A    -11.216743     8A    -11.209922     9A     -8.965325
      10A     -8.964856    11A     -6.646438    12A     -6.645874
      13A     -6.645154    14A     -6.644730    15A     -6.644350
      16A     -6.643907    17A     -1.110770    18A     -1.078421
      19A     -1.012410    20A     -0.935357    21A     -0.931009
      22A     -0.864201    23A     -0.796092    24A     -0.753689
      25A     -0.645771    26A     -0.638169    27A     -0.604332
      28A     -0.588648    29A     -0.576516    30A     -0.570431
      31A     -0.548244    32A     -0.535471    33A     -0.516567
      34A     -0.503473    35A     -0.483217    36A     -0.473020
      37A     -0.466497    38A     -0.444240    39A     -0.428083
      40A     -0.353377    41A     -0.341873

  @DF-RHF Final Energy: -1030.51611517477681

   => Energetics <=

    Nuclear Repulsion Energy =            555.9323831664793261
    One-Electron Energy =               -2522.2187996684501741
    Two-Electron Energy =                 935.7703013271941472
    Total Energy =                      -1030.5161151747768145
  Basis Set: (AUG-CC-PVTZ AUX)
    Blend: AUG-CC-PVTZ-RI
    Molecular point group: c1

    Geometry (in Angstrom), charge = 0, multiplicity = 1:

       Center              X                  Y                   Z               Mass
    ------------   -----------------  -----------------  -----------------  -----------------
         S           -0.237892678775    -0.997987425104    -0.515122590792    31.972071174400
         S           -1.246575678775    -0.043763425104     1.004004409208    31.972071174400
         C            2.170271321225     0.332533574896     0.170887409208    12.000000000000
         C            1.086052321225     0.197076574896    -0.895872590792    12.000000000000
         C            2.965696321225    -0.958393425104     0.339341409208    12.000000000000
         C            3.091127321225     1.498433574896    -0.189621590792    12.000000000000
         C           -2.425177678775     1.003291574896     0.088509409208    12.000000000000
         C           -3.543300078775     0.158083174896    -0.500652390792    12.000000000000
         H            1.672717321225     0.568249574896     1.120507409208     1.007825032230
         H            0.624397321225     1.168703574896    -1.103332590792     1.007825032230
         H            1.525450321225    -0.163479425104    -1.835737590792     1.007825032230
         H            3.491226321225    -1.206604425104    -0.590216590792     1.007825032230
         H            3.714995321225    -0.848780425104     1.129303409208     1.007825032230
         H            2.315356321225    -1.797219425104     0.599262409208     1.007825032230
         H            3.590990321225     1.314283574896    -1.147248590792     1.007825032230
         H            3.865504321225     1.630250574896     0.572382409208     1.007825032230
         H            2.534189321225     2.437325574896    -0.271847590792     1.007825032230
         H           -2.861752678775     1.650919574896     0.857287409208     1.007825032230
         H           -1.867163678775     1.645879574896    -0.599366590792     1.007825032230
         H           -3.064884678775    -0.442535425104    -1.387756590792     1.007825032230
         H           -4.086230678775    -0.382493425104     0.059526409208     1.007825032230
         H           -4.186178678775     0.909395574896    -1.155065590792     1.007825032230

  Basis Set: AUG-CC-PVTZ
    Blend: AUG-CC-PVTZ
  Basis Set: (AUG-CC-PVTZ AUX)
    Blend: AUG-CC-PVTZ-JKFIT
	 Reference Energy          =   -1030.5161151747768145 [Eh]
	 Singles Energy            =      -0.0000000000000000 [Eh]
	 Same-Spin Energy          =      -0.3706886418592580 [Eh]
	 Opposite-Spin Energy      =      -1.2703261617453667 [Eh]
	 Correlation Energy        =      -1.6410148036046248 [Eh]
	 Total Energy              =   -1032.1571299783813629 [Eh]

	 ================> DF-SCS-MP2 Energies <==================
	-----------------------------------------------------------
	 SCS Same-Spin Scale       =       0.3333333333333333 [-]
	 SCS Opposite-Spin Scale   =       1.2000000000000000 [-]
	 SCS Same-Spin Energy      =      -0.1235628806197527 [Eh]
	 SCS Opposite-Spin Energy  =      -1.5243913940944400 [Eh]
	 SCS Correlation Energy    =      -1.6479542747141926 [Eh]
	 SCS Total Energy          =   -1032.1640694494910804 [Eh]
	-----------------------------------------------------------

  Dipole Moment: [D]
     X:     0.0966      Y:     1.7630      Z:    -0.8226     Total:     1.9479

*** Psi4 exiting successfully. Buy a developer a beer!
