                               Psi4 1.4a3.dev225

  ==> Input File <==

--------------------------------------------------------------------------
#psi4
#
memory 32 gb

molecule  {
0 1
  S       -0.2843280    -1.0417270    -0.4821980
  S       -1.2930110    -0.0875030     1.0369290
  C        2.1238360     0.2887940     0.2038120
  C        1.0396170     0.1533370    -0.8629480
  C        2.9192610    -1.0021330     0.3722660
  C        3.0446920     1.4546940    -0.1566970
  C       -2.4716130     0.9595520     0.1214340
  C       -3.5452977     0.1899845    -0.6313299
  H        1.6262820     0.5245100     1.1534320
  H        0.5779620     1.1249640    -1.0704080
  H        1.4790150    -0.2072190    -1.8028130
  H        3.4447910    -1.2503440    -0.5572920
  H        3.6685600    -0.8925200     1.1622280
  H        2.2689210    -1.8409590     0.6321870
  H        3.5445550     1.2705440    -1.1143240
  H        3.8190690     1.5865110     0.6053070
  H        2.4877540     2.3935860    -0.2389230
  H       -2.9081880     1.6071800     0.8902120
  H       -1.9135990     1.6021400    -0.5664420
  H       -3.1113200    -0.4862750    -1.3548320
  H       -4.1326660    -0.4262330     0.0924510
  H       -4.2326140     0.8656560    -1.1221410
units angstrom
no_reorient  #important for SAPT in psi4, default
symmetry c1  #important for SAPT in psi4, default
}

set PROPERTIES_ORIGIN ["COM"]
properties('MP2/aug-cc-pvtz', properties = ['dipole'])
--------------------------------------------------------------------------

    Molecular point group: c1
  Charge       = 0
  Multiplicity = 1
  Basis Set: AUG-CC-PVTZ
    Blend: AUG-CC-PVTZ
  Basis Set: (AUG-CC-PVTZ AUX)
    Blend: AUG-CC-PVTZ-JKFIT

    Orbital Energies [Eh]
    ---------------------

    Doubly Occupied:

       1A    -91.967875     2A    -91.967120     3A    -11.261973
       4A    -11.257626     5A    -11.231015     6A    -11.221277
       7A    -11.216880     8A    -11.210138     9A     -8.966674
      10A     -8.965895    11A     -6.647773    12A     -6.646961
      13A     -6.646505    14A     -6.645756    15A     -6.645687
      16A     -6.644955    17A     -1.110727    18A     -1.076445
      19A     -1.011790    20A     -0.935366    21A     -0.931178
      22A     -0.861048    23A     -0.793512    24A     -0.751863
      25A     -0.643443    26A     -0.628820    27A     -0.605307
      28A     -0.594326    29A     -0.586160    30A     -0.551090
      31A     -0.541731    32A     -0.535196    33A     -0.509841
      34A     -0.506554    35A     -0.493765    36A     -0.475787
      37A     -0.472061    38A     -0.453418    39A     -0.428793
      40A     -0.352870    41A     -0.344477

  @DF-RHF Final Energy: -1030.54735451510351

   => Energetics <=

    Nuclear Repulsion Energy =            555.6995299114712452
    One-Electron Energy =               -2521.8144113846865366
    Two-Electron Energy =                 935.5675269581117846
    Total Energy =                      -1030.5473545151035069
  Basis Set: (AUG-CC-PVTZ AUX)
    Blend: AUG-CC-PVTZ-RI
    Molecular point group: c1

    Geometry (in Angstrom), charge = 0, multiplicity = 1:

       Center              X                  Y                   Z               Mass
    ------------   -----------------  -----------------  -----------------  -----------------
         S           -0.241446422705    -1.004036531814    -0.502039106051    31.972071174400
         S           -1.250129422705    -0.049812531814     1.017087893949    31.972071174400
         C            2.166717577295     0.326484468186     0.183970893949    12.000000000000
         C            1.082498577295     0.191027468186    -0.882789106051    12.000000000000
         C            2.962142577295    -0.964442531814     0.352424893949    12.000000000000
         C            3.087573577295     1.492384468186    -0.176538106051    12.000000000000
         C           -2.428731422705     0.997242468186     0.101592893949    12.000000000000
         C           -3.502416122705     0.227674968186    -0.651171006051    12.000000000000
         H            1.669163577295     0.562200468186     1.133590893949     1.007825032230
         H            0.620843577295     1.162654468186    -1.090249106051     1.007825032230
         H            1.521896577295    -0.169528531814    -1.822654106051     1.007825032230
         H            3.487672577295    -1.212653531814    -0.577133106051     1.007825032230
         H            3.711441577295    -0.854829531814     1.142386893949     1.007825032230
         H            2.311802577295    -1.803268531814     0.612345893949     1.007825032230
         H            3.587436577295     1.308234468186    -1.134165106051     1.007825032230
         H            3.861950577295     1.624201468186     0.585465893949     1.007825032230
         H            2.530635577295     2.431276468186    -0.258764106051     1.007825032230
         H           -2.865306422705     1.644870468186     0.870370893949     1.007825032230
         H           -1.870717422705     1.639830468186    -0.586283106051     1.007825032230
         H           -3.068438422705    -0.448584531814    -1.374673106051     1.007825032230
         H           -4.089784422705    -0.388542531814     0.072609893949     1.007825032230
         H           -4.189732422705     0.903346468186    -1.141982106051     1.007825032230

  Basis Set: AUG-CC-PVTZ
    Blend: AUG-CC-PVTZ
  Basis Set: (AUG-CC-PVTZ AUX)
    Blend: AUG-CC-PVTZ-JKFIT
	 Reference Energy          =   -1030.5473545151035069 [Eh]
	 Singles Energy            =      -0.0000000000000000 [Eh]
	 Same-Spin Energy          =      -0.3700915753720073 [Eh]
	 Opposite-Spin Energy      =      -1.2689233378492035 [Eh]
	 Correlation Energy        =      -1.6390149132212108 [Eh]
	 Total Energy              =   -1032.1863694283247241 [Eh]

	 ================> DF-SCS-MP2 Energies <==================
	-----------------------------------------------------------
	 SCS Same-Spin Scale       =       0.3333333333333333 [-]
	 SCS Opposite-Spin Scale   =       1.2000000000000000 [-]
	 SCS Same-Spin Energy      =      -0.1233638584573358 [Eh]
	 SCS Opposite-Spin Energy  =      -1.5227080054190443 [Eh]
	 SCS Correlation Energy    =      -1.6460718638763800 [Eh]
	 SCS Total Energy          =   -1032.1934263789798933 [Eh]
	-----------------------------------------------------------

  Dipole Moment: [D]
     X:     0.1312      Y:     1.7716      Z:    -0.8680     Total:     1.9772

*** Psi4 exiting successfully. Buy a developer a beer!
