                               Psi4 1.4a3.dev225

  ==> Input File <==

--------------------------------------------------------------------------
#psi4
#
memory 32 gb

molecule  {
0 1
  S       -0.2843280    -1.0417270    -0.4821980
  S       -1.2930110    -0.0875030     1.0369290
  C        2.1238360     0.2887940     0.2038120
  C        1.0396170     0.1533370    -0.8629480
  C        2.9192610    -1.0021330     0.3722660
  C        3.0446920     1.4546940    -0.1566970
  C       -2.4716130     0.9595520     0.1214340
  C       -3.5663466     0.1560923    -0.5624500
  H        1.6262820     0.5245100     1.1534320
  H        0.5779620     1.1249640    -1.0704080
  H        1.4790150    -0.2072190    -1.8028130
  H        3.4447910    -1.2503440    -0.5572920
  H        3.6685600    -0.8925200     1.1622280
  H        2.2689210    -1.8409590     0.6321870
  H        3.5445550     1.2705440    -1.1143240
  H        3.8190690     1.5865110     0.6053070
  H        2.4877540     2.3935860    -0.2389230
  H       -2.9081880     1.6071800     0.8902120
  H       -1.9135990     1.6021400    -0.5664420
  H       -3.1113200    -0.4862750    -1.3548320
  H       -4.1326660    -0.4262330     0.0924510
  H       -4.2326140     0.8656560    -1.1221410
units angstrom
no_reorient  #important for SAPT in psi4, default
symmetry c1  #important for SAPT in psi4, default
}

set PROPERTIES_ORIGIN ["COM"]
properties('MP2/aug-cc-pvtz', properties = ['dipole'])
--------------------------------------------------------------------------

    Molecular point group: c1
  Charge       = 0
  Multiplicity = 1
  Basis Set: AUG-CC-PVTZ
    Blend: AUG-CC-PVTZ
  Basis Set: (AUG-CC-PVTZ AUX)
    Blend: AUG-CC-PVTZ-JKFIT

    Orbital Energies [Eh]
    ---------------------

    Doubly Occupied:

       1A    -91.966823     2A    -91.966735     3A    -11.262681
       4A    -11.257461     5A    -11.230800     6A    -11.221995
       7A    -11.216759     8A    -11.209983     9A     -8.965764
      10A     -8.965479    11A     -6.646895    12A     -6.646498
      13A     -6.645585    14A     -6.645359    15A     -6.644759
      16A     -6.644563    17A     -1.110604    18A     -1.076912
      19A     -1.011691    20A     -0.934738    21A     -0.931022
      22A     -0.861191    23A     -0.793985    24A     -0.752221
      25A     -0.643921    26A     -0.632438    27A     -0.604586
      28A     -0.588579    29A     -0.582393    30A     -0.553860
      31A     -0.544024    32A     -0.535039    33A     -0.519449
      34A     -0.507218    35A     -0.489449    36A     -0.474649
      37A     -0.470667    38A     -0.450735    39A     -0.428487
      40A     -0.352979    41A     -0.343345

  @DF-RHF Final Energy: -1030.54482150372587

   => Energetics <=

    Nuclear Repulsion Energy =            555.7774857832393991
    One-Electron Energy =               -2521.9799758245799239
    Two-Electron Energy =                 935.6576685376146543
    Total Energy =                      -1030.5448215037258706
  Basis Set: (AUG-CC-PVTZ AUX)
    Blend: AUG-CC-PVTZ-RI
    Molecular point group: c1

    Geometry (in Angstrom), charge = 0, multiplicity = 1:

       Center              X                  Y                   Z               Mass
    ------------   -----------------  -----------------  -----------------  -----------------
         S           -0.239763113249    -1.001326126009    -0.507547526301    31.972071174400
         S           -1.248446113249    -0.047102126009     1.011579473699    31.972071174400
         C            2.168400886751     0.329194873991     0.178462473699    12.000000000000
         C            1.084181886751     0.193737873991    -0.888297526301    12.000000000000
         C            2.963825886751    -0.961732126009     0.346916473699    12.000000000000
         C            3.089256886751     1.495094873991    -0.182046526301    12.000000000000
         C           -2.427048113249     0.999952873991     0.096084473699    12.000000000000
         C           -3.521781713249     0.196493173991    -0.587799526301    12.000000000000
         H            1.670846886751     0.564910873991     1.128082473699     1.007825032230
         H            0.622526886751     1.165364873991    -1.095757526301     1.007825032230
         H            1.523579886751    -0.166818126009    -1.828162526301     1.007825032230
         H            3.489355886751    -1.209943126009    -0.582641526301     1.007825032230
         H            3.713124886751    -0.852119126009     1.136878473699     1.007825032230
         H            2.313485886751    -1.800558126009     0.606837473699     1.007825032230
         H            3.589119886751     1.310944873991    -1.139673526301     1.007825032230
         H            3.863633886751     1.626911873991     0.579957473699     1.007825032230
         H            2.532318886751     2.433986873991    -0.264272526301     1.007825032230
         H           -2.863623113249     1.647580873991     0.864862473699     1.007825032230
         H           -1.869034113249     1.642540873991    -0.591791526301     1.007825032230
         H           -3.066755113249    -0.445874126009    -1.380181526301     1.007825032230
         H           -4.088101113249    -0.385832126009     0.067101473699     1.007825032230
         H           -4.188049113249     0.906056873991    -1.147490526301     1.007825032230

  Basis Set: AUG-CC-PVTZ
    Blend: AUG-CC-PVTZ
  Basis Set: (AUG-CC-PVTZ AUX)
    Blend: AUG-CC-PVTZ-JKFIT
	 Reference Energy          =   -1030.5448215037258706 [Eh]
	 Singles Energy            =      -0.0000000000000000 [Eh]
	 Same-Spin Energy          =      -0.3701961661831008 [Eh]
	 Opposite-Spin Energy      =      -1.2690555989922840 [Eh]
	 Correlation Energy        =      -1.6392517651753848 [Eh]
	 Total Energy              =   -1032.1840732689013294 [Eh]

	 ================> DF-SCS-MP2 Energies <==================
	-----------------------------------------------------------
	 SCS Same-Spin Scale       =       0.3333333333333333 [-]
	 SCS Opposite-Spin Scale   =       1.2000000000000000 [-]
	 SCS Same-Spin Energy      =      -0.1233987220610336 [Eh]
	 SCS Opposite-Spin Energy  =      -1.5228667187907408 [Eh]
	 SCS Correlation Energy    =      -1.6462654408517743 [Eh]
	 SCS Total Energy          =   -1032.1910869445775916 [Eh]
	-----------------------------------------------------------

  Dipole Moment: [D]
     X:     0.0972      Y:     1.7618      Z:    -0.8495     Total:     1.9583

*** Psi4 exiting successfully. Buy a developer a beer!
