                               Psi4 1.4a3.dev225

  ==> Input File <==

--------------------------------------------------------------------------
#psi4
#
memory 32 gb

molecule  {
0 1
  S       -0.2843280    -1.0417270    -0.4821980
  S       -1.2930110    -0.0875030     1.0369290
  C        1.9935827     0.2031950     0.2385717
  C        1.0396170     0.1533370    -0.8629480
  C        2.9192610    -1.0021330     0.3722660
  C        3.0446920     1.4546940    -0.1566970
  C       -2.4716130     0.9595520     0.1214340
  C       -3.5526440     0.1784480    -0.6085900
  H        1.6262820     0.5245100     1.1534320
  H        0.5779620     1.1249640    -1.0704080
  H        1.4790150    -0.2072190    -1.8028130
  H        3.4447910    -1.2503440    -0.5572920
  H        3.6685600    -0.8925200     1.1622280
  H        2.2689210    -1.8409590     0.6321870
  H        3.5445550     1.2705440    -1.1143240
  H        3.8190690     1.5865110     0.6053070
  H        2.4877540     2.3935860    -0.2389230
  H       -2.9081880     1.6071800     0.8902120
  H       -1.9135990     1.6021400    -0.5664420
  H       -3.1113200    -0.4862750    -1.3548320
  H       -4.1326660    -0.4262330     0.0924510
  H       -4.2326140     0.8656560    -1.1221410
units angstrom
no_reorient  #important for SAPT in psi4, default
symmetry c1  #important for SAPT in psi4, default
}

set PROPERTIES_ORIGIN ["COM"]
properties('MP2/aug-cc-pvtz', properties = ['dipole'])
--------------------------------------------------------------------------

    Molecular point group: c1
  Charge       = 0
  Multiplicity = 1
  Basis Set: AUG-CC-PVTZ
    Blend: AUG-CC-PVTZ
  Basis Set: (AUG-CC-PVTZ AUX)
    Blend: AUG-CC-PVTZ-JKFIT

    Orbital Energies [Eh]
    ---------------------

    Doubly Occupied:

       1A    -91.967805     2A    -91.964343     3A    -11.262386
       4A    -11.258625     5A    -11.231979     6A    -11.221254
       7A    -11.218575     8A    -11.211805     9A     -8.966631
      10A     -8.963637    11A     -6.647709    12A     -6.646490
      13A     -6.645661    14A     -6.644666    15A     -6.643506
      16A     -6.642670    17A     -1.116184    18A     -1.074804
      19A     -1.006329    20A     -0.938263    21A     -0.919827
      22A     -0.863301    23A     -0.802235    24A     -0.758264
      25A     -0.649157    26A     -0.629233    27A     -0.603292
      28A     -0.588095    29A     -0.583761    30A     -0.550547
      31A     -0.539374    32A     -0.535229    33A     -0.519935
      34A     -0.511024    35A     -0.503917    36A     -0.489660
      37A     -0.471197    38A     -0.433475    39A     -0.411212
      40A     -0.354133    41A     -0.342177

  @DF-RHF Final Energy: -1030.52658257884718

   => Energetics <=

    Nuclear Repulsion Energy =            556.9177757540232960
    One-Electron Energy =               -2524.2239733522924325
    Two-Electron Energy =                 936.7796150194218399
    Total Energy =                      -1030.5265825788474103
  Basis Set: (AUG-CC-PVTZ AUX)
    Blend: AUG-CC-PVTZ-RI
    Molecular point group: c1

    Geometry (in Angstrom), charge = 0, multiplicity = 1:

       Center              X                  Y                   Z               Mass
    ------------   -----------------  -----------------  -----------------  -----------------
         S           -0.230442393619    -0.996268472406    -0.506637428073    31.972071174400
         S           -1.239125393619    -0.042044472406     1.012489571927    31.972071174400
         C            2.047468306381     0.248653527594     0.214132271927    12.000000000000
         C            1.093502606381     0.198795527594    -0.887387428073    12.000000000000
         C            2.973146606381    -0.956674472406     0.347826571927    12.000000000000
         C            3.098577606381     1.500152527594    -0.181136428073    12.000000000000
         C           -2.417727393619     1.005010527594     0.096994571927    12.000000000000
         C           -3.498758393619     0.223906527594    -0.633029428073    12.000000000000
         H            1.680167606381     0.569968527594     1.128992571927     1.007825032230
         H            0.631847606381     1.170422527594    -1.094847428073     1.007825032230
         H            1.532900606381    -0.161760472406    -1.827252428073     1.007825032230
         H            3.498676606381    -1.204885472406    -0.581731428073     1.007825032230
         H            3.722445606381    -0.847061472406     1.137788571927     1.007825032230
         H            2.322806606381    -1.795500472406     0.607747571927     1.007825032230
         H            3.598440606381     1.316002527594    -1.138763428073     1.007825032230
         H            3.872954606381     1.631969527594     0.580867571927     1.007825032230
         H            2.541639606381     2.439044527594    -0.263362428073     1.007825032230
         H           -2.854302393619     1.652638527594     0.865772571927     1.007825032230
         H           -1.859713393619     1.647598527594    -0.590881428073     1.007825032230
         H           -3.057434393619    -0.440816472406    -1.379271428073     1.007825032230
         H           -4.078780393619    -0.380774472406     0.068011571927     1.007825032230
         H           -4.178728393619     0.911114527594    -1.146580428073     1.007825032230

  Basis Set: AUG-CC-PVTZ
    Blend: AUG-CC-PVTZ
  Basis Set: (AUG-CC-PVTZ AUX)
    Blend: AUG-CC-PVTZ-JKFIT
	 Reference Energy          =   -1030.5265825788471830 [Eh]
	 Singles Energy            =      -0.0000000000000000 [Eh]
	 Same-Spin Energy          =      -0.3708220233781666 [Eh]
	 Opposite-Spin Energy      =      -1.2704923671116215 [Eh]
	 Correlation Energy        =      -1.6413143904897880 [Eh]
	 Total Energy              =   -1032.1678969693368799 [Eh]

	 ================> DF-SCS-MP2 Energies <==================
	-----------------------------------------------------------
	 SCS Same-Spin Scale       =       0.3333333333333333 [-]
	 SCS Opposite-Spin Scale   =       1.2000000000000000 [-]
	 SCS Same-Spin Energy      =      -0.1236073411260555 [Eh]
	 SCS Opposite-Spin Energy  =      -1.5245908405339457 [Eh]
	 SCS Correlation Energy    =      -1.6481981816600011 [Eh]
	 SCS Total Energy          =   -1032.1747807605072467 [Eh]
	-----------------------------------------------------------

  Dipole Moment: [D]
     X:     0.1195      Y:     1.7230      Z:    -0.8701     Total:     1.9339

*** Psi4 exiting successfully. Buy a developer a beer!
