                               Psi4 1.4a3.dev225

  ==> Input File <==

--------------------------------------------------------------------------
#psi4
#
memory 32 gb

molecule  {
0 1
  S       -0.2843280    -1.0417270    -0.4821980
  S       -1.2930110    -0.0875030     1.0369290
  C        2.1238360     0.2887940     0.2038120
  C        1.0396170     0.1533370    -0.8629480
  C        2.9192610    -1.0021330     0.3722660
  C        3.0446920     1.4546940    -0.1566970
  C       -2.4716130     0.9595520     0.1214340
  C       -3.5526440     0.1784480    -0.6085900
  H        1.6262820     0.5245100     1.1534320
  H        0.5779620     1.1249640    -1.0704080
  H        1.4790150    -0.2072190    -1.8028130
  H        3.4447910    -1.2503440    -0.5572920
  H        3.6685600    -0.8925200     1.1622280
  H        2.2689210    -1.8409590     0.6321870
  H        3.5445550     1.2705440    -1.1143240
  H        3.8190690     1.5865110     0.6053070
  H        2.4877540     2.3935860    -0.2389230
  H       -2.9081880     1.6071800     0.8902120
  H       -1.9135990     1.6021400    -0.5664420
  H       -3.1113200    -0.4862750    -1.3548320
  H       -4.1326660    -0.4262330     0.0924510
  H       -4.2947292     0.9284324    -1.1690539
units angstrom
no_reorient  #important for SAPT in psi4, default
symmetry c1  #important for SAPT in psi4, default
}

set PROPERTIES_ORIGIN ["COM"]
properties('MP2/aug-cc-pvtz', properties = ['dipole'])
--------------------------------------------------------------------------

    Molecular point group: c1
  Charge       = 0
  Multiplicity = 1
  Basis Set: AUG-CC-PVTZ
    Blend: AUG-CC-PVTZ
  Basis Set: (AUG-CC-PVTZ AUX)
    Blend: AUG-CC-PVTZ-JKFIT

    Orbital Energies [Eh]
    ---------------------

    Doubly Occupied:

       1A    -91.968503     2A    -91.967606     3A    -11.263078
       4A    -11.258026     5A    -11.233270     6A    -11.231332
       7A    -11.217123     8A    -11.210407     9A     -8.967330
      10A     -8.966387    11A     -6.648416    12A     -6.647464
      13A     -6.647152    14A     -6.646346    15A     -6.646240
      16A     -6.645442    17A     -1.111111    18A     -1.076307
      19A     -1.010537    20A     -0.932839    21A     -0.931132
      22A     -0.858270    23A     -0.793524    24A     -0.752347
      25A     -0.643982    26A     -0.630682    27A     -0.604643
      28A     -0.589281    29A     -0.575260    30A     -0.550886
      31A     -0.542324    32A     -0.535390    33A     -0.514591
      34A     -0.508733    35A     -0.489630    36A     -0.475330
      37A     -0.470719    38A     -0.451383    39A     -0.429366
      40A     -0.353656    41A     -0.344709

  @DF-RHF Final Energy: -1030.54176289206157

   => Energetics <=

    Nuclear Repulsion Energy =            555.2747424823352276
    One-Electron Energy =               -2520.9514973263549109
    Two-Electron Energy =                 935.1349919519581135
    Total Energy =                      -1030.5417628920617972
  Basis Set: (AUG-CC-PVTZ AUX)
    Blend: AUG-CC-PVTZ-RI
    Molecular point group: c1

    Geometry (in Angstrom), charge = 0, multiplicity = 1:

       Center              X                  Y                   Z               Mass
    ------------   -----------------  -----------------  -----------------  -----------------
         S           -0.240441736645    -1.003535575315    -0.503542559920    31.972071174400
         S           -1.249124736645    -0.049311575315     1.015584440080    31.972071174400
         C            2.167722263355     0.326985424685     0.182467440080    12.000000000000
         C            1.083503263355     0.191528424685    -0.884292559920    12.000000000000
         C            2.963147263355    -0.963941575315     0.350921440080    12.000000000000
         C            3.088578263355     1.492885424685    -0.178041559920    12.000000000000
         C           -2.427726736645     0.997743424685     0.100089440080    12.000000000000
         C           -3.508757736645     0.216639424685    -0.629934559920    12.000000000000
         H            1.670168263355     0.562701424685     1.132087440080     1.007825032230
         H            0.621848263355     1.163155424685    -1.091752559920     1.007825032230
         H            1.522901263355    -0.169027575315    -1.824157559920     1.007825032230
         H            3.488677263355    -1.212152575315    -0.578636559920     1.007825032230
         H            3.712446263355    -0.854328575315     1.140883440080     1.007825032230
         H            2.312807263355    -1.802767575315     0.610842440080     1.007825032230
         H            3.588441263355     1.308735424685    -1.135668559920     1.007825032230
         H            3.862955263355     1.624702424685     0.583962440080     1.007825032230
         H            2.531640263355     2.431777424685    -0.260267559920     1.007825032230
         H           -2.864301736645     1.645371424685     0.868867440080     1.007825032230
         H           -1.869712736645     1.640331424685    -0.587786559920     1.007825032230
         H           -3.067433736645    -0.448083575315    -1.376176559920     1.007825032230
         H           -4.088779736645    -0.388041575315     0.071106440080     1.007825032230
         H           -4.250842936645     0.966623824685    -1.190398459920     1.007825032230

  Basis Set: AUG-CC-PVTZ
    Blend: AUG-CC-PVTZ
  Basis Set: (AUG-CC-PVTZ AUX)
    Blend: AUG-CC-PVTZ-JKFIT
	 Reference Energy          =   -1030.5417628920615698 [Eh]
	 Singles Energy            =      -0.0000000000000000 [Eh]
	 Same-Spin Energy          =      -0.3700708538866228 [Eh]
	 Opposite-Spin Energy      =      -1.2695441356727957 [Eh]
	 Correlation Energy        =      -1.6396149895594185 [Eh]
	 Total Energy              =   -1032.1813778816210743 [Eh]

	 ================> DF-SCS-MP2 Energies <==================
	-----------------------------------------------------------
	 SCS Same-Spin Scale       =       0.3333333333333333 [-]
	 SCS Opposite-Spin Scale   =       1.2000000000000000 [-]
	 SCS Same-Spin Energy      =      -0.1233569512955409 [Eh]
	 SCS Opposite-Spin Energy  =      -1.5234529628073548 [Eh]
	 SCS Correlation Energy    =      -1.6468099141028958 [Eh]
	 SCS Total Energy          =   -1032.1885728061645295 [Eh]
	-----------------------------------------------------------

  Dipole Moment: [D]
     X:     0.1971      Y:     1.7325      Z:    -0.8218     Total:     1.9276

*** Psi4 exiting successfully. Buy a developer a beer!
