                               Psi4 1.4a3.dev225

  ==> Input File <==

--------------------------------------------------------------------------
#psi4
#
memory 32 gb

molecule  {
0 1
  S       -0.2843280    -1.0417270    -0.4821980
  S       -1.2930110    -0.0875030     1.0369290
  C        2.1014821     0.2754862     0.2094872
  C        1.0396170     0.1533370    -0.8629480
  C        2.9192610    -1.0021330     0.3722660
  C        3.0446920     1.4546940    -0.1566970
  C       -2.4716130     0.9595520     0.1214340
  C       -3.5526440     0.1784480    -0.6085900
  H        1.6262820     0.5245100     1.1534320
  H        0.5779620     1.1249640    -1.0704080
  H        1.4790150    -0.2072190    -1.8028130
  H        3.4447910    -1.2503440    -0.5572920
  H        3.6685600    -0.8925200     1.1622280
  H        2.2689210    -1.8409590     0.6321870
  H        3.5445550     1.2705440    -1.1143240
  H        3.8190690     1.5865110     0.6053070
  H        2.4877540     2.3935860    -0.2389230
  H       -2.9081880     1.6071800     0.8902120
  H       -1.9135990     1.6021400    -0.5664420
  H       -3.1113200    -0.4862750    -1.3548320
  H       -4.1326660    -0.4262330     0.0924510
  H       -4.2326140     0.8656560    -1.1221410
units angstrom
no_reorient  #important for SAPT in psi4, default
symmetry c1  #important for SAPT in psi4, default
}

set PROPERTIES_ORIGIN ["COM"]
properties('MP2/aug-cc-pvtz', properties = ['dipole'])
--------------------------------------------------------------------------

    Molecular point group: c1
  Charge       = 0
  Multiplicity = 1
  Basis Set: AUG-CC-PVTZ
    Blend: AUG-CC-PVTZ
  Basis Set: (AUG-CC-PVTZ AUX)
    Blend: AUG-CC-PVTZ-JKFIT

    Orbital Energies [Eh]
    ---------------------

    Doubly Occupied:

       1A    -91.967540     2A    -91.966523     3A    -11.262137
       4A    -11.257598     5A    -11.230611     6A    -11.221272
       7A    -11.217333     8A    -11.210130     9A     -8.966374
      10A     -8.965378    11A     -6.647466    12A     -6.646456
      13A     -6.646197    14A     -6.645395    15A     -6.645237
      16A     -6.644433    17A     -1.111182    18A     -1.076010
      19A     -1.010659    20A     -0.935516    21A     -0.929112
      22A     -0.861402    23A     -0.795019    24A     -0.753066
      25A     -0.644055    26A     -0.629549    27A     -0.604184
      28A     -0.591124    29A     -0.585218    30A     -0.550942
      31A     -0.540922    32A     -0.534848    33A     -0.514146
      34A     -0.508172    35A     -0.494383    36A     -0.476260
      37A     -0.473694    38A     -0.449196    39A     -0.428252
      40A     -0.353091    41A     -0.344010

  @DF-RHF Final Energy: -1030.54755208172878

   => Energetics <=

    Nuclear Repulsion Energy =            555.9162195828465656
    One-Electron Energy =               -2522.2593630068886341
    Two-Electron Energy =                 935.7955913423131733
    Total Energy =                      -1030.5475520817287816
  Basis Set: (AUG-CC-PVTZ AUX)
    Blend: AUG-CC-PVTZ-RI
    Molecular point group: c1

    Geometry (in Angstrom), charge = 0, multiplicity = 1:

       Center              X                  Y                   Z               Mass
    ------------   -----------------  -----------------  -----------------  -----------------
         S           -0.239071256900    -1.002049699005    -0.504311500643    31.972071174400
         S           -1.247754256900    -0.047825699005     1.014815499357    31.972071174400
         C            2.146738843100     0.315163500995     0.187373699357    12.000000000000
         C            1.084873743100     0.193014300995    -0.885061500643    12.000000000000
         C            2.964517743100    -0.962455699005     0.350152499357    12.000000000000
         C            3.089948743100     1.494371300995    -0.178810500643    12.000000000000
         C           -2.426356256900     0.999229300995     0.099320499357    12.000000000000
         C           -3.507387256900     0.218125300995    -0.630703500643    12.000000000000
         H            1.671538743100     0.564187300995     1.131318499357     1.007825032230
         H            0.623218743100     1.164641300995    -1.092521500643     1.007825032230
         H            1.524271743100    -0.167541699005    -1.824926500643     1.007825032230
         H            3.490047743100    -1.210666699005    -0.579405500643     1.007825032230
         H            3.713816743100    -0.852842699005     1.140114499357     1.007825032230
         H            2.314177743100    -1.801281699005     0.610073499357     1.007825032230
         H            3.589811743100     1.310221300995    -1.136437500643     1.007825032230
         H            3.864325743100     1.626188300995     0.583193499357     1.007825032230
         H            2.533010743100     2.433263300995    -0.261036500643     1.007825032230
         H           -2.862931256900     1.646857300995     0.868098499357     1.007825032230
         H           -1.868342256900     1.641817300995    -0.588555500643     1.007825032230
         H           -3.066063256900    -0.446597699005    -1.376945500643     1.007825032230
         H           -4.087409256900    -0.386555699005     0.070337499357     1.007825032230
         H           -4.187357256900     0.905333300995    -1.144254500643     1.007825032230

  Basis Set: AUG-CC-PVTZ
    Blend: AUG-CC-PVTZ
  Basis Set: (AUG-CC-PVTZ AUX)
    Blend: AUG-CC-PVTZ-JKFIT
	 Reference Energy          =   -1030.5475520817287816 [Eh]
	 Singles Energy            =      -0.0000000000000000 [Eh]
	 Same-Spin Energy          =      -0.3700731105365579 [Eh]
	 Opposite-Spin Energy      =      -1.2688920279177633 [Eh]
	 Correlation Energy        =      -1.6389651384543213 [Eh]
	 Total Energy              =   -1032.1865172201830774 [Eh]

	 ================> DF-SCS-MP2 Energies <==================
	-----------------------------------------------------------
	 SCS Same-Spin Scale       =       0.3333333333333333 [-]
	 SCS Opposite-Spin Scale   =       1.2000000000000000 [-]
	 SCS Same-Spin Energy      =      -0.1233577035121860 [Eh]
	 SCS Opposite-Spin Energy  =      -1.5226704335013159 [Eh]
	 SCS Correlation Energy    =      -1.6460281370135019 [Eh]
	 SCS Total Energy          =   -1032.1935802187422269 [Eh]
	-----------------------------------------------------------

  Dipole Moment: [D]
     X:     0.1177      Y:     1.7614      Z:    -0.8630     Total:     1.9650

*** Psi4 exiting successfully. Buy a developer a beer!
