                               Psi4 1.4a3.dev225

  ==> Input File <==

--------------------------------------------------------------------------
#psi4
#
memory 32 gb

molecule  {
0 1
  S       -0.2843280    -1.0417270    -0.4821980
  S       -1.2930110    -0.0875030     1.0369290
  C        2.1238360     0.2887940     0.2038120
  C        1.0471636     0.1281127    -0.8670822
  C        2.9192610    -1.0021330     0.3722660
  C        3.0446920     1.4546940    -0.1566970
  C       -2.4716130     0.9595520     0.1214340
  C       -3.5526440     0.1784480    -0.6085900
  H        1.6262820     0.5245100     1.1534320
  H        0.5779620     1.1249640    -1.0704080
  H        1.4790150    -0.2072190    -1.8028130
  H        3.4447910    -1.2503440    -0.5572920
  H        3.6685600    -0.8925200     1.1622280
  H        2.2689210    -1.8409590     0.6321870
  H        3.5445550     1.2705440    -1.1143240
  H        3.8190690     1.5865110     0.6053070
  H        2.4877540     2.3935860    -0.2389230
  H       -2.9081880     1.6071800     0.8902120
  H       -1.9135990     1.6021400    -0.5664420
  H       -3.1113200    -0.4862750    -1.3548320
  H       -4.1326660    -0.4262330     0.0924510
  H       -4.2326140     0.8656560    -1.1221410
units angstrom
no_reorient  #important for SAPT in psi4, default
symmetry c1  #important for SAPT in psi4, default
}

set PROPERTIES_ORIGIN ["COM"]
properties('MP2/aug-cc-pvtz', properties = ['dipole'])
--------------------------------------------------------------------------

    Molecular point group: c1
  Charge       = 0
  Multiplicity = 1
  Basis Set: AUG-CC-PVTZ
    Blend: AUG-CC-PVTZ
  Basis Set: (AUG-CC-PVTZ AUX)
    Blend: AUG-CC-PVTZ-JKFIT

    Orbital Energies [Eh]
    ---------------------

    Doubly Occupied:

       1A    -91.968032     2A    -91.966990     3A    -11.262230
       4A    -11.257640     5A    -11.230828     6A    -11.221406
       7A    -11.216924     8A    -11.209598     9A     -8.966846
      10A     -8.965887    11A     -6.647937    12A     -6.646973
      13A     -6.646665    14A     -6.645862    15A     -6.645778
      16A     -6.644959    17A     -1.111143    18A     -1.076685
      19A     -1.012448    20A     -0.935260    21A     -0.930941
      22A     -0.860722    23A     -0.794102    24A     -0.751855
      25A     -0.640858    26A     -0.630073    27A     -0.605507
      28A     -0.591262    29A     -0.585673    30A     -0.553075
      31A     -0.541249    32A     -0.534983    33A     -0.514298
      34A     -0.506758    35A     -0.492639    36A     -0.474030
      37A     -0.472994    38A     -0.453675    39A     -0.427959
      40A     -0.352601    41A     -0.344571

  @DF-RHF Final Energy: -1030.54724838765560

   => Energetics <=

    Nuclear Repulsion Energy =            555.8018140420405189
    One-Electron Energy =               -2522.0182904486978259
    Two-Electron Energy =                 935.6692280190017073
    Total Energy =                      -1030.5472483876555998
  Basis Set: (AUG-CC-PVTZ AUX)
    Blend: AUG-CC-PVTZ-RI
    Molecular point group: c1

    Geometry (in Angstrom), charge = 0, multiplicity = 1:

       Center              X                  Y                   Z               Mass
    ------------   -----------------  -----------------  -----------------  -----------------
         S           -0.241462440971    -1.001096720125    -0.503527029446    31.972071174400
         S           -1.250145440971    -0.046872720125     1.015599970554    31.972071174400
         C            2.166701559029     0.329424279875     0.182482970554    12.000000000000
         C            1.090029159029     0.168742979875    -0.888411229446    12.000000000000
         C            2.962126559029    -0.961502720125     0.350936970554    12.000000000000
         C            3.087557559029     1.495324279875    -0.178026029446    12.000000000000
         C           -2.428747440971     1.000182279875     0.100104970554    12.000000000000
         C           -3.509778440971     0.219078279875    -0.629919029446    12.000000000000
         H            1.669147559029     0.565140279875     1.132102970554     1.007825032230
         H            0.620827559029     1.165594279875    -1.091737029446     1.007825032230
         H            1.521880559029    -0.166588720125    -1.824142029446     1.007825032230
         H            3.487656559029    -1.209713720125    -0.578621029446     1.007825032230
         H            3.711425559029    -0.851889720125     1.140898970554     1.007825032230
         H            2.311786559029    -1.800328720125     0.610857970554     1.007825032230
         H            3.587420559029     1.311174279875    -1.135653029446     1.007825032230
         H            3.861934559029     1.627141279875     0.583977970554     1.007825032230
         H            2.530619559029     2.434216279875    -0.260252029446     1.007825032230
         H           -2.865322440971     1.647810279875     0.868882970554     1.007825032230
         H           -1.870733440971     1.642770279875    -0.587771029446     1.007825032230
         H           -3.068454440971    -0.445644720125    -1.376161029446     1.007825032230
         H           -4.089800440971    -0.385602720125     0.071121970554     1.007825032230
         H           -4.189748440971     0.906286279875    -1.143470029446     1.007825032230

  Basis Set: AUG-CC-PVTZ
    Blend: AUG-CC-PVTZ
  Basis Set: (AUG-CC-PVTZ AUX)
    Blend: AUG-CC-PVTZ-JKFIT
	 Reference Energy          =   -1030.5472483876555998 [Eh]
	 Singles Energy            =      -0.0000000000000000 [Eh]
	 Same-Spin Energy          =      -0.3701556708405592 [Eh]
	 Opposite-Spin Energy      =      -1.2689491934758910 [Eh]
	 Correlation Energy        =      -1.6391048643164501 [Eh]
	 Total Energy              =   -1032.1863532519721502 [Eh]

	 ================> DF-SCS-MP2 Energies <==================
	-----------------------------------------------------------
	 SCS Same-Spin Scale       =       0.3333333333333333 [-]
	 SCS Opposite-Spin Scale   =       1.2000000000000000 [-]
	 SCS Same-Spin Energy      =      -0.1233852236135197 [Eh]
	 SCS Opposite-Spin Energy  =      -1.5227390321710692 [Eh]
	 SCS Correlation Energy    =      -1.6461242557845890 [Eh]
	 SCS Total Energy          =   -1032.1933726434401706 [Eh]
	-----------------------------------------------------------

  Dipole Moment: [D]
     X:     0.1027      Y:     1.7679      Z:    -0.8597     Total:     1.9685

*** Psi4 exiting successfully. Buy a developer a beer!
