                               Psi4 1.4a3.dev225

  ==> Input File <==

--------------------------------------------------------------------------
#psi4
#
memory 32 gb

molecule  {
0 1
  S       -0.2843280    -1.0417270    -0.4821980
  S       -1.2930110    -0.0875030     1.0369290
  C        2.1238360     0.2887940     0.2038120
  C        1.0396170     0.1533370    -0.8629480
  C        2.9192610    -1.0021330     0.3722660
  C        3.0446920     1.4546940    -0.1566970
  C       -2.4716130     0.9595520     0.1214340
  C       -3.5526440     0.1784480    -0.6085900
  H        1.6262820     0.5245100     1.1534320
  H        0.5779620     1.1249640    -1.0704080
  H        1.4790150    -0.2072190    -1.8028130
  H        3.4447910    -1.2503440    -0.5572920
  H        3.6685600    -0.8925200     1.1622280
  H        2.2689210    -1.8409590     0.6321870
  H        3.5445550     1.2705440    -1.1143240
  H        3.8190690     1.5865110     0.6053070
  H        2.4877540     2.3935860    -0.2389230
  H       -2.9081880     1.6071800     0.8902120
  H       -2.0155854     1.4846963    -0.4407211
  H       -3.1113200    -0.4862750    -1.3548320
  H       -4.1326660    -0.4262330     0.0924510
  H       -4.2326140     0.8656560    -1.1221410
units angstrom
no_reorient  #important for SAPT in psi4, default
symmetry c1  #important for SAPT in psi4, default
}

set PROPERTIES_ORIGIN ["COM"]
properties('MP2/aug-cc-pvtz', properties = ['dipole'])
--------------------------------------------------------------------------

    Molecular point group: c1
  Charge       = 0
  Multiplicity = 1
  Basis Set: AUG-CC-PVTZ
    Blend: AUG-CC-PVTZ
  Basis Set: (AUG-CC-PVTZ AUX)
    Blend: AUG-CC-PVTZ-JKFIT

    Orbital Energies [Eh]
    ---------------------

    Doubly Occupied:

       1A    -91.966821     2A    -91.966356     3A    -11.257533
       4A    -11.238163     5A    -11.230891     6A    -11.219918
       7A    -11.216845     8A    -11.210054     9A     -8.965625
      10A     -8.965225    11A     -6.646755    12A     -6.646263
      13A     -6.645457    14A     -6.645095    15A     -6.644655
      16A     -6.644285    17A     -1.112380    18A     -1.085096
      19A     -1.014982    20A     -0.934609    21A     -0.931091
      22A     -0.872861    23A     -0.803996    24A     -0.758124
      25A     -0.652330    26A     -0.638970    27A     -0.605415
      28A     -0.591160    29A     -0.587033    30A     -0.551410
      31A     -0.542318    32A     -0.535091    33A     -0.521881
      34A     -0.508530    35A     -0.493336    36A     -0.475347
      37A     -0.471966    38A     -0.452499    39A     -0.430231
      40A     -0.353187    41A     -0.344022

  @DF-RHF Final Energy: -1030.51499547034132

   => Energetics <=

    Nuclear Repulsion Energy =            556.7286771313852114
    One-Electron Energy =               -2523.7317361691407314
    Two-Electron Energy =                 936.4880635674142013
    Total Energy =                      -1030.5149954703413187
  Basis Set: (AUG-CC-PVTZ AUX)
    Blend: AUG-CC-PVTZ-RI
    Molecular point group: c1

    Geometry (in Angstrom), charge = 0, multiplicity = 1:

       Center              X                  Y                   Z               Mass
    ------------   -----------------  -----------------  -----------------  -----------------
         S           -0.240173944545    -1.002325139738    -0.504702042648    31.972071174400
         S           -1.248856944545    -0.048101139738     1.014424957352    31.972071174400
         C            2.167990055455     0.328195860262     0.181307957352    12.000000000000
         C            1.083771055455     0.192738860262    -0.885452042648    12.000000000000
         C            2.963415055455    -0.962731139738     0.349761957352    12.000000000000
         C            3.088846055455     1.494095860262    -0.179201042648    12.000000000000
         C           -2.427458944545     0.998953860262     0.098929957352    12.000000000000
         C           -3.508489944545     0.217849860262    -0.631094042648    12.000000000000
         H            1.670436055455     0.563911860262     1.130927957352     1.007825032230
         H            0.622116055455     1.164365860262    -1.092912042648     1.007825032230
         H            1.523169055455    -0.167817139738    -1.825317042648     1.007825032230
         H            3.488945055455    -1.210942139738    -0.579796042648     1.007825032230
         H            3.712714055455    -0.853118139738     1.139723957352     1.007825032230
         H            2.313075055455    -1.801557139738     0.609682957352     1.007825032230
         H            3.588709055455     1.309945860262    -1.136828042648     1.007825032230
         H            3.863223055455     1.625912860262     0.582802957352     1.007825032230
         H            2.531908055455     2.432987860262    -0.261427042648     1.007825032230
         H           -2.864033944545     1.646581860262     0.867707957352     1.007825032230
         H           -1.971431344545     1.524098160262    -0.463225142648     1.007825032230
         H           -3.067165944545    -0.446873139738    -1.377336042648     1.007825032230
         H           -4.088511944545    -0.386831139738     0.069946957352     1.007825032230
         H           -4.188459944545     0.905057860262    -1.144645042648     1.007825032230

  Basis Set: AUG-CC-PVTZ
    Blend: AUG-CC-PVTZ
  Basis Set: (AUG-CC-PVTZ AUX)
    Blend: AUG-CC-PVTZ-JKFIT
	 Reference Energy          =   -1030.5149954703413187 [Eh]
	 Singles Energy            =      -0.0000000000000000 [Eh]
	 Same-Spin Energy          =      -0.3698947185926536 [Eh]
	 Opposite-Spin Energy      =      -1.2682038849966892 [Eh]
	 Correlation Energy        =      -1.6380986035893428 [Eh]
	 Total Energy              =   -1032.1530940739305606 [Eh]

	 ================> DF-SCS-MP2 Energies <==================
	-----------------------------------------------------------
	 SCS Same-Spin Scale       =       0.3333333333333333 [-]
	 SCS Opposite-Spin Scale   =       1.2000000000000000 [-]
	 SCS Same-Spin Energy      =      -0.1232982395308845 [Eh]
	 SCS Opposite-Spin Energy  =      -1.5218446619960271 [Eh]
	 SCS Correlation Energy    =      -1.6451429015269117 [Eh]
	 SCS Total Energy          =   -1032.1601383718682428 [Eh]
	-----------------------------------------------------------

  Dipole Moment: [D]
     X:     0.1247      Y:     1.8247      Z:    -0.8830     Total:     2.0309

*** Psi4 exiting successfully. Buy a developer a beer!
