                               Psi4 1.4a3.dev225

  ==> Input File <==

--------------------------------------------------------------------------
#psi4
#
memory 32 gb

molecule  {
0 1
  S       -0.2843280    -1.0417270    -0.4821980
  S       -1.2930110    -0.0875030     1.0369290
  C        2.0958089     0.2653698     0.1650619
  C        1.0396170     0.1533370    -0.8629480
  C        2.9192610    -1.0021330     0.3722660
  C        3.0446920     1.4546940    -0.1566970
  C       -2.4716130     0.9595520     0.1214340
  C       -3.5526440     0.1784480    -0.6085900
  H        1.6262820     0.5245100     1.1534320
  H        0.5779620     1.1249640    -1.0704080
  H        1.4790150    -0.2072190    -1.8028130
  H        3.4447910    -1.2503440    -0.5572920
  H        3.6685600    -0.8925200     1.1622280
  H        2.2689210    -1.8409590     0.6321870
  H        3.5445550     1.2705440    -1.1143240
  H        3.8190690     1.5865110     0.6053070
  H        2.4877540     2.3935860    -0.2389230
  H       -2.9081880     1.6071800     0.8902120
  H       -1.9135990     1.6021400    -0.5664420
  H       -3.1113200    -0.4862750    -1.3548320
  H       -4.1326660    -0.4262330     0.0924510
  H       -4.2326140     0.8656560    -1.1221410
units angstrom
no_reorient  #important for SAPT in psi4, default
symmetry c1  #important for SAPT in psi4, default
}

set PROPERTIES_ORIGIN ["COM"]
properties('MP2/aug-cc-pvtz', properties = ['dipole'])
--------------------------------------------------------------------------

    Molecular point group: c1
  Charge       = 0
  Multiplicity = 1
  Basis Set: AUG-CC-PVTZ
    Blend: AUG-CC-PVTZ
  Basis Set: (AUG-CC-PVTZ AUX)
    Blend: AUG-CC-PVTZ-JKFIT

    Orbital Energies [Eh]
    ---------------------

    Doubly Occupied:

       1A    -91.967758     2A    -91.967231     3A    -11.262299
       4A    -11.256788     5A    -11.231680     6A    -11.221428
       7A    -11.217669     8A    -11.210370     9A     -8.966591
      10A     -8.966070    11A     -6.647695    12A     -6.647106
      13A     -6.646417    14A     -6.645934    15A     -6.645596
      16A     -6.645124    17A     -1.114901    18A     -1.076838
      19A     -1.010610    20A     -0.937464    21A     -0.929369
      22A     -0.863593    23A     -0.793425    24A     -0.749780
      25A     -0.646386    26A     -0.629959    27A     -0.605109
      28A     -0.591823    29A     -0.586260    30A     -0.551001
      31A     -0.540654    32A     -0.534837    33A     -0.515005
      34A     -0.509423    35A     -0.499168    36A     -0.475554
      37A     -0.467870    38A     -0.444865    39A     -0.428484
      40A     -0.353620    41A     -0.345156

  @DF-RHF Final Energy: -1030.54476339493885

   => Energetics <=

    Nuclear Repulsion Energy =            556.2889486600164446
    One-Electron Energy =               -2522.9736059232573098
    Two-Electron Energy =                 936.1398938683018969
    Total Energy =                      -1030.5447633949388546
  Basis Set: (AUG-CC-PVTZ AUX)
    Blend: AUG-CC-PVTZ-RI
    Molecular point group: c1

    Geometry (in Angstrom), charge = 0, multiplicity = 1:

       Center              X                  Y                   Z               Mass
    ------------   -----------------  -----------------  -----------------  -----------------
         S           -0.238617563301    -1.001240676596    -0.500758748358    31.972071174400
         S           -1.247300563301    -0.047016676596     1.018368251642    31.972071174400
         C            2.141519336699     0.305856123404     0.146501151642    12.000000000000
         C            1.085327436699     0.193823323404    -0.881508748358    12.000000000000
         C            2.964971436699    -0.961646676596     0.353705251642    12.000000000000
         C            3.090402436699     1.495180323404    -0.175257748358    12.000000000000
         C           -2.425902563301     1.000038323404     0.102873251642    12.000000000000
         C           -3.506933563301     0.218934323404    -0.627150748358    12.000000000000
         H            1.671992436699     0.564996323404     1.134871251642     1.007825032230
         H            0.623672436699     1.165450323404    -1.088968748358     1.007825032230
         H            1.524725436699    -0.166732676596    -1.821373748358     1.007825032230
         H            3.490501436699    -1.209857676596    -0.575852748358     1.007825032230
         H            3.714270436699    -0.852033676596     1.143667251642     1.007825032230
         H            2.314631436699    -1.800472676596     0.613626251642     1.007825032230
         H            3.590265436699     1.311030323404    -1.132884748358     1.007825032230
         H            3.864779436699     1.626997323404     0.586746251642     1.007825032230
         H            2.533464436699     2.434072323404    -0.257483748358     1.007825032230
         H           -2.862477563301     1.647666323404     0.871651251642     1.007825032230
         H           -1.867888563301     1.642626323404    -0.585002748358     1.007825032230
         H           -3.065609563301    -0.445788676596    -1.373392748358     1.007825032230
         H           -4.086955563301    -0.385746676596     0.073890251642     1.007825032230
         H           -4.186903563301     0.906142323404    -1.140701748358     1.007825032230

  Basis Set: AUG-CC-PVTZ
    Blend: AUG-CC-PVTZ
  Basis Set: (AUG-CC-PVTZ AUX)
    Blend: AUG-CC-PVTZ-JKFIT
	 Reference Energy          =   -1030.5447633949388546 [Eh]
	 Singles Energy            =      -0.0000000000000000 [Eh]
	 Same-Spin Energy          =      -0.3704278138048418 [Eh]
	 Opposite-Spin Energy      =      -1.2693558273979069 [Eh]
	 Correlation Energy        =      -1.6397836412027487 [Eh]
	 Total Energy              =   -1032.1845470361415664 [Eh]

	 ================> DF-SCS-MP2 Energies <==================
	-----------------------------------------------------------
	 SCS Same-Spin Scale       =       0.3333333333333333 [-]
	 SCS Opposite-Spin Scale   =       1.2000000000000000 [-]
	 SCS Same-Spin Energy      =      -0.1234759379349473 [Eh]
	 SCS Opposite-Spin Energy  =      -1.5232269928774882 [Eh]
	 SCS Correlation Energy    =      -1.6467029308124355 [Eh]
	 SCS Total Energy          =   -1032.1914663257512075 [Eh]
	-----------------------------------------------------------

  Dipole Moment: [D]
     X:     0.0958      Y:     1.7561      Z:    -0.8612     Total:     1.9582

*** Psi4 exiting successfully. Buy a developer a beer!
