                               Psi4 1.4a3.dev225

  ==> Input File <==

--------------------------------------------------------------------------
#psi4
#
memory 32 gb

molecule  {
0 1
  S       -0.2843280    -1.0417270    -0.4821980
  S       -1.2930110    -0.0875030     1.0369290
  C        2.1238360     0.2887940     0.2038120
  C        1.0396170     0.1533370    -0.8629480
  C        2.9192610    -1.0021330     0.3722660
  C        3.0446920     1.4546940    -0.1566970
  C       -2.4716130     0.9595520     0.1214340
  C       -3.5339478     0.1669917    -0.6235355
  H        1.6262820     0.5245100     1.1534320
  H        0.5779620     1.1249640    -1.0704080
  H        1.4790150    -0.2072190    -1.8028130
  H        3.4447910    -1.2503440    -0.5572920
  H        3.6685600    -0.8925200     1.1622280
  H        2.2689210    -1.8409590     0.6321870
  H        3.5445550     1.2705440    -1.1143240
  H        3.8190690     1.5865110     0.6053070
  H        2.4877540     2.3935860    -0.2389230
  H       -2.9081880     1.6071800     0.8902120
  H       -1.9135990     1.6021400    -0.5664420
  H       -3.1113200    -0.4862750    -1.3548320
  H       -4.1326660    -0.4262330     0.0924510
  H       -4.2326140     0.8656560    -1.1221410
units angstrom
no_reorient  #important for SAPT in psi4, default
symmetry c1  #important for SAPT in psi4, default
}

set PROPERTIES_ORIGIN ["COM"]
properties('MP2/aug-cc-pvtz', properties = ['dipole'])
--------------------------------------------------------------------------

    Molecular point group: c1
  Charge       = 0
  Multiplicity = 1
  Basis Set: AUG-CC-PVTZ
    Blend: AUG-CC-PVTZ
  Basis Set: (AUG-CC-PVTZ AUX)
    Blend: AUG-CC-PVTZ-JKFIT

    Orbital Energies [Eh]
    ---------------------

    Doubly Occupied:

       1A    -91.967194     2A    -91.967011     3A    -11.262328
       4A    -11.257569     5A    -11.230920     6A    -11.221569
       7A    -11.216827     8A    -11.210074     9A     -8.966088
      10A     -8.965767    11A     -6.647216    12A     -6.646795
      13A     -6.645912    14A     -6.645643    15A     -6.645085
      16A     -6.644847    17A     -1.110712    18A     -1.076736
      19A     -1.011608    20A     -0.934924    21A     -0.931105
      22A     -0.861282    23A     -0.793681    24A     -0.751933
      25A     -0.643671    26A     -0.630656    27A     -0.604753
      28A     -0.591638    29A     -0.583996    30A     -0.550931
      31A     -0.543799    32A     -0.535393    33A     -0.512314
      34A     -0.509384    35A     -0.492436    36A     -0.475579
      37A     -0.471342    38A     -0.452086    39A     -0.428768
      40A     -0.352885    41A     -0.343859

  @DF-RHF Final Energy: -1030.54732077540416

   => Energetics <=

    Nuclear Repulsion Energy =            555.9079006420524820
    One-Electron Energy =               -2522.2378098789567957
    Two-Electron Energy =                 935.7825884615002678
    Total Energy =                      -1030.5473207754039322
  Basis Set: (AUG-CC-PVTZ AUX)
    Blend: AUG-CC-PVTZ-RI
    Molecular point group: c1

    Geometry (in Angstrom), charge = 0, multiplicity = 1:

       Center              X                  Y                   Z               Mass
    ------------   -----------------  -----------------  -----------------  -----------------
         S           -0.242354089804    -1.002197766004    -0.502662434929    31.972071174400
         S           -1.251037089804    -0.047973766004     1.016464565071    31.972071174400
         C            2.165809910196     0.328323233996     0.183347565071    12.000000000000
         C            1.081590910196     0.192866233996    -0.883412434929    12.000000000000
         C            2.961234910196    -0.962603766004     0.351801565071    12.000000000000
         C            3.086665910196     1.494223233996    -0.177161434929    12.000000000000
         C           -2.429639089804     0.999081233996     0.100969565071    12.000000000000
         C           -3.491973889804     0.206520933996    -0.643999934929    12.000000000000
         H            1.668255910196     0.564039233996     1.132967565071     1.007825032230
         H            0.619935910196     1.164493233996    -1.090872434929     1.007825032230
         H            1.520988910196    -0.167689766004    -1.823277434929     1.007825032230
         H            3.486764910196    -1.210814766004    -0.577756434929     1.007825032230
         H            3.710533910196    -0.852990766004     1.141763565071     1.007825032230
         H            2.310894910196    -1.801429766004     0.611722565071     1.007825032230
         H            3.586528910196     1.310073233996    -1.134788434929     1.007825032230
         H            3.861042910196     1.626040233996     0.584842565071     1.007825032230
         H            2.529727910196     2.433115233996    -0.259387434929     1.007825032230
         H           -2.866214089804     1.646709233996     0.869747565071     1.007825032230
         H           -1.871625089804     1.641669233996    -0.586906434929     1.007825032230
         H           -3.069346089804    -0.446745766004    -1.375296434929     1.007825032230
         H           -4.090692089804    -0.386703766004     0.071986565071     1.007825032230
         H           -4.190640089804     0.905185233996    -1.142605434929     1.007825032230

  Basis Set: AUG-CC-PVTZ
    Blend: AUG-CC-PVTZ
  Basis Set: (AUG-CC-PVTZ AUX)
    Blend: AUG-CC-PVTZ-JKFIT
	 Reference Energy          =   -1030.5473207754041596 [Eh]
	 Singles Energy            =      -0.0000000000000000 [Eh]
	 Same-Spin Energy          =      -0.3701099701300112 [Eh]
	 Opposite-Spin Energy      =      -1.2689316837477718 [Eh]
	 Correlation Energy        =      -1.6390416538777830 [Eh]
	 Total Energy              =   -1032.1863624292818713 [Eh]

	 ================> DF-SCS-MP2 Energies <==================
	-----------------------------------------------------------
	 SCS Same-Spin Scale       =       0.3333333333333333 [-]
	 SCS Opposite-Spin Scale   =       1.2000000000000000 [-]
	 SCS Same-Spin Energy      =      -0.1233699900433371 [Eh]
	 SCS Opposite-Spin Energy  =      -1.5227180204973261 [Eh]
	 SCS Correlation Energy    =      -1.6460880105406632 [Eh]
	 SCS Total Energy          =   -1032.1934087859447118 [Eh]
	-----------------------------------------------------------

  Dipole Moment: [D]
     X:     0.1162      Y:     1.7679      Z:    -0.8660     Total:     1.9720

*** Psi4 exiting successfully. Buy a developer a beer!
