                               Psi4 1.4a3.dev225

  ==> Input File <==

--------------------------------------------------------------------------
#psi4
#
memory 32 gb

molecule  {
0 1
  S       -0.2843280    -1.0417270    -0.4821980
  S       -1.2930110    -0.0875030     1.0369290
  C        2.1238360     0.2887940     0.2038120
  C        1.0396170     0.1533370    -0.8629480
  C        2.9192610    -1.0021330     0.3722660
  C        3.0446920     1.4546940    -0.1566970
  C       -2.4716130     0.9595520     0.1214340
  C       -3.5526440     0.1784480    -0.6085900
  H        1.6262820     0.5245100     1.1534320
  H        0.5779620     1.1249640    -1.0704080
  H        1.4790150    -0.2072190    -1.8028130
  H        3.4447910    -1.2503440    -0.5572920
  H        3.6685600    -0.8925200     1.1622280
  H        2.2689210    -1.8409590     0.6321870
  H        3.5673627     1.2621416    -1.1580185
  H        3.8190690     1.5865110     0.6053070
  H        2.4877540     2.3935860    -0.2389230
  H       -2.9081880     1.6071800     0.8902120
  H       -1.9135990     1.6021400    -0.5664420
  H       -3.1113200    -0.4862750    -1.3548320
  H       -4.1326660    -0.4262330     0.0924510
  H       -4.2326140     0.8656560    -1.1221410
units angstrom
no_reorient  #important for SAPT in psi4, default
symmetry c1  #important for SAPT in psi4, default
}

set PROPERTIES_ORIGIN ["COM"]
properties('MP2/aug-cc-pvtz', properties = ['dipole'])
--------------------------------------------------------------------------

    Molecular point group: c1
  Charge       = 0
  Multiplicity = 1
  Basis Set: AUG-CC-PVTZ
    Blend: AUG-CC-PVTZ
  Basis Set: (AUG-CC-PVTZ AUX)
    Blend: AUG-CC-PVTZ-JKFIT

    Orbital Energies [Eh]
    ---------------------

    Doubly Occupied:

       1A    -91.967608     2A    -91.967069     3A    -11.262192
       4A    -11.257668     5A    -11.231612     6A    -11.223036
       7A    -11.221353     8A    -11.210172     9A     -8.966451
      10A     -8.965840    11A     -6.647555    12A     -6.646895
      13A     -6.646284    14A     -6.645702    15A     -6.645464
      16A     -6.644903    17A     -1.110585    18A     -1.076445
      19A     -1.011393    20A     -0.935066    21A     -0.928746
      22A     -0.860577    23A     -0.792654    24A     -0.751553
      25A     -0.643077    26A     -0.629747    27A     -0.604876
      28A     -0.591804    29A     -0.585986    30A     -0.548976
      31A     -0.540606    32A     -0.531314    33A     -0.513471
      34A     -0.508255    35A     -0.492735    36A     -0.475836
      37A     -0.470488    38A     -0.452797    39A     -0.428821
      40A     -0.352992    41A     -0.344226

  @DF-RHF Final Energy: -1030.54608371736481

   => Energetics <=

    Nuclear Repulsion Energy =            555.5090135492772561
    One-Electron Energy =               -2521.4445415650443465
    Two-Electron Energy =                 935.3894442984021680
    Total Energy =                      -1030.5460837173648088
  Basis Set: (AUG-CC-PVTZ AUX)
    Blend: AUG-CC-PVTZ-RI
    Molecular point group: c1

    Geometry (in Angstrom), charge = 0, multiplicity = 1:

       Center              X                  Y                   Z               Mass
    ------------   -----------------  -----------------  -----------------  -----------------
         S           -0.241012115306    -1.003057507930    -0.503564176077    31.972071174400
         S           -1.249695115306    -0.048833507930     1.015562823923    31.972071174400
         C            2.167151884694     0.327463492070     0.182445823923    12.000000000000
         C            1.082932884694     0.192006492070    -0.884314176077    12.000000000000
         C            2.962576884694    -0.963463507930     0.350899823923    12.000000000000
         C            3.088007884694     1.493363492070    -0.178063176077    12.000000000000
         C           -2.428297115306     0.998221492070     0.100067823923    12.000000000000
         C           -3.509328115306     0.217117492070    -0.629956176077    12.000000000000
         H            1.669597884694     0.563179492070     1.132065823923     1.007825032230
         H            0.621277884694     1.163633492070    -1.091774176077     1.007825032230
         H            1.522330884694    -0.168549507930    -1.824179176077     1.007825032230
         H            3.488106884694    -1.211674507930    -0.578658176077     1.007825032230
         H            3.711875884694    -0.853850507930     1.140861823923     1.007825032230
         H            2.312236884694    -1.802289507930     0.610820823923     1.007825032230
         H            3.610678584694     1.300811092070    -1.179384676077     1.007825032230
         H            3.862384884694     1.625180492070     0.583940823923     1.007825032230
         H            2.531069884694     2.432255492070    -0.260289176077     1.007825032230
         H           -2.864872115306     1.645849492070     0.868845823923     1.007825032230
         H           -1.870283115306     1.640809492070    -0.587808176077     1.007825032230
         H           -3.068004115306    -0.447605507930    -1.376198176077     1.007825032230
         H           -4.089350115306    -0.387563507930     0.071084823923     1.007825032230
         H           -4.189298115306     0.904325492070    -1.143507176077     1.007825032230

  Basis Set: AUG-CC-PVTZ
    Blend: AUG-CC-PVTZ
  Basis Set: (AUG-CC-PVTZ AUX)
    Blend: AUG-CC-PVTZ-JKFIT
	 Reference Energy          =   -1030.5460837173648088 [Eh]
	 Singles Energy            =      -0.0000000000000000 [Eh]
	 Same-Spin Energy          =      -0.3700968996577182 [Eh]
	 Opposite-Spin Energy      =      -1.2692102659230973 [Eh]
	 Correlation Energy        =      -1.6393071655808154 [Eh]
	 Total Energy              =   -1032.1853908829455122 [Eh]

	 ================> DF-SCS-MP2 Energies <==================
	-----------------------------------------------------------
	 SCS Same-Spin Scale       =       0.3333333333333333 [-]
	 SCS Opposite-Spin Scale   =       1.2000000000000000 [-]
	 SCS Same-Spin Energy      =      -0.1233656332192394 [Eh]
	 SCS Opposite-Spin Energy  =      -1.5230523191077168 [Eh]
	 SCS Correlation Energy    =      -1.6464179523269562 [Eh]
	 SCS Total Energy          =   -1032.1925016696918647 [Eh]
	-----------------------------------------------------------

  Dipole Moment: [D]
     X:     0.0956      Y:     1.7651      Z:    -0.8344     Total:     1.9547

*** Psi4 exiting successfully. Buy a developer a beer!
