                               Psi4 1.4a3.dev225

  ==> Input File <==

--------------------------------------------------------------------------
#psi4
#
memory 32 gb

molecule  {
0 1
  S       -0.2843280    -1.0417270    -0.4821980
  S       -1.2930110    -0.0875030     1.0369290
  C        2.1238360     0.2887940     0.2038120
  C        1.0396170     0.1533370    -0.8629480
  C        2.9192610    -1.0021330     0.3722660
  C        3.0446920     1.4546940    -0.1566970
  C       -2.4716130     0.9595520     0.1214340
  C       -3.5526440     0.1784480    -0.6085900
  H        1.6262820     0.5245100     1.1534320
  H        0.5779620     1.1249640    -1.0704080
  H        1.4790150    -0.2072190    -1.8028130
  H        3.4447910    -1.2503440    -0.5572920
  H        3.6685600    -0.8925200     1.1622280
  H        2.2689210    -1.8409590     0.6321870
  H        3.5445550     1.2705440    -1.1143240
  H        3.8190690     1.5865110     0.6053070
  H        2.4877540     2.3935860    -0.2389230
  H       -2.8683516     1.5480855     0.8200629
  H       -1.9135990     1.6021400    -0.5664420
  H       -3.1113200    -0.4862750    -1.3548320
  H       -4.1326660    -0.4262330     0.0924510
  H       -4.2326140     0.8656560    -1.1221410
units angstrom
no_reorient  #important for SAPT in psi4, default
symmetry c1  #important for SAPT in psi4, default
}

set PROPERTIES_ORIGIN ["COM"]
properties('MP2/aug-cc-pvtz', properties = ['dipole'])
--------------------------------------------------------------------------

    Molecular point group: c1
  Charge       = 0
  Multiplicity = 1
  Basis Set: AUG-CC-PVTZ
    Blend: AUG-CC-PVTZ
  Basis Set: (AUG-CC-PVTZ AUX)
    Blend: AUG-CC-PVTZ-JKFIT

    Orbital Energies [Eh]
    ---------------------

    Doubly Occupied:

       1A    -91.966850     2A    -91.966750     3A    -11.257373
       4A    -11.250122     5A    -11.230801     6A    -11.220536
       7A    -11.216743     8A    -11.209948     9A     -8.965791
      10A     -8.965489    11A     -6.646935    12A     -6.646520
      13A     -6.645625    14A     -6.645367    15A     -6.644807
      16A     -6.644567    17A     -1.111032    18A     -1.080046
      19A     -1.013278    20A     -0.934752    21A     -0.930999
      22A     -0.866598    23A     -0.797239    24A     -0.753784
      25A     -0.646073    26A     -0.635880    27A     -0.604864
      28A     -0.592928    29A     -0.585371    30A     -0.551266
      31A     -0.541857    32A     -0.535169    33A     -0.514994
      34A     -0.510225    35A     -0.493737    36A     -0.476116
      37A     -0.471527    38A     -0.452316    39A     -0.429586
      40A     -0.352640    41A     -0.343759

  @DF-RHF Final Energy: -1030.54229460838292

   => Energetics <=

    Nuclear Repulsion Energy =            556.2835039515111930
    One-Electron Energy =               -2522.9510801391779751
    Two-Electron Energy =                 936.1252815792839783
    Total Energy =                      -1030.5422946083826901
  Basis Set: (AUG-CC-PVTZ AUX)
    Blend: AUG-CC-PVTZ-RI
    Molecular point group: c1

    Geometry (in Angstrom), charge = 0, multiplicity = 1:

       Center              X                  Y                   Z               Mass
    ------------   -----------------  -----------------  -----------------  -----------------
         S           -0.241126487367    -1.002717038020    -0.503386495624    31.972071174400
         S           -1.249809487367    -0.048493038020     1.015740504376    31.972071174400
         C            2.167037512633     0.327803961980     0.182623504376    12.000000000000
         C            1.082818512633     0.192346961980    -0.884136495624    12.000000000000
         C            2.962462512633    -0.963123038020     0.351077504376    12.000000000000
         C            3.087893512633     1.493703961980    -0.177885495624    12.000000000000
         C           -2.428411487367     0.998561961980     0.100245504376    12.000000000000
         C           -3.509442487367     0.217457961980    -0.629778495624    12.000000000000
         H            1.669483512633     0.563519961980     1.132243504376     1.007825032230
         H            0.621163512633     1.163973961980    -1.091596495624     1.007825032230
         H            1.522216512633    -0.168209038020    -1.824001495624     1.007825032230
         H            3.487992512633    -1.211334038020    -0.578480495624     1.007825032230
         H            3.711761512633    -0.853510038020     1.141039504376     1.007825032230
         H            2.312122512633    -1.801949038020     0.610998504376     1.007825032230
         H            3.587756512633     1.309553961980    -1.135512495624     1.007825032230
         H            3.862270512633     1.625520961980     0.584118504376     1.007825032230
         H            2.530955512633     2.432595961980    -0.260111495624     1.007825032230
         H           -2.825150087367     1.587095461980     0.798874404376     1.007825032230
         H           -1.870397487367     1.641149961980    -0.587630495624     1.007825032230
         H           -3.068118487367    -0.447265038020    -1.376020495624     1.007825032230
         H           -4.089464487367    -0.387223038020     0.071262504376     1.007825032230
         H           -4.189412487367     0.904665961980    -1.143329495624     1.007825032230

  Basis Set: AUG-CC-PVTZ
    Blend: AUG-CC-PVTZ
  Basis Set: (AUG-CC-PVTZ AUX)
    Blend: AUG-CC-PVTZ-JKFIT
	 Reference Energy          =   -1030.5422946083829174 [Eh]
	 Singles Energy            =      -0.0000000000000000 [Eh]
	 Same-Spin Energy          =      -0.3700145740473701 [Eh]
	 Opposite-Spin Energy      =      -1.2683832981403018 [Eh]
	 Correlation Energy        =      -1.6383978721876720 [Eh]
	 Total Energy              =   -1032.1806924805705421 [Eh]

	 ================> DF-SCS-MP2 Energies <==================
	-----------------------------------------------------------
	 SCS Same-Spin Scale       =       0.3333333333333333 [-]
	 SCS Opposite-Spin Scale   =       1.2000000000000000 [-]
	 SCS Same-Spin Energy      =      -0.1233381913491234 [Eh]
	 SCS Opposite-Spin Energy  =      -1.5220599577683622 [Eh]
	 SCS Correlation Energy    =      -1.6453981491174856 [Eh]
	 SCS Total Energy          =   -1032.1876927575003720 [Eh]
	-----------------------------------------------------------

  Dipole Moment: [D]
     X:     0.1074      Y:     1.7938      Z:    -0.8434     Total:     1.9851

*** Psi4 exiting successfully. Buy a developer a beer!
