                               Psi4 1.4a3.dev225

  ==> Input File <==

--------------------------------------------------------------------------
#psi4
#
memory 32 gb

molecule  {
0 1
  S       -0.2843280    -1.0417270    -0.4821980
  S       -1.2930110    -0.0875030     1.0369290
  C        2.1238360     0.2887940     0.2038120
  C        1.0396170     0.1533370    -0.8629480
  C        2.9192610    -1.0021330     0.3722660
  C        2.9242251     1.3021703    -0.1095350
  C       -2.4716130     0.9595520     0.1214340
  C       -3.5526440     0.1784480    -0.6085900
  H        1.6262820     0.5245100     1.1534320
  H        0.5779620     1.1249640    -1.0704080
  H        1.4790150    -0.2072190    -1.8028130
  H        3.4447910    -1.2503440    -0.5572920
  H        3.6685600    -0.8925200     1.1622280
  H        2.2689210    -1.8409590     0.6321870
  H        3.5445550     1.2705440    -1.1143240
  H        3.8190690     1.5865110     0.6053070
  H        2.4877540     2.3935860    -0.2389230
  H       -2.9081880     1.6071800     0.8902120
  H       -1.9135990     1.6021400    -0.5664420
  H       -3.1113200    -0.4862750    -1.3548320
  H       -4.1326660    -0.4262330     0.0924510
  H       -4.2326140     0.8656560    -1.1221410
units angstrom
no_reorient  #important for SAPT in psi4, default
symmetry c1  #important for SAPT in psi4, default
}

set PROPERTIES_ORIGIN ["COM"]
properties('MP2/aug-cc-pvtz', properties = ['dipole'])
--------------------------------------------------------------------------

    Molecular point group: c1
  Charge       = 0
  Multiplicity = 1
  Basis Set: AUG-CC-PVTZ
    Blend: AUG-CC-PVTZ
  Basis Set: (AUG-CC-PVTZ AUX)
    Blend: AUG-CC-PVTZ-JKFIT

    Orbital Energies [Eh]
    ---------------------

    Doubly Occupied:

       1A    -91.968298     2A    -91.967788     3A    -11.262638
       4A    -11.259600     5A    -11.231228     6A    -11.221722
       7A    -11.220816     8A    -11.212188     9A     -8.967139
      10A     -8.966567    11A     -6.648246    12A     -6.647620
      13A     -6.646970    14A     -6.646435    15A     -6.646150
      16A     -6.645636    17A     -1.136884    18A     -1.084383
      19A     -1.019131    20A     -0.937572    21A     -0.931241
      22A     -0.858980    23A     -0.790501    24A     -0.756898
      25A     -0.653560    26A     -0.634633    27A     -0.617882
      28A     -0.600118    29A     -0.588634    30A     -0.550934
      31A     -0.542642    32A     -0.524735    33A     -0.514331
      34A     -0.508447    35A     -0.494193    36A     -0.475994
      37A     -0.449889    38A     -0.441645    39A     -0.429864
      40A     -0.353850    41A     -0.344422

  @DF-RHF Final Energy: -1030.49832579832400

   => Energetics <=

    Nuclear Repulsion Energy =            559.5497913351326815
    One-Electron Energy =               -2529.2954273822397226
    Two-Electron Energy =                 939.2473102487829237
    Total Energy =                      -1030.4983257983240037
  Basis Set: (AUG-CC-PVTZ AUX)
    Blend: AUG-CC-PVTZ-RI
    Molecular point group: c1

    Geometry (in Angstrom), charge = 0, multiplicity = 1:

       Center              X                  Y                   Z               Mass
    ------------   -----------------  -----------------  -----------------  -----------------
         S           -0.231225025475    -0.990916412187    -0.507629257045    31.972071174400
         S           -1.239908025475    -0.036692412187     1.011497742955    31.972071174400
         C            2.176938974525     0.339604587813     0.178380742955    12.000000000000
         C            1.092719974525     0.204147587813    -0.888379257045    12.000000000000
         C            2.972363974525    -0.951322412187     0.346834742955    12.000000000000
         C            2.977328074525     1.352980887813    -0.134966257045    12.000000000000
         C           -2.418510025475     1.010362587813     0.096002742955    12.000000000000
         C           -3.499541025475     0.229258587813    -0.634021257045    12.000000000000
         H            1.679384974525     0.575320587813     1.128000742955     1.007825032230
         H            0.631064974525     1.175774587813    -1.095839257045     1.007825032230
         H            1.532117974525    -0.156408412187    -1.828244257045     1.007825032230
         H            3.497893974525    -1.199533412187    -0.582723257045     1.007825032230
         H            3.721662974525    -0.841709412187     1.136796742955     1.007825032230
         H            2.322023974525    -1.790148412187     0.606755742955     1.007825032230
         H            3.597657974525     1.321354587813    -1.139755257045     1.007825032230
         H            3.872171974525     1.637321587813     0.579875742955     1.007825032230
         H            2.540856974525     2.444396587813    -0.264354257045     1.007825032230
         H           -2.855085025475     1.657990587813     0.864780742955     1.007825032230
         H           -1.860496025475     1.652950587813    -0.591873257045     1.007825032230
         H           -3.058217025475    -0.435464412187    -1.380263257045     1.007825032230
         H           -4.079563025475    -0.375422412187     0.067019742955     1.007825032230
         H           -4.179511025475     0.916466587813    -1.147572257045     1.007825032230

  Basis Set: AUG-CC-PVTZ
    Blend: AUG-CC-PVTZ
  Basis Set: (AUG-CC-PVTZ AUX)
    Blend: AUG-CC-PVTZ-JKFIT
	 Reference Energy          =   -1030.4983257983240037 [Eh]
	 Singles Energy            =      -0.0000000000000000 [Eh]
	 Same-Spin Energy          =      -0.3732444037551433 [Eh]
	 Opposite-Spin Energy      =      -1.2730582313385399 [Eh]
	 Correlation Energy        =      -1.6463026350936834 [Eh]
	 Total Energy              =   -1032.1446284334176653 [Eh]

	 ================> DF-SCS-MP2 Energies <==================
	-----------------------------------------------------------
	 SCS Same-Spin Scale       =       0.3333333333333333 [-]
	 SCS Opposite-Spin Scale   =       1.2000000000000000 [-]
	 SCS Same-Spin Energy      =      -0.1244148012517144 [Eh]
	 SCS Opposite-Spin Energy  =      -1.5276698776062478 [Eh]
	 SCS Correlation Energy    =      -1.6520846788579622 [Eh]
	 SCS Total Energy          =   -1032.1504104771820494 [Eh]
	-----------------------------------------------------------

  Dipole Moment: [D]
     X:     0.0349      Y:     1.6971      Z:    -0.8295     Total:     1.8894

*** Psi4 exiting successfully. Buy a developer a beer!
