                               Psi4 1.4a3.dev225

  ==> Input File <==

--------------------------------------------------------------------------
#psi4
#
memory 32 gb

molecule  {
0 1
  S       -0.2843280    -1.0417270    -0.4821980
  S       -1.2930110    -0.0875030     1.0369290
  C        2.1238360     0.2887940     0.2038120
  C        1.0396170     0.1533370    -0.8629480
  C        2.9713982    -1.0867486     0.3833075
  C        3.0446920     1.4546940    -0.1566970
  C       -2.4716130     0.9595520     0.1214340
  C       -3.5526440     0.1784480    -0.6085900
  H        1.6262820     0.5245100     1.1534320
  H        0.5779620     1.1249640    -1.0704080
  H        1.4790150    -0.2072190    -1.8028130
  H        3.4447910    -1.2503440    -0.5572920
  H        3.6685600    -0.8925200     1.1622280
  H        2.2689210    -1.8409590     0.6321870
  H        3.5445550     1.2705440    -1.1143240
  H        3.8190690     1.5865110     0.6053070
  H        2.4877540     2.3935860    -0.2389230
  H       -2.9081880     1.6071800     0.8902120
  H       -1.9135990     1.6021400    -0.5664420
  H       -3.1113200    -0.4862750    -1.3548320
  H       -4.1326660    -0.4262330     0.0924510
  H       -4.2326140     0.8656560    -1.1221410
units angstrom
no_reorient  #important for SAPT in psi4, default
symmetry c1  #important for SAPT in psi4, default
}

set PROPERTIES_ORIGIN ["COM"]
properties('MP2/aug-cc-pvtz', properties = ['dipole'])
--------------------------------------------------------------------------

    Molecular point group: c1
  Charge       = 0
  Multiplicity = 1
  Basis Set: AUG-CC-PVTZ
    Blend: AUG-CC-PVTZ
  Basis Set: (AUG-CC-PVTZ AUX)
    Blend: AUG-CC-PVTZ-JKFIT

    Orbital Energies [Eh]
    ---------------------

    Doubly Occupied:

       1A    -91.967462     2A    -91.966976     3A    -11.262077
       4A    -11.257531     5A    -11.234749     6A    -11.221259
       7A    -11.216801     8A    -11.207240     9A     -8.966305
      10A     -8.965745    11A     -6.647412    12A     -6.646798
      13A     -6.646137    14A     -6.645613    15A     -6.645316
      16A     -6.644812    17A     -1.105453    18A     -1.072956
      19A     -1.009331    20A     -0.935203    21A     -0.932054
      22A     -0.861118    23A     -0.793602    24A     -0.750773
      25A     -0.640478    26A     -0.628682    27A     -0.604692
      28A     -0.592553    29A     -0.584948    30A     -0.551235
      31A     -0.547909    32A     -0.539407    33A     -0.521961
      34A     -0.511693    35A     -0.493982    36A     -0.476204
      37A     -0.455503    38A     -0.448474    39A     -0.427433
      40A     -0.352787    41A     -0.344061

  @DF-RHF Final Energy: -1030.54105478993938

   => Energetics <=

    Nuclear Repulsion Energy =            554.0268795281031089
    One-Electron Energy =               -2518.4864164265291038
    Two-Electron Energy =                 933.9184821084866144
    Total Energy =                      -1030.5410547899393805
  Basis Set: (AUG-CC-PVTZ AUX)
    Blend: AUG-CC-PVTZ-RI
    Molecular point group: c1

    Geometry (in Angstrom), charge = 0, multiplicity = 1:

       Center              X                  Y                   Z               Mass
    ------------   -----------------  -----------------  -----------------  -----------------
         S           -0.245028412525    -0.996347116255    -0.504740651028    31.972071174400
         S           -1.253711412525    -0.042123116255     1.014386348972    31.972071174400
         C            2.163135587475     0.334173883745     0.181269348972    12.000000000000
         C            1.078916587475     0.198716883745    -0.885490651028    12.000000000000
         C            3.010697787475    -1.041368716255     0.360764848972    12.000000000000
         C            3.083991587475     1.500073883745    -0.179239651028    12.000000000000
         C           -2.432313412525     1.004931883745     0.098891348972    12.000000000000
         C           -3.513344412525     0.223827883745    -0.631132651028    12.000000000000
         H            1.665581587475     0.569889883745     1.130889348972     1.007825032230
         H            0.617261587475     1.170343883745    -1.092950651028     1.007825032230
         H            1.518314587475    -0.161839116255    -1.825355651028     1.007825032230
         H            3.484090587475    -1.204964116255    -0.579834651028     1.007825032230
         H            3.707859587475    -0.847140116255     1.139685348972     1.007825032230
         H            2.308220587475    -1.795579116255     0.609644348972     1.007825032230
         H            3.583854587475     1.315923883745    -1.136866651028     1.007825032230
         H            3.858368587475     1.631890883745     0.582764348972     1.007825032230
         H            2.527053587475     2.438965883745    -0.261465651028     1.007825032230
         H           -2.868888412525     1.652559883745     0.867669348972     1.007825032230
         H           -1.874299412525     1.647519883745    -0.588984651028     1.007825032230
         H           -3.072020412525    -0.440895116255    -1.377374651028     1.007825032230
         H           -4.093366412525    -0.380853116255     0.069908348972     1.007825032230
         H           -4.193314412525     0.911035883745    -1.144683651028     1.007825032230

  Basis Set: AUG-CC-PVTZ
    Blend: AUG-CC-PVTZ
  Basis Set: (AUG-CC-PVTZ AUX)
    Blend: AUG-CC-PVTZ-JKFIT
	 Reference Energy          =   -1030.5410547899393805 [Eh]
	 Singles Energy            =      -0.0000000000000000 [Eh]
	 Same-Spin Energy          =      -0.3696989188995232 [Eh]
	 Opposite-Spin Energy      =      -1.2688613439208041 [Eh]
	 Correlation Energy        =      -1.6385602628203273 [Eh]
	 Total Energy              =   -1032.1796150527598002 [Eh]

	 ================> DF-SCS-MP2 Energies <==================
	-----------------------------------------------------------
	 SCS Same-Spin Scale       =       0.3333333333333333 [-]
	 SCS Opposite-Spin Scale   =       1.2000000000000000 [-]
	 SCS Same-Spin Energy      =      -0.1232329729665077 [Eh]
	 SCS Opposite-Spin Energy  =      -1.5226336127049649 [Eh]
	 SCS Correlation Energy    =      -1.6458665856714727 [Eh]
	 SCS Total Energy          =   -1032.1869213756108365 [Eh]
	-----------------------------------------------------------

  Dipole Moment: [D]
     X:     0.1089      Y:     1.7991      Z:    -0.8744     Total:     2.0033

*** Psi4 exiting successfully. Buy a developer a beer!
