                               Psi4 1.4a3.dev225

  ==> Input File <==

--------------------------------------------------------------------------
#psi4
#
memory 32 gb

molecule  {
0 1
  S       -0.2843280    -1.0417270    -0.4821980
  S       -1.2930110    -0.0875030     1.0369290
  C        2.1238360     0.2887940     0.2038120
  C        1.0396170     0.1533370    -0.8629480
  C        2.9192610    -1.0021330     0.3722660
  C        3.0446920     1.4546940    -0.1566970
  C       -2.4716130     0.9595520     0.1214340
  C       -3.5526440     0.1784480    -0.6085900
  H        1.6262820     0.5245100     1.1534320
  H        0.5779620     1.1249640    -1.0704080
  H        1.4790150    -0.2072190    -1.8028130
  H        3.4447910    -1.2503440    -0.5572920
  H        3.7370326    -0.8825033     1.2344165
  H        2.2689210    -1.8409590     0.6321870
  H        3.5445550     1.2705440    -1.1143240
  H        3.8190690     1.5865110     0.6053070
  H        2.4877540     2.3935860    -0.2389230
  H       -2.9081880     1.6071800     0.8902120
  H       -1.9135990     1.6021400    -0.5664420
  H       -3.1113200    -0.4862750    -1.3548320
  H       -4.1326660    -0.4262330     0.0924510
  H       -4.2326140     0.8656560    -1.1221410
units angstrom
no_reorient  #important for SAPT in psi4, default
symmetry c1  #important for SAPT in psi4, default
}

set PROPERTIES_ORIGIN ["COM"]
properties('MP2/aug-cc-pvtz', properties = ['dipole'])
--------------------------------------------------------------------------

    Molecular point group: c1
  Charge       = 0
  Multiplicity = 1
  Basis Set: AUG-CC-PVTZ
    Blend: AUG-CC-PVTZ
  Basis Set: (AUG-CC-PVTZ AUX)
    Blend: AUG-CC-PVTZ-JKFIT

    Orbital Energies [Eh]
    ---------------------

    Doubly Occupied:

       1A    -91.967968     2A    -91.967597     3A    -11.262480
       4A    -11.258559     5A    -11.232013     6A    -11.222178
       7A    -11.221597     8A    -11.216862     9A     -8.966814
      10A     -8.966366    11A     -6.647928    12A     -6.647407
      13A     -6.646641    14A     -6.646234    15A     -6.645818
      16A     -6.645434    17A     -1.110979    18A     -1.076643
      19A     -1.011512    20A     -0.934899    21A     -0.926284
      22A     -0.860900    23A     -0.792757    24A     -0.751938
      25A     -0.641523    26A     -0.629893    27A     -0.603018
      28A     -0.591472    29A     -0.586074    30A     -0.551498
      31A     -0.541554    32A     -0.532052    33A     -0.513337
      34A     -0.504247    35A     -0.488590    36A     -0.476158
      37A     -0.470449    38A     -0.452887    39A     -0.429267
      40A     -0.353457    41A     -0.344629

  @DF-RHF Final Energy: -1030.54165177720165

   => Energetics <=

    Nuclear Repulsion Energy =            555.2703750646165872
    One-Electron Energy =               -2520.9482271605206734
    Two-Electron Energy =                 935.1362003187025493
    Total Energy =                      -1030.5416517772016505
  Basis Set: (AUG-CC-PVTZ AUX)
    Blend: AUG-CC-PVTZ-RI
    Molecular point group: c1

    Geometry (in Angstrom), charge = 0, multiplicity = 1:

       Center              X                  Y                   Z               Mass
    ------------   -----------------  -----------------  -----------------  -----------------
         S           -0.241318820383    -1.003181218515    -0.504342496064    31.972071174400
         S           -1.250001820383    -0.048957218515     1.014784503936    31.972071174400
         C            2.166845179617     0.327339781485     0.181667503936    12.000000000000
         C            1.082626179617     0.191882781485    -0.885092496064    12.000000000000
         C            2.962270179617    -0.963587218515     0.350121503936    12.000000000000
         C            3.087701179617     1.493239781485    -0.178841496064    12.000000000000
         C           -2.428603820383     0.998097781485     0.099289503936    12.000000000000
         C           -3.509634820383     0.216993781485    -0.630734496064    12.000000000000
         H            1.669291179617     0.563055781485     1.131287503936     1.007825032230
         H            0.620971179617     1.163509781485    -1.092552496064     1.007825032230
         H            1.522024179617    -0.168673218515    -1.824957496064     1.007825032230
         H            3.487800179617    -1.211798218515    -0.579436496064     1.007825032230
         H            3.780041779617    -0.843957518515     1.212272003936     1.007825032230
         H            2.311930179617    -1.802413218515     0.610042503936     1.007825032230
         H            3.587564179617     1.309089781485    -1.136468496064     1.007825032230
         H            3.862078179617     1.625056781485     0.583162503936     1.007825032230
         H            2.530763179617     2.432131781485    -0.261067496064     1.007825032230
         H           -2.865178820383     1.645725781485     0.868067503936     1.007825032230
         H           -1.870589820383     1.640685781485    -0.588586496064     1.007825032230
         H           -3.068310820383    -0.447729218515    -1.376976496064     1.007825032230
         H           -4.089656820383    -0.387687218515     0.070306503936     1.007825032230
         H           -4.189604820383     0.904201781485    -1.144285496064     1.007825032230

  Basis Set: AUG-CC-PVTZ
    Blend: AUG-CC-PVTZ
  Basis Set: (AUG-CC-PVTZ AUX)
    Blend: AUG-CC-PVTZ-JKFIT
	 Reference Energy          =   -1030.5416517772016505 [Eh]
	 Singles Energy            =      -0.0000000000000000 [Eh]
	 Same-Spin Energy          =      -0.3700841631282941 [Eh]
	 Opposite-Spin Energy      =      -1.2696018632138126 [Eh]
	 Correlation Energy        =      -1.6396860263421067 [Eh]
	 Total Energy              =   -1032.1813378035437836 [Eh]

	 ================> DF-SCS-MP2 Energies <==================
	-----------------------------------------------------------
	 SCS Same-Spin Scale       =       0.3333333333333333 [-]
	 SCS Opposite-Spin Scale   =       1.2000000000000000 [-]
	 SCS Same-Spin Energy      =      -0.1233613877094313 [Eh]
	 SCS Opposite-Spin Energy  =      -1.5235222358565752 [Eh]
	 SCS Correlation Energy    =      -1.6468836235660065 [Eh]
	 SCS Total Energy          =   -1032.1885354007677051 [Eh]
	-----------------------------------------------------------

  Dipole Moment: [D]
     X:     0.0425      Y:     1.7783      Z:    -0.9096     Total:     1.9979

*** Psi4 exiting successfully. Buy a developer a beer!
