                               Psi4 1.4a3.dev225

  ==> Input File <==

--------------------------------------------------------------------------
#psi4
#
memory 32 gb

molecule  {
0 1
  S       -0.2843280    -1.0417270    -0.4821980
  S       -1.2930110    -0.0875030     1.0369290
  C        2.1238360     0.2887940     0.2038120
  C        1.0127548     0.2545697    -0.8431759
  C        2.9192610    -1.0021330     0.3722660
  C        3.0446920     1.4546940    -0.1566970
  C       -2.4716130     0.9595520     0.1214340
  C       -3.5526440     0.1784480    -0.6085900
  H        1.6262820     0.5245100     1.1534320
  H        0.5779620     1.1249640    -1.0704080
  H        1.4790150    -0.2072190    -1.8028130
  H        3.4447910    -1.2503440    -0.5572920
  H        3.6685600    -0.8925200     1.1622280
  H        2.2689210    -1.8409590     0.6321870
  H        3.5445550     1.2705440    -1.1143240
  H        3.8190690     1.5865110     0.6053070
  H        2.4877540     2.3935860    -0.2389230
  H       -2.9081880     1.6071800     0.8902120
  H       -1.9135990     1.6021400    -0.5664420
  H       -3.1113200    -0.4862750    -1.3548320
  H       -4.1326660    -0.4262330     0.0924510
  H       -4.2326140     0.8656560    -1.1221410
units angstrom
no_reorient  #important for SAPT in psi4, default
symmetry c1  #important for SAPT in psi4, default
}

set PROPERTIES_ORIGIN ["COM"]
properties('MP2/aug-cc-pvtz', properties = ['dipole'])
--------------------------------------------------------------------------

    Molecular point group: c1
  Charge       = 0
  Multiplicity = 1
  Basis Set: AUG-CC-PVTZ
    Blend: AUG-CC-PVTZ
  Basis Set: (AUG-CC-PVTZ AUX)
    Blend: AUG-CC-PVTZ-JKFIT

    Orbital Energies [Eh]
    ---------------------

    Doubly Occupied:

       1A    -91.967228     2A    -91.965444     3A    -11.261557
       4A    -11.258972     5A    -11.232479     6A    -11.220758
       7A    -11.216718     8A    -11.212507     9A     -8.965478
      10A     -8.964344    11A     -6.646534    12A     -6.645419
      13A     -6.645157    14A     -6.644450    15A     -6.644229
      16A     -6.643396    17A     -1.109456    18A     -1.076150
      19A     -1.008889    20A     -0.937502    21A     -0.930424
      22A     -0.862438    23A     -0.791994    24A     -0.756378
      25A     -0.654452    26A     -0.628762    27A     -0.605619
      28A     -0.591948    29A     -0.584480    30A     -0.546766
      31A     -0.540050    32A     -0.535096    33A     -0.514610
      34A     -0.510916    35A     -0.492790    36A     -0.479351
      37A     -0.465543    38A     -0.447677    39A     -0.429624
      40A     -0.353719    41A     -0.341129

  @DF-RHF Final Energy: -1030.53544443061332

   => Energetics <=

    Nuclear Repulsion Energy =            555.3650151608372880
    One-Electron Energy =               -2521.1400560574688825
    Two-Electron Energy =                 935.2395964660182699
    Total Energy =                      -1030.5354444306135520
  Basis Set: (AUG-CC-PVTZ AUX)
    Blend: AUG-CC-PVTZ-RI
    Molecular point group: c1

    Geometry (in Angstrom), charge = 0, multiplicity = 1:

       Center              X                  Y                   Z               Mass
    ------------   -----------------  -----------------  -----------------  -----------------
         S           -0.238710721955    -1.011209660178    -0.505438849106    31.972071174400
         S           -1.247393721955    -0.056985660178     1.013688150894    31.972071174400
         C            2.169453278045     0.319311339822     0.180571150894    12.000000000000
         C            1.058372078045     0.285087039822    -0.866416749106    12.000000000000
         C            2.964878278045    -0.971615660178     0.349025150894    12.000000000000
         C            3.090309278045     1.485211339822    -0.179937849106    12.000000000000
         C           -2.425995721955     0.990069339822     0.098193150894    12.000000000000
         C           -3.507026721955     0.208965339822    -0.631830849106    12.000000000000
         H            1.671899278045     0.555027339822     1.130191150894     1.007825032230
         H            0.623579278045     1.155481339822    -1.093648849106     1.007825032230
         H            1.524632278045    -0.176701660178    -1.826053849106     1.007825032230
         H            3.490408278045    -1.219826660178    -0.580532849106     1.007825032230
         H            3.714177278045    -0.862002660178     1.138987150894     1.007825032230
         H            2.314538278045    -1.810441660178     0.608946150894     1.007825032230
         H            3.590172278045     1.301061339822    -1.137564849106     1.007825032230
         H            3.864686278045     1.617028339822     0.582066150894     1.007825032230
         H            2.533371278045     2.424103339822    -0.262163849106     1.007825032230
         H           -2.862570721955     1.637697339822     0.866971150894     1.007825032230
         H           -1.867981721955     1.632657339822    -0.589682849106     1.007825032230
         H           -3.065702721955    -0.455757660178    -1.378072849106     1.007825032230
         H           -4.087048721955    -0.395715660178     0.069210150894     1.007825032230
         H           -4.186996721955     0.896173339822    -1.145381849106     1.007825032230

  Basis Set: AUG-CC-PVTZ
    Blend: AUG-CC-PVTZ
  Basis Set: (AUG-CC-PVTZ AUX)
    Blend: AUG-CC-PVTZ-JKFIT
	 Reference Energy          =   -1030.5354444306133246 [Eh]
	 Singles Energy            =      -0.0000000000000000 [Eh]
	 Same-Spin Energy          =      -0.3702030314021249 [Eh]
	 Opposite-Spin Energy      =      -1.2695606790212675 [Eh]
	 Correlation Energy        =      -1.6397637104233924 [Eh]
	 Total Energy              =   -1032.1752081410368191 [Eh]

	 ================> DF-SCS-MP2 Energies <==================
	-----------------------------------------------------------
	 SCS Same-Spin Scale       =       0.3333333333333333 [-]
	 SCS Opposite-Spin Scale   =       1.2000000000000000 [-]
	 SCS Same-Spin Energy      =      -0.1234010104673750 [Eh]
	 SCS Opposite-Spin Energy  =      -1.5234728148255210 [Eh]
	 SCS Correlation Energy    =      -1.6468738252928961 [Eh]
	 SCS Total Energy          =   -1032.1823182559062388 [Eh]
	-----------------------------------------------------------

  Dipole Moment: [D]
     X:     0.1862      Y:     1.7558      Z:    -0.8491     Total:     1.9592

*** Psi4 exiting successfully. Buy a developer a beer!
