                               Psi4 1.4a3.dev225

  ==> Input File <==

--------------------------------------------------------------------------
#psi4
#
memory 32 gb

molecule  {
0 1
  S       -0.2843280    -1.0417270    -0.4821980
  S       -1.2930110    -0.0875030     1.0369290
  C        2.1238360     0.2887940     0.2038120
  C        1.0255168     0.2039016    -0.8537062
  C        2.9192610    -1.0021330     0.3722660
  C        3.0446920     1.4546940    -0.1566970
  C       -2.4716130     0.9595520     0.1214340
  C       -3.5526440     0.1784480    -0.6085900
  H        1.6262820     0.5245100     1.1534320
  H        0.5779620     1.1249640    -1.0704080
  H        1.4790150    -0.2072190    -1.8028130
  H        3.4447910    -1.2503440    -0.5572920
  H        3.6685600    -0.8925200     1.1622280
  H        2.2689210    -1.8409590     0.6321870
  H        3.5445550     1.2705440    -1.1143240
  H        3.8190690     1.5865110     0.6053070
  H        2.4877540     2.3935860    -0.2389230
  H       -2.9081880     1.6071800     0.8902120
  H       -1.9135990     1.6021400    -0.5664420
  H       -3.1113200    -0.4862750    -1.3548320
  H       -4.1326660    -0.4262330     0.0924510
  H       -4.2326140     0.8656560    -1.1221410
units angstrom
no_reorient  #important for SAPT in psi4, default
symmetry c1  #important for SAPT in psi4, default
}

set PROPERTIES_ORIGIN ["COM"]
properties('MP2/aug-cc-pvtz', properties = ['dipole'])
--------------------------------------------------------------------------

    Molecular point group: c1
  Charge       = 0
  Multiplicity = 1
  Basis Set: AUG-CC-PVTZ
    Blend: AUG-CC-PVTZ
  Basis Set: (AUG-CC-PVTZ AUX)
    Blend: AUG-CC-PVTZ-JKFIT

    Orbital Energies [Eh]
    ---------------------

    Doubly Occupied:

       1A    -91.967043     2A    -91.966454     3A    -11.261829
       4A    -11.257912     5A    -11.231472     6A    -11.221023
       7A    -11.216718     8A    -11.211191     9A     -8.965598
      10A     -8.965289    11A     -6.646719    12A     -6.646306
      13A     -6.645346    14A     -6.645179    15A     -6.644580
      16A     -6.644359    17A     -1.109909    18A     -1.076307
      19A     -1.010245    20A     -0.935700    21A     -0.930964
      22A     -0.861576    23A     -0.792640    24A     -0.753256
      25A     -0.649124    26A     -0.629256    27A     -0.604764
      28A     -0.592102    29A     -0.585263    30A     -0.548598
      31A     -0.540846    32A     -0.534944    33A     -0.512498
      34A     -0.510978    35A     -0.492726    36A     -0.477828
      37A     -0.468756    38A     -0.450286    39A     -0.429573
      40A     -0.353407    41A     -0.342775

  @DF-RHF Final Energy: -1030.54517403590035

   => Energetics <=

    Nuclear Repulsion Energy =            555.5508745795245886
    One-Electron Energy =               -2521.5294168117043228
    Two-Electron Energy =                 935.4333681962793889
    Total Energy =                      -1030.5451740359003452
  Basis Set: (AUG-CC-PVTZ AUX)
    Blend: AUG-CC-PVTZ-RI
    Molecular point group: c1

    Geometry (in Angstrom), charge = 0, multiplicity = 1:

       Center              X                  Y                   Z               Mass
    ------------   -----------------  -----------------  -----------------  -----------------
         S           -0.239731316631    -1.007157662599    -0.504596726546    31.972071174400
         S           -1.248414316631    -0.052933662599     1.014530273454    31.972071174400
         C            2.168432683369     0.323363337401     0.181413273454    12.000000000000
         C            1.070113483369     0.238470937401    -0.876104926546    12.000000000000
         C            2.963857683369    -0.967563662599     0.349867273454    12.000000000000
         C            3.089288683369     1.489263337401    -0.179095726546    12.000000000000
         C           -2.427016316631     0.994121337401     0.099035273454    12.000000000000
         C           -3.508047316631     0.213017337401    -0.630988726546    12.000000000000
         H            1.670878683369     0.559079337401     1.131033273454     1.007825032230
         H            0.622558683369     1.159533337401    -1.092806726546     1.007825032230
         H            1.523611683369    -0.172649662599    -1.825211726546     1.007825032230
         H            3.489387683369    -1.215774662599    -0.579690726546     1.007825032230
         H            3.713156683369    -0.857950662599     1.139829273454     1.007825032230
         H            2.313517683369    -1.806389662599     0.609788273454     1.007825032230
         H            3.589151683369     1.305113337401    -1.136722726546     1.007825032230
         H            3.863665683369     1.621080337401     0.582908273454     1.007825032230
         H            2.532350683369     2.428155337401    -0.261321726546     1.007825032230
         H           -2.863591316631     1.641749337401     0.867813273454     1.007825032230
         H           -1.869002316631     1.636709337401    -0.588840726546     1.007825032230
         H           -3.066723316631    -0.451705662599    -1.377230726546     1.007825032230
         H           -4.088069316631    -0.391663662599     0.070052273454     1.007825032230
         H           -4.188017316631     0.900225337401    -1.144539726546     1.007825032230

  Basis Set: AUG-CC-PVTZ
    Blend: AUG-CC-PVTZ
  Basis Set: (AUG-CC-PVTZ AUX)
    Blend: AUG-CC-PVTZ-JKFIT
	 Reference Energy          =   -1030.5451740359003452 [Eh]
	 Singles Energy            =      -0.0000000000000000 [Eh]
	 Same-Spin Energy          =      -0.3700883768644420 [Eh]
	 Opposite-Spin Energy      =      -1.2690462141858272 [Eh]
	 Correlation Energy        =      -1.6391345910502690 [Eh]
	 Total Energy              =   -1032.1843086269507239 [Eh]

	 ================> DF-SCS-MP2 Energies <==================
	-----------------------------------------------------------
	 SCS Same-Spin Scale       =       0.3333333333333333 [-]
	 SCS Opposite-Spin Scale   =       1.2000000000000000 [-]
	 SCS Same-Spin Energy      =      -0.1233627922881473 [Eh]
	 SCS Opposite-Spin Energy  =      -1.5228554570229926 [Eh]
	 SCS Correlation Energy    =      -1.6462182493111399 [Eh]
	 SCS Total Energy          =   -1032.1913922852115775 [Eh]
	-----------------------------------------------------------

  Dipole Moment: [D]
     X:     0.1490      Y:     1.7633      Z:    -0.8600     Total:     1.9675

*** Psi4 exiting successfully. Buy a developer a beer!
