                               Psi4 1.4a3.dev225

  ==> Input File <==

--------------------------------------------------------------------------
#psi4
#
memory 32 gb

molecule  {
0 1
  S       -0.2843280    -1.0417270    -0.4821980
  S       -1.2930110    -0.0875030     1.0369290
  C        2.1238360     0.2887940     0.2038120
  C        1.0396170     0.1533370    -0.8629480
  C        2.9192610    -1.0021330     0.3722660
  C        3.0446920     1.4546940    -0.1566970
  C       -2.4716130     0.9595520     0.1214340
  C       -3.5526440     0.1784480    -0.6085900
  H        1.6262820     0.5245100     1.1534320
  H        0.5779620     1.1249640    -1.0704080
  H        1.4790150    -0.2072190    -1.8028130
  H        3.4447910    -1.2503440    -0.5572920
  H        3.6685600    -0.8925200     1.1622280
  H        2.2689210    -1.8409590     0.6321870
  H        3.5445550     1.2705440    -1.1143240
  H        3.8190690     1.5865110     0.6053070
  H        2.4877540     2.3935860    -0.2389230
  H       -2.9081880     1.6071800     0.8902120
  H       -1.8626058     1.6608619    -0.6293024
  H       -3.1113200    -0.4862750    -1.3548320
  H       -4.1326660    -0.4262330     0.0924510
  H       -4.2326140     0.8656560    -1.1221410
units angstrom
no_reorient  #important for SAPT in psi4, default
symmetry c1  #important for SAPT in psi4, default
}

set PROPERTIES_ORIGIN ["COM"]
properties('MP2/aug-cc-pvtz', properties = ['dipole'])
--------------------------------------------------------------------------

    Molecular point group: c1
  Charge       = 0
  Multiplicity = 1
  Basis Set: AUG-CC-PVTZ
    Blend: AUG-CC-PVTZ
  Basis Set: (AUG-CC-PVTZ AUX)
    Blend: AUG-CC-PVTZ-JKFIT

    Orbital Energies [Eh]
    ---------------------

    Doubly Occupied:

       1A    -91.968520     2A    -91.967197     3A    -11.273409
       4A    -11.257540     5A    -11.230957     6A    -11.222333
       7A    -11.216800     8A    -11.210101     9A     -8.967293
      10A     -8.965974    11A     -6.648373    12A     -6.647183
      13A     -6.646995    14A     -6.646312    15A     -6.645824
      16A     -6.645024    17A     -1.110410    18A     -1.074437
      19A     -1.010884    20A     -0.935478    21A     -0.931127
      22A     -0.858129    23A     -0.790358    24A     -0.749132
      25A     -0.642624    26A     -0.623086    27A     -0.604537
      28A     -0.592046    29A     -0.584679    30A     -0.551477
      31A     -0.541207    32A     -0.534992    33A     -0.510410
      34A     -0.505715    35A     -0.491680    36A     -0.475516
      37A     -0.471446    38A     -0.452834    39A     -0.427662
      40A     -0.352842    41A     -0.344273

  @DF-RHF Final Energy: -1030.54130067100391

   => Energetics <=

    Nuclear Repulsion Energy =            555.3039004336743574
    One-Electron Energy =               -2521.0367672263337226
    Two-Electron Energy =                 935.1915661216554554
    Total Energy =                      -1030.5413006710041373
  Basis Set: (AUG-CC-PVTZ AUX)
    Blend: AUG-CC-PVTZ-RI
    Molecular point group: c1

    Geometry (in Angstrom), charge = 0, multiplicity = 1:

       Center              X                  Y                   Z               Mass
    ------------   -----------------  -----------------  -----------------  -----------------
         S           -0.241201421227    -1.003508343552    -0.503435449663    31.972071174400
         S           -1.249884421227    -0.049284343552     1.015691550337    31.972071174400
         C            2.166962578773     0.327012656448     0.182574550337    12.000000000000
         C            1.082743578773     0.191555656448    -0.884185449663    12.000000000000
         C            2.962387578773    -0.963914343552     0.351028550337    12.000000000000
         C            3.087818578773     1.492912656448    -0.177934449663    12.000000000000
         C           -2.428486421227     0.997770656448     0.100196550337    12.000000000000
         C           -3.509517421227     0.216666656448    -0.629827449663    12.000000000000
         H            1.669408578773     0.562728656448     1.132194550337     1.007825032230
         H            0.621088578773     1.163182656448    -1.091645449663     1.007825032230
         H            1.522141578773    -0.169000343552    -1.824050449663     1.007825032230
         H            3.487917578773    -1.212125343552    -0.578529449663     1.007825032230
         H            3.711686578773    -0.854301343552     1.140990550337     1.007825032230
         H            2.312047578773    -1.802740343552     0.610949550337     1.007825032230
         H            3.587681578773     1.308762656448    -1.135561449663     1.007825032230
         H            3.862195578773     1.624729656448     0.584069550337     1.007825032230
         H            2.530880578773     2.431804656448    -0.260160449663     1.007825032230
         H           -2.865061421227     1.645398656448     0.868974550337     1.007825032230
         H           -1.819479221227     1.699080556448    -0.650539849663     1.007825032230
         H           -3.068193421227    -0.448056343552    -1.376069449663     1.007825032230
         H           -4.089539421227    -0.388014343552     0.071213550337     1.007825032230
         H           -4.189487421227     0.903874656448    -1.143378449663     1.007825032230

  Basis Set: AUG-CC-PVTZ
    Blend: AUG-CC-PVTZ
  Basis Set: (AUG-CC-PVTZ AUX)
    Blend: AUG-CC-PVTZ-JKFIT
	 Reference Energy          =   -1030.5413006710039099 [Eh]
	 Singles Energy            =      -0.0000000000000000 [Eh]
	 Same-Spin Energy          =      -0.3702921200290827 [Eh]
	 Opposite-Spin Energy      =      -1.2697421524950832 [Eh]
	 Correlation Energy        =      -1.6400342725241659 [Eh]
	 Total Energy              =   -1032.1813349435280998 [Eh]

	 ================> DF-SCS-MP2 Energies <==================
	-----------------------------------------------------------
	 SCS Same-Spin Scale       =       0.3333333333333333 [-]
	 SCS Opposite-Spin Scale   =       1.2000000000000000 [-]
	 SCS Same-Spin Energy      =      -0.1234307066763609 [Eh]
	 SCS Opposite-Spin Energy  =      -1.5236905829940997 [Eh]
	 SCS Correlation Energy    =      -1.6471212896704606 [Eh]
	 SCS Total Energy          =   -1032.1884219606743045 [Eh]
	-----------------------------------------------------------

  Dipole Moment: [D]
     X:     0.1071      Y:     1.7139      Z:    -0.8355     Total:     1.9097

*** Psi4 exiting successfully. Buy a developer a beer!
