                               Psi4 1.4a3.dev225

  ==> Input File <==

--------------------------------------------------------------------------
#psi4
#
memory 32 gb

molecule  {
0 1
  S       -0.2843280    -1.0417270    -0.4821980
  S       -1.2930110    -0.0875030     1.0369290
  C        2.1238360     0.2887940     0.2038120
  C        1.0396170     0.1533370    -0.8629480
  C        2.9192610    -1.0021330     0.3722660
  C        3.0446920     1.4546940    -0.1566970
  C       -2.4716130     0.9595520     0.1214340
  C       -3.5037086     0.2511104    -0.7414539
  H        1.6262820     0.5245100     1.1534320
  H        0.5779620     1.1249640    -1.0704080
  H        1.4790150    -0.2072190    -1.8028130
  H        3.4447910    -1.2503440    -0.5572920
  H        3.6685600    -0.8925200     1.1622280
  H        2.2689210    -1.8409590     0.6321870
  H        3.5445550     1.2705440    -1.1143240
  H        3.8190690     1.5865110     0.6053070
  H        2.4877540     2.3935860    -0.2389230
  H       -2.9081880     1.6071800     0.8902120
  H       -1.9135990     1.6021400    -0.5664420
  H       -3.1113200    -0.4862750    -1.3548320
  H       -4.1326660    -0.4262330     0.0924510
  H       -4.2326140     0.8656560    -1.1221410
units angstrom
no_reorient  #important for SAPT in psi4, default
symmetry c1  #important for SAPT in psi4, default
}

set PROPERTIES_ORIGIN ["COM"]
properties('MP2/aug-cc-pvtz', properties = ['dipole'])
--------------------------------------------------------------------------

    Molecular point group: c1
  Charge       = 0
  Multiplicity = 1
  Basis Set: AUG-CC-PVTZ
    Blend: AUG-CC-PVTZ
  Basis Set: (AUG-CC-PVTZ AUX)
    Blend: AUG-CC-PVTZ-JKFIT

    Orbital Energies [Eh]
    ---------------------

    Doubly Occupied:

       1A    -91.970086     2A    -91.968154     3A    -11.262886
       4A    -11.258195     5A    -11.231592     6A    -11.224903
       7A    -11.217266     8A    -11.210584     9A     -8.968696
      10A     -8.966943    11A     -6.649781    12A     -6.648547
      13A     -6.648002    14A     -6.647701    15A     -6.646790
      16A     -6.645993    17A     -1.111342    18A     -1.076853
      19A     -1.013025    20A     -0.937696    21A     -0.931643
      22A     -0.862968    23A     -0.794227    24A     -0.752524
      25A     -0.643529    26A     -0.632888    27A     -0.609245
      28A     -0.602923    29A     -0.585951    30A     -0.552751
      31A     -0.549657    32A     -0.536053    33A     -0.510804
      34A     -0.502877    35A     -0.477333    36A     -0.475189
      37A     -0.462977    38A     -0.456211    39A     -0.428574
      40A     -0.352951    41A     -0.346448

  @DF-RHF Final Energy: -1030.52480051687394

   => Energetics <=

    Nuclear Repulsion Energy =            555.6126621121485414
    One-Electron Energy =               -2521.5294076186551138
    Two-Electron Energy =                 935.3919449896327478
    Total Energy =                      -1030.5248005168739382
  Basis Set: (AUG-CC-PVTZ AUX)
    Blend: AUG-CC-PVTZ-RI
    Molecular point group: c1

    Geometry (in Angstrom), charge = 0, multiplicity = 1:

       Center              X                  Y                   Z               Mass
    ------------   -----------------  -----------------  -----------------  -----------------
         S           -0.244772360179    -1.008924854029    -0.493232338451    31.972071174400
         S           -1.253455360179    -0.054700854029     1.025894661549    31.972071174400
         C            2.163391639821     0.321596145971     0.192777661549    12.000000000000
         C            1.079172639821     0.186139145971    -0.873982338451    12.000000000000
         C            2.958816639821    -0.969330854029     0.361231661549    12.000000000000
         C            3.084247639821     1.487496145971    -0.167731338451    12.000000000000
         C           -2.432057360179     0.992354145971     0.110399661549    12.000000000000
         C           -3.464152960179     0.283912545971    -0.752488238451    12.000000000000
         H            1.665837639821     0.557312145971     1.142397661549     1.007825032230
         H            0.617517639821     1.157766145971    -1.081442338451     1.007825032230
         H            1.518570639821    -0.174416854029    -1.813847338451     1.007825032230
         H            3.484346639821    -1.217541854029    -0.568326338451     1.007825032230
         H            3.708115639821    -0.859717854029     1.151193661549     1.007825032230
         H            2.308476639821    -1.808156854029     0.621152661549     1.007825032230
         H            3.584110639821     1.303346145971    -1.125358338451     1.007825032230
         H            3.858624639821     1.619313145971     0.594272661549     1.007825032230
         H            2.527309639821     2.426388145971    -0.249957338451     1.007825032230
         H           -2.868632360179     1.639982145971     0.879177661549     1.007825032230
         H           -1.874043360179     1.634942145971    -0.577476338451     1.007825032230
         H           -3.071764360179    -0.453472854029    -1.365866338451     1.007825032230
         H           -4.093110360179    -0.393430854029     0.081416661549     1.007825032230
         H           -4.193058360179     0.898458145971    -1.133175338451     1.007825032230

  Basis Set: AUG-CC-PVTZ
    Blend: AUG-CC-PVTZ
  Basis Set: (AUG-CC-PVTZ AUX)
    Blend: AUG-CC-PVTZ-JKFIT
	 Reference Energy          =   -1030.5248005168739382 [Eh]
	 Singles Energy            =      -0.0000000000000000 [Eh]
	 Same-Spin Energy          =      -0.3703748628646236 [Eh]
	 Opposite-Spin Energy      =      -1.2700469511984060 [Eh]
	 Correlation Energy        =      -1.6404218140630296 [Eh]
	 Total Energy              =   -1032.1652223309370129 [Eh]

	 ================> DF-SCS-MP2 Energies <==================
	-----------------------------------------------------------
	 SCS Same-Spin Scale       =       0.3333333333333333 [-]
	 SCS Opposite-Spin Scale   =       1.2000000000000000 [-]
	 SCS Same-Spin Energy      =      -0.1234582876215412 [Eh]
	 SCS Opposite-Spin Energy  =      -1.5240563414380872 [Eh]
	 SCS Correlation Energy    =      -1.6475146290596283 [Eh]
	 SCS Total Energy          =   -1032.1723151459334531 [Eh]
	-----------------------------------------------------------

  Dipole Moment: [D]
     X:     0.2402      Y:     1.8048      Z:    -0.8961     Total:     2.0293

*** Psi4 exiting successfully. Buy a developer a beer!
