                               Psi4 1.4a3.dev225

  ==> Input File <==

--------------------------------------------------------------------------
#psi4
#
memory 32 gb

molecule  {
0 1
  S       -0.2843280    -1.0417270    -0.4821980
  S       -1.2930110    -0.0875030     1.0369290
  C        2.1238360     0.2887940     0.2038120
  C        1.0396170     0.1533370    -0.8629480
  C        2.8149866    -0.8329019     0.3501829
  C        3.0446920     1.4546940    -0.1566970
  C       -2.4716130     0.9595520     0.1214340
  C       -3.5526440     0.1784480    -0.6085900
  H        1.6262820     0.5245100     1.1534320
  H        0.5779620     1.1249640    -1.0704080
  H        1.4790150    -0.2072190    -1.8028130
  H        3.4447910    -1.2503440    -0.5572920
  H        3.6685600    -0.8925200     1.1622280
  H        2.2689210    -1.8409590     0.6321870
  H        3.5445550     1.2705440    -1.1143240
  H        3.8190690     1.5865110     0.6053070
  H        2.4877540     2.3935860    -0.2389230
  H       -2.9081880     1.6071800     0.8902120
  H       -1.9135990     1.6021400    -0.5664420
  H       -3.1113200    -0.4862750    -1.3548320
  H       -4.1326660    -0.4262330     0.0924510
  H       -4.2326140     0.8656560    -1.1221410
units angstrom
no_reorient  #important for SAPT in psi4, default
symmetry c1  #important for SAPT in psi4, default
}

set PROPERTIES_ORIGIN ["COM"]
properties('MP2/aug-cc-pvtz', properties = ['dipole'])
--------------------------------------------------------------------------

    Molecular point group: c1
  Charge       = 0
  Multiplicity = 1
  Basis Set: AUG-CC-PVTZ
    Blend: AUG-CC-PVTZ
  Basis Set: (AUG-CC-PVTZ AUX)
    Blend: AUG-CC-PVTZ-JKFIT

    Orbital Energies [Eh]
    ---------------------

    Doubly Occupied:

       1A    -91.968002     2A    -91.967547     3A    -11.262461
       4A    -11.259106     5A    -11.223729     6A    -11.221593
       7A    -11.220703     8A    -11.218504     9A     -8.966843
      10A     -8.966292    11A     -6.647951    12A     -6.647335
      13A     -6.646673    14A     -6.646141    15A     -6.645856
      16A     -6.645345    17A     -1.136279    18A     -1.083657
      19A     -1.017982    20A     -0.936818    21A     -0.933308
      22A     -0.860704    23A     -0.791301    24A     -0.754087
      25A     -0.657241    26A     -0.632336    27A     -0.613557
      28A     -0.594097    29A     -0.589254    30A     -0.556466
      31A     -0.541074    32A     -0.527948    33A     -0.518706
      34A     -0.509393    35A     -0.497465    36A     -0.473883
      37A     -0.447723    38A     -0.439458    39A     -0.425634
      40A     -0.353298    41A     -0.344426

  @DF-RHF Final Energy: -1030.49762756265022

   => Energetics <=

    Nuclear Repulsion Energy =            559.4401836823010399
    One-Electron Energy =               -2529.0952753810793183
    Two-Electron Energy =                 939.1574641361280555
    Total Energy =                      -1030.4976275626502229
  Basis Set: (AUG-CC-PVTZ AUX)
    Blend: AUG-CC-PVTZ-RI
    Molecular point group: c1

    Geometry (in Angstrom), charge = 0, multiplicity = 1:

       Center              X                  Y                   Z               Mass
    ------------   -----------------  -----------------  -----------------  -----------------
         S           -0.232519961950    -1.016647585662    -0.502091631250    31.972071174400
         S           -1.241202961950    -0.062423585662     1.017035368750    31.972071174400
         C            2.175644038050     0.313873414338     0.183918368750    12.000000000000
         C            1.091425038050     0.178416414338    -0.882841631250    12.000000000000
         C            2.866794638050    -0.807822485662     0.330289268750    12.000000000000
         C            3.096500038050     1.479773414338    -0.176590631250    12.000000000000
         C           -2.419804961950     0.984631414338     0.101540368750    12.000000000000
         C           -3.500835961950     0.203527414338    -0.628483631250    12.000000000000
         H            1.678090038050     0.549589414338     1.133538368750     1.007825032230
         H            0.629770038050     1.150043414338    -1.090301631250     1.007825032230
         H            1.530823038050    -0.182139585662    -1.822706631250     1.007825032230
         H            3.496599038050    -1.225264585662    -0.577185631250     1.007825032230
         H            3.720368038050    -0.867440585662     1.142334368750     1.007825032230
         H            2.320729038050    -1.815879585662     0.612293368750     1.007825032230
         H            3.596363038050     1.295623414338    -1.134217631250     1.007825032230
         H            3.870877038050     1.611590414338     0.585413368750     1.007825032230
         H            2.539562038050     2.418665414338    -0.258816631250     1.007825032230
         H           -2.856379961950     1.632259414338     0.870318368750     1.007825032230
         H           -1.861790961950     1.627219414338    -0.586335631250     1.007825032230
         H           -3.059511961950    -0.461195585662    -1.374725631250     1.007825032230
         H           -4.080857961950    -0.401153585662     0.072557368750     1.007825032230
         H           -4.180805961950     0.890735414338    -1.142034631250     1.007825032230

  Basis Set: AUG-CC-PVTZ
    Blend: AUG-CC-PVTZ
  Basis Set: (AUG-CC-PVTZ AUX)
    Blend: AUG-CC-PVTZ-JKFIT
	 Reference Energy          =   -1030.4976275626502229 [Eh]
	 Singles Energy            =      -0.0000000000000000 [Eh]
	 Same-Spin Energy          =      -0.3734143304919547 [Eh]
	 Opposite-Spin Energy      =      -1.2732664404540637 [Eh]
	 Correlation Energy        =      -1.6466807709460185 [Eh]
	 Total Energy              =   -1032.1443083335962001 [Eh]

	 ================> DF-SCS-MP2 Energies <==================
	-----------------------------------------------------------
	 SCS Same-Spin Scale       =       0.3333333333333333 [-]
	 SCS Opposite-Spin Scale   =       1.2000000000000000 [-]
	 SCS Same-Spin Energy      =      -0.1244714434973182 [Eh]
	 SCS Opposite-Spin Energy  =      -1.5279197285448765 [Eh]
	 SCS Correlation Energy    =      -1.6523911720421947 [Eh]
	 SCS Total Energy          =   -1032.1500187346923667 [Eh]
	-----------------------------------------------------------

  Dipole Moment: [D]
     X:     0.0437      Y:     1.7941      Z:    -0.8465     Total:     1.9842

*** Psi4 exiting successfully. Buy a developer a beer!
