                               Psi4 1.4a3.dev225

  ==> Input File <==

--------------------------------------------------------------------------
#psi4
#
memory 32 gb

molecule  {
0 1
  S       -0.2843280    -1.0417270    -0.4821980
  S       -1.2930110    -0.0875030     1.0369290
  C        2.1238360     0.2887940     0.2038120
  C        1.0396170     0.1533370    -0.8629480
  C        2.9192610    -1.0021330     0.3722660
  C        3.0446920     1.4546940    -0.1566970
  C       -2.4716130     0.9595520     0.1214340
  C       -3.5526440     0.1784480    -0.6085900
  H        1.6262820     0.5245100     1.1534320
  H        0.5779620     1.1249640    -1.0704080
  H        1.4790150    -0.2072190    -1.8028130
  H        3.4447910    -1.2503440    -0.5572920
  H        3.6685600    -0.8925200     1.1622280
  H        2.2986777    -1.8025780     0.6202942
  H        3.5445550     1.2705440    -1.1143240
  H        3.8190690     1.5865110     0.6053070
  H        2.4877540     2.3935860    -0.2389230
  H       -2.9081880     1.6071800     0.8902120
  H       -1.9135990     1.6021400    -0.5664420
  H       -3.1113200    -0.4862750    -1.3548320
  H       -4.1326660    -0.4262330     0.0924510
  H       -4.2326140     0.8656560    -1.1221410
units angstrom
no_reorient  #important for SAPT in psi4, default
symmetry c1  #important for SAPT in psi4, default
}

set PROPERTIES_ORIGIN ["COM"]
properties('MP2/aug-cc-pvtz', properties = ['dipole'])
--------------------------------------------------------------------------

    Molecular point group: c1
  Charge       = 0
  Multiplicity = 1
  Basis Set: AUG-CC-PVTZ
    Blend: AUG-CC-PVTZ
  Basis Set: (AUG-CC-PVTZ AUX)
    Blend: AUG-CC-PVTZ-JKFIT

    Orbital Energies [Eh]
    ---------------------

    Doubly Occupied:

       1A    -91.967569     2A    -91.967116     3A    -11.262158
       4A    -11.257499     5A    -11.230486     6A    -11.221330
       7A    -11.216391     8A    -11.204107     9A     -8.966414
      10A     -8.965879    11A     -6.647523    12A     -6.646930
      13A     -6.646245    14A     -6.645746    15A     -6.645424
      16A     -6.644946    17A     -1.110895    18A     -1.076728
      19A     -1.011943    20A     -0.936669    21A     -0.933434
      22A     -0.861083    23A     -0.794158    24A     -0.752241
      25A     -0.644164    26A     -0.630286    27A     -0.607817
      28A     -0.592849    29A     -0.585637    30A     -0.551261
      31A     -0.541456    32A     -0.534799    33A     -0.515137
      34A     -0.510144    35A     -0.492758    36A     -0.476046
      37A     -0.471462    38A     -0.452925    39A     -0.428988
      40A     -0.353072    41A     -0.344200

  @DF-RHF Final Energy: -1030.54716322023774

   => Energetics <=

    Nuclear Repulsion Energy =            555.9114003862313211
    One-Electron Energy =               -2522.2253017413886482
    Two-Electron Energy =                 935.7667381349194784
    Total Energy =                      -1030.5471632202377350
  Basis Set: (AUG-CC-PVTZ AUX)
    Blend: AUG-CC-PVTZ-RI
    Molecular point group: c1

    Geometry (in Angstrom), charge = 0, multiplicity = 1:

       Center              X                  Y                   Z               Mass
    ------------   -----------------  -----------------  -----------------  -----------------
         S           -0.241058787774    -1.003371725333    -0.503777769949    31.972071174400
         S           -1.249741787774    -0.049147725333     1.015349230051    31.972071174400
         C            2.167105212226     0.327149274667     0.182232230051    12.000000000000
         C            1.082886212226     0.191692274667    -0.884527769949    12.000000000000
         C            2.962530212226    -0.963777725333     0.350686230051    12.000000000000
         C            3.087961212226     1.493049274667    -0.178276769949    12.000000000000
         C           -2.428343787774     0.997907274667     0.099854230051    12.000000000000
         C           -3.509374787774     0.216803274667    -0.630169769949    12.000000000000
         H            1.669551212226     0.562865274667     1.131852230051     1.007825032230
         H            0.621231212226     1.163319274667    -1.091987769949     1.007825032230
         H            1.522284212226    -0.168863725333    -1.824392769949     1.007825032230
         H            3.488060212226    -1.211988725333    -0.578871769949     1.007825032230
         H            3.711829212226    -0.854164725333     1.140648230051     1.007825032230
         H            2.341946912226    -1.764222725333     0.598714430051     1.007825032230
         H            3.587824212226     1.308899274667    -1.135903769949     1.007825032230
         H            3.862338212226     1.624866274667     0.583727230051     1.007825032230
         H            2.531023212226     2.431941274667    -0.260502769949     1.007825032230
         H           -2.864918787774     1.645535274667     0.868632230051     1.007825032230
         H           -1.870329787774     1.640495274667    -0.588021769949     1.007825032230
         H           -3.068050787774    -0.447919725333    -1.376411769949     1.007825032230
         H           -4.089396787774    -0.387877725333     0.070871230051     1.007825032230
         H           -4.189344787774     0.904011274667    -1.143720769949     1.007825032230

  Basis Set: AUG-CC-PVTZ
    Blend: AUG-CC-PVTZ
  Basis Set: (AUG-CC-PVTZ AUX)
    Blend: AUG-CC-PVTZ-JKFIT
	 Reference Energy          =   -1030.5471632202377350 [Eh]
	 Singles Energy            =      -0.0000000000000000 [Eh]
	 Same-Spin Energy          =      -0.3700476659634809 [Eh]
	 Opposite-Spin Energy      =      -1.2685531436259350 [Eh]
	 Correlation Energy        =      -1.6386008095894158 [Eh]
	 Total Energy              =   -1032.1857640298271690 [Eh]

	 ================> DF-SCS-MP2 Energies <==================
	-----------------------------------------------------------
	 SCS Same-Spin Scale       =       0.3333333333333333 [-]
	 SCS Opposite-Spin Scale   =       1.2000000000000000 [-]
	 SCS Same-Spin Energy      =      -0.1233492219878270 [Eh]
	 SCS Opposite-Spin Energy  =      -1.5222637723511219 [Eh]
	 SCS Correlation Energy    =      -1.6456129943389488 [Eh]
	 SCS Total Energy          =   -1032.1927762145767247 [Eh]
	-----------------------------------------------------------

  Dipole Moment: [D]
     X:     0.1093      Y:     1.7456      Z:    -0.8557     Total:     1.9471

*** Psi4 exiting successfully. Buy a developer a beer!
