                               Psi4 1.4a3.dev225

  ==> Input File <==

--------------------------------------------------------------------------
#psi4
#
memory 32 gb

molecule  {
0 1
  S       -0.2843280    -1.0417270    -0.4821980
  S       -1.2930110    -0.0875030     1.0369290
  C        2.1238360     0.2887940     0.2038120
  C        1.0396170     0.1533370    -0.8629480
  C        2.9192610    -1.0021330     0.3722660
  C        3.0446920     1.4546940    -0.1566970
  C       -2.4716130     0.9595520     0.1214340
  C       -3.5526440     0.1784480    -0.6085900
  H        1.6262820     0.5245100     1.1534320
  H        0.5779620     1.1249640    -1.0704080
  H        1.4870159    -0.2137843    -1.8199268
  H        3.4447910    -1.2503440    -0.5572920
  H        3.6685600    -0.8925200     1.1622280
  H        2.2689210    -1.8409590     0.6321870
  H        3.5445550     1.2705440    -1.1143240
  H        3.8190690     1.5865110     0.6053070
  H        2.4877540     2.3935860    -0.2389230
  H       -2.9081880     1.6071800     0.8902120
  H       -1.9135990     1.6021400    -0.5664420
  H       -3.1113200    -0.4862750    -1.3548320
  H       -4.1326660    -0.4262330     0.0924510
  H       -4.2326140     0.8656560    -1.1221410
units angstrom
no_reorient  #important for SAPT in psi4, default
symmetry c1  #important for SAPT in psi4, default
}

set PROPERTIES_ORIGIN ["COM"]
properties('MP2/aug-cc-pvtz', properties = ['dipole'])
--------------------------------------------------------------------------

    Molecular point group: c1
  Charge       = 0
  Multiplicity = 1
  Basis Set: AUG-CC-PVTZ
    Blend: AUG-CC-PVTZ
  Basis Set: (AUG-CC-PVTZ AUX)
    Blend: AUG-CC-PVTZ-JKFIT

    Orbital Energies [Eh]
    ---------------------

    Doubly Occupied:

       1A    -91.967577     2A    -91.967131     3A    -11.262155
       4A    -11.259869     5A    -11.231123     6A    -11.221322
       7A    -11.216835     8A    -11.210074     9A     -8.966422
      10A     -8.965883    11A     -6.647530    12A     -6.646929
      13A     -6.646253    14A     -6.645744    15A     -6.645434
      16A     -6.644943    17A     -1.110312    18A     -1.076552
      19A     -1.011578    20A     -0.934303    21A     -0.931115
      22A     -0.860649    23A     -0.793486    24A     -0.750883
      25A     -0.643204    26A     -0.629822    27A     -0.604636
      28A     -0.591590    29A     -0.585145    30A     -0.550102
      31A     -0.541173    32A     -0.534839    33A     -0.513481
      34A     -0.508151    35A     -0.492691    36A     -0.475488
      37A     -0.471518    38A     -0.452679    39A     -0.428510
      40A     -0.352964    41A     -0.344188

  @DF-RHF Final Energy: -1030.54753817192068

   => Energetics <=

    Nuclear Repulsion Energy =            555.6131631782398017
    One-Electron Energy =               -2521.6528343694471914
    Two-Electron Energy =                 935.4921330192865980
    Total Energy =                      -1030.5475381719206780
  Basis Set: (AUG-CC-PVTZ AUX)
    Blend: AUG-CC-PVTZ-RI
    Molecular point group: c1

    Geometry (in Angstrom), charge = 0, multiplicity = 1:

       Center              X                  Y                   Z               Mass
    ------------   -----------------  -----------------  -----------------  -----------------
         S           -0.240912666480    -1.003069846683    -0.503742703471    31.972071174400
         S           -1.249595666480    -0.048845846683     1.015384296529    31.972071174400
         C            2.167251333520     0.327451153317     0.182267296529    12.000000000000
         C            1.083032333520     0.191994153317    -0.884492703471    12.000000000000
         C            2.962676333520    -0.963475846683     0.350721296529    12.000000000000
         C            3.088107333520     1.493351153317    -0.178241703471    12.000000000000
         C           -2.428197666480     0.998209153317     0.099889296529    12.000000000000
         C           -3.509228666480     0.217105153317    -0.630134703471    12.000000000000
         H            1.669697333520     0.563167153317     1.131887296529     1.007825032230
         H            0.621377333520     1.163621153317    -1.091952703471     1.007825032230
         H            1.530431233520    -0.175127146683    -1.841471503471     1.007825032230
         H            3.488206333520    -1.211686846683    -0.578836703471     1.007825032230
         H            3.711975333520    -0.853862846683     1.140683296529     1.007825032230
         H            2.312336333520    -1.802301846683     0.610642296529     1.007825032230
         H            3.587970333520     1.309201153317    -1.135868703471     1.007825032230
         H            3.862484333520     1.625168153317     0.583762296529     1.007825032230
         H            2.531169333520     2.432243153317    -0.260467703471     1.007825032230
         H           -2.864772666480     1.645837153317     0.868667296529     1.007825032230
         H           -1.870183666480     1.640797153317    -0.587986703471     1.007825032230
         H           -3.067904666480    -0.447617846683    -1.376376703471     1.007825032230
         H           -4.089250666480    -0.387575846683     0.070906296529     1.007825032230
         H           -4.189198666480     0.904313153317    -1.143685703471     1.007825032230

  Basis Set: AUG-CC-PVTZ
    Blend: AUG-CC-PVTZ
  Basis Set: (AUG-CC-PVTZ AUX)
    Blend: AUG-CC-PVTZ-JKFIT
	 Reference Energy          =   -1030.5475381719206780 [Eh]
	 Singles Energy            =      -0.0000000000000000 [Eh]
	 Same-Spin Energy          =      -0.3701421839369594 [Eh]
	 Opposite-Spin Energy      =      -1.2690528106964198 [Eh]
	 Correlation Energy        =      -1.6391949946333793 [Eh]
	 Total Energy              =   -1032.1867331665539496 [Eh]

	 ================> DF-SCS-MP2 Energies <==================
	-----------------------------------------------------------
	 SCS Same-Spin Scale       =       0.3333333333333333 [-]
	 SCS Opposite-Spin Scale   =       1.2000000000000000 [-]
	 SCS Same-Spin Energy      =      -0.1233807279789864 [Eh]
	 SCS Opposite-Spin Energy  =      -1.5228633728357037 [Eh]
	 SCS Correlation Energy    =      -1.6462441008146902 [Eh]
	 SCS Total Energy          =   -1032.1937822727354614 [Eh]
	-----------------------------------------------------------

  Dipole Moment: [D]
     X:     0.1126      Y:     1.7683      Z:    -0.8537     Total:     1.9669

*** Psi4 exiting successfully. Buy a developer a beer!
