                               Psi4 1.4a3.dev225

  ==> Input File <==

--------------------------------------------------------------------------
#psi4
#
memory 32 gb

molecule  {
0 1
  S       -0.2843280    -1.0417270    -0.4821980
  S       -1.2930110    -0.0875030     1.0369290
  C        2.1238360     0.2887940     0.2038120
  C        1.0396170     0.1533370    -0.8629480
  C        2.9192610    -1.0021330     0.3722660
  C        3.0145753     1.4165631    -0.1449065
  C       -2.4716130     0.9595520     0.1214340
  C       -3.5526440     0.1784480    -0.6085900
  H        1.6262820     0.5245100     1.1534320
  H        0.5779620     1.1249640    -1.0704080
  H        1.4790150    -0.2072190    -1.8028130
  H        3.4447910    -1.2503440    -0.5572920
  H        3.6685600    -0.8925200     1.1622280
  H        2.2689210    -1.8409590     0.6321870
  H        3.5445550     1.2705440    -1.1143240
  H        3.8190690     1.5865110     0.6053070
  H        2.4877540     2.3935860    -0.2389230
  H       -2.9081880     1.6071800     0.8902120
  H       -1.9135990     1.6021400    -0.5664420
  H       -3.1113200    -0.4862750    -1.3548320
  H       -4.1326660    -0.4262330     0.0924510
  H       -4.2326140     0.8656560    -1.1221410
units angstrom
no_reorient  #important for SAPT in psi4, default
symmetry c1  #important for SAPT in psi4, default
}

set PROPERTIES_ORIGIN ["COM"]
properties('MP2/aug-cc-pvtz', properties = ['dipole'])
--------------------------------------------------------------------------

    Molecular point group: c1
  Charge       = 0
  Multiplicity = 1
  Basis Set: AUG-CC-PVTZ
    Blend: AUG-CC-PVTZ
  Basis Set: (AUG-CC-PVTZ AUX)
    Blend: AUG-CC-PVTZ-JKFIT

    Orbital Energies [Eh]
    ---------------------

    Doubly Occupied:

       1A    -91.967618     2A    -91.967088     3A    -11.262175
       4A    -11.257813     5A    -11.228685     6A    -11.221343
       7A    -11.219570     8A    -11.210318     9A     -8.966459
      10A     -8.965858    11A     -6.647564    12A     -6.646913
      13A     -6.646291    14A     -6.645722    15A     -6.645472
      16A     -6.644923    17A     -1.114764    18A     -1.078632
      19A     -1.013396    20A     -0.935463    21A     -0.930487
      22A     -0.860443    23A     -0.793331    24A     -0.752995
      25A     -0.644884    26A     -0.630658    27A     -0.606812
      28A     -0.593377    29A     -0.586504    30A     -0.549770
      31A     -0.540977    32A     -0.530821    33A     -0.513660
      34A     -0.507658    35A     -0.491663    36A     -0.476400
      37A     -0.468241    38A     -0.455865    39A     -0.429133
      40A     -0.353047    41A     -0.344227

  @DF-RHF Final Energy: -1030.54502995864141

   => Energetics <=

    Nuclear Repulsion Energy =            556.6250866143706162
    One-Electron Energy =               -2523.6461933843847874
    Two-Electron Energy =                 936.4760768113728773
    Total Energy =                      -1030.5450299586414076
  Basis Set: (AUG-CC-PVTZ AUX)
    Blend: AUG-CC-PVTZ-RI
    Molecular point group: c1

    Geometry (in Angstrom), charge = 0, multiplicity = 1:

       Center              X                  Y                   Z               Mass
    ------------   -----------------  -----------------  -----------------  -----------------
         S           -0.238450455118    -1.000064561588    -0.504800549587    31.972071174400
         S           -1.247133455118    -0.045840561588     1.014326450413    31.972071174400
         C            2.169713544882     0.330456438412     0.181209450413    12.000000000000
         C            1.085494544882     0.194999438412    -0.885550549587    12.000000000000
         C            2.965138544882    -0.960470561588     0.349663450413    12.000000000000
         C            3.060452844882     1.458225538412    -0.167509049587    12.000000000000
         C           -2.425735455118     1.001214438412     0.098831450413    12.000000000000
         C           -3.506766455118     0.220110438412    -0.631192549587    12.000000000000
         H            1.672159544882     0.566172438412     1.130829450413     1.007825032230
         H            0.623839544882     1.166626438412    -1.093010549587     1.007825032230
         H            1.524892544882    -0.165556561588    -1.825415549587     1.007825032230
         H            3.490668544882    -1.208681561588    -0.579894549587     1.007825032230
         H            3.714437544882    -0.850857561588     1.139625450413     1.007825032230
         H            2.314798544882    -1.799296561588     0.609584450413     1.007825032230
         H            3.590432544882     1.312206438412    -1.136926549587     1.007825032230
         H            3.864946544882     1.628173438412     0.582704450413     1.007825032230
         H            2.533631544882     2.435248438412    -0.261525549587     1.007825032230
         H           -2.862310455118     1.648842438412     0.867609450413     1.007825032230
         H           -1.867721455118     1.643802438412    -0.589044549587     1.007825032230
         H           -3.065442455118    -0.444612561588    -1.377434549587     1.007825032230
         H           -4.086788455118    -0.384570561588     0.069848450413     1.007825032230
         H           -4.186736455118     0.907318438412    -1.144743549587     1.007825032230

  Basis Set: AUG-CC-PVTZ
    Blend: AUG-CC-PVTZ
  Basis Set: (AUG-CC-PVTZ AUX)
    Blend: AUG-CC-PVTZ-JKFIT
	 Reference Energy          =   -1030.5450299586414076 [Eh]
	 Singles Energy            =      -0.0000000000000000 [Eh]
	 Same-Spin Energy          =      -0.3705497358623334 [Eh]
	 Opposite-Spin Energy      =      -1.2693699210003961 [Eh]
	 Correlation Energy        =      -1.6399196568627294 [Eh]
	 Total Energy              =   -1032.1849496155041379 [Eh]

	 ================> DF-SCS-MP2 Energies <==================
	-----------------------------------------------------------
	 SCS Same-Spin Scale       =       0.3333333333333333 [-]
	 SCS Opposite-Spin Scale   =       1.2000000000000000 [-]
	 SCS Same-Spin Energy      =      -0.1235165786207778 [Eh]
	 SCS Opposite-Spin Energy  =      -1.5232439052004754 [Eh]
	 SCS Correlation Energy    =      -1.6467604838212531 [Eh]
	 SCS Total Energy          =   -1032.1917904424626613 [Eh]
	-----------------------------------------------------------

  Dipole Moment: [D]
     X:     0.1105      Y:     1.7652      Z:    -0.8586     Total:     1.9660

*** Psi4 exiting successfully. Buy a developer a beer!
