                               Psi4 1.4a3.dev225

  ==> Input File <==

--------------------------------------------------------------------------
#psi4
#
memory 32 gb

molecule  {
0 1
  S       -0.2843280    -1.0417270    -0.4821980
  S       -1.2930110    -0.0875030     1.0369290
  C        2.1238360     0.2887940     0.2038120
  C        1.0396170     0.1533370    -0.8629480
  C        2.9192610    -1.0021330     0.3722660
  C        3.0446920     1.4546940    -0.1566970
  C       -2.4716130     0.9595520     0.1214340
  C       -3.5526440     0.1784480    -0.6085900
  H        1.6262820     0.5245100     1.1534320
  H        0.5779620     1.1249640    -1.0704080
  H        1.4790150    -0.2072190    -1.8028130
  H        3.4447910    -1.2503440    -0.5572920
  H        3.6185701    -0.9817890     1.2137272
  H        2.2689210    -1.8409590     0.6321870
  H        3.5445550     1.2705440    -1.1143240
  H        3.8190690     1.5865110     0.6053070
  H        2.4877540     2.3935860    -0.2389230
  H       -2.9081880     1.6071800     0.8902120
  H       -1.9135990     1.6021400    -0.5664420
  H       -3.1113200    -0.4862750    -1.3548320
  H       -4.1326660    -0.4262330     0.0924510
  H       -4.2326140     0.8656560    -1.1221410
units angstrom
no_reorient  #important for SAPT in psi4, default
symmetry c1  #important for SAPT in psi4, default
}

set PROPERTIES_ORIGIN ["COM"]
properties('MP2/aug-cc-pvtz', properties = ['dipole'])
--------------------------------------------------------------------------

    Molecular point group: c1
  Charge       = 0
  Multiplicity = 1
  Basis Set: AUG-CC-PVTZ
    Blend: AUG-CC-PVTZ
  Basis Set: (AUG-CC-PVTZ AUX)
    Blend: AUG-CC-PVTZ-JKFIT

    Orbital Energies [Eh]
    ---------------------

    Doubly Occupied:

       1A    -91.967450     2A    -91.966849     3A    -11.262058
       4A    -11.257950     5A    -11.231604     6A    -11.221249
       7A    -11.216587     8A    -11.209870     9A     -8.966288
      10A     -8.965618    11A     -6.647390    12A     -6.646674
      13A     -6.646121    14A     -6.645476    15A     -6.645303
      16A     -6.644675    17A     -1.110573    18A     -1.076390
      19A     -1.011439    20A     -0.934979    21A     -0.931604
      22A     -0.860913    23A     -0.793848    24A     -0.752146
      25A     -0.645847    26A     -0.630349    27A     -0.601888
      28A     -0.590122    29A     -0.585468    30A     -0.551804
      31A     -0.542187    32A     -0.537444    33A     -0.512918
      34A     -0.504061    35A     -0.492508    36A     -0.477010
      37A     -0.471668    38A     -0.452116    39A     -0.428489
      40A     -0.352818    41A     -0.344101

  @DF-RHF Final Energy: -1030.54689186376186

   => Energetics <=

    Nuclear Repulsion Energy =            555.6703981712573750
    One-Electron Energy =               -2521.7668754814740169
    Two-Electron Energy =                 935.5495854464548984
    Total Energy =                      -1030.5468918637616298
  Basis Set: (AUG-CC-PVTZ AUX)
    Blend: AUG-CC-PVTZ-RI
    Molecular point group: c1

    Geometry (in Angstrom), charge = 0, multiplicity = 1:

       Center              X                  Y                   Z               Mass
    ------------   -----------------  -----------------  -----------------  -----------------
         S           -0.240523175366    -1.002514373122    -0.504203537841    31.972071174400
         S           -1.249206175366    -0.048290373122     1.014923462159    31.972071174400
         C            2.167640824634     0.328006626878     0.181806462159    12.000000000000
         C            1.083421824634     0.192549626878    -0.884953537841    12.000000000000
         C            2.963065824634    -0.962920373122     0.350260462159    12.000000000000
         C            3.088496824634     1.493906626878    -0.178702537841    12.000000000000
         C           -2.427808175366     0.998764626878     0.099428462159    12.000000000000
         C           -3.508839175366     0.217660626878    -0.630595537841    12.000000000000
         H            1.670086824634     0.563722626878     1.131426462159     1.007825032230
         H            0.621766824634     1.164176626878    -1.092413537841     1.007825032230
         H            1.522819824634    -0.168006373122    -1.824818537841     1.007825032230
         H            3.488595824634    -1.211131373122    -0.579297537841     1.007825032230
         H            3.662374924634    -0.942576373122     1.191721662159     1.007825032230
         H            2.312725824634    -1.801746373122     0.610181462159     1.007825032230
         H            3.588359824634     1.309756626878    -1.136329537841     1.007825032230
         H            3.862873824634     1.625723626878     0.583301462159     1.007825032230
         H            2.531558824634     2.432798626878    -0.260928537841     1.007825032230
         H           -2.864383175366     1.646392626878     0.868206462159     1.007825032230
         H           -1.869794175366     1.641352626878    -0.588447537841     1.007825032230
         H           -3.067515175366    -0.447062373122    -1.376837537841     1.007825032230
         H           -4.088861175366    -0.387020373122     0.070445462159     1.007825032230
         H           -4.188809175366     0.904868626878    -1.144146537841     1.007825032230

  Basis Set: AUG-CC-PVTZ
    Blend: AUG-CC-PVTZ
  Basis Set: (AUG-CC-PVTZ AUX)
    Blend: AUG-CC-PVTZ-JKFIT
	 Reference Energy          =   -1030.5468918637618572 [Eh]
	 Singles Energy            =      -0.0000000000000000 [Eh]
	 Same-Spin Energy          =      -0.3701362008593166 [Eh]
	 Opposite-Spin Energy      =      -1.2689084230864194 [Eh]
	 Correlation Energy        =      -1.6390446239457361 [Eh]
	 Total Energy              =   -1032.1859364877075222 [Eh]

	 ================> DF-SCS-MP2 Energies <==================
	-----------------------------------------------------------
	 SCS Same-Spin Scale       =       0.3333333333333333 [-]
	 SCS Opposite-Spin Scale   =       1.2000000000000000 [-]
	 SCS Same-Spin Energy      =      -0.1233787336197722 [Eh]
	 SCS Opposite-Spin Energy  =      -1.5226901077037032 [Eh]
	 SCS Correlation Energy    =      -1.6460688413234754 [Eh]
	 SCS Total Energy          =   -1032.1929607050853974 [Eh]
	-----------------------------------------------------------

  Dipole Moment: [D]
     X:     0.1068      Y:     1.7358      Z:    -0.8360     Total:     1.9296

*** Psi4 exiting successfully. Buy a developer a beer!
