                               Psi4 1.4a3.dev225

  ==> Input File <==

--------------------------------------------------------------------------
#psi4
#
memory 32 gb

molecule  {
0 1
  S       -0.2843280    -1.0417270    -0.4821980
  S       -1.2930110    -0.0875030     1.0369290
  C        2.1238360     0.2887940     0.2038120
  C        1.0396170     0.1533370    -0.8629480
  C        2.9192610    -1.0021330     0.3722660
  C        3.0446920     1.4546940    -0.1566970
  C       -2.4716130     0.9595520     0.1214340
  C       -3.5526440     0.1784480    -0.6085900
  H        1.6262820     0.5245100     1.1534320
  H        0.5779620     1.1249640    -1.0704080
  H        1.4790150    -0.2072190    -1.8028130
  H        3.4447910    -1.2503440    -0.5572920
  H        3.6685600    -0.8925200     1.1622280
  H        2.2689210    -1.8409590     0.6321870
  H        3.5536781     1.2671830    -1.1318018
  H        3.8190690     1.5865110     0.6053070
  H        2.4877540     2.3935860    -0.2389230
  H       -2.9081880     1.6071800     0.8902120
  H       -1.9135990     1.6021400    -0.5664420
  H       -3.1113200    -0.4862750    -1.3548320
  H       -4.1326660    -0.4262330     0.0924510
  H       -4.2326140     0.8656560    -1.1221410
units angstrom
no_reorient  #important for SAPT in psi4, default
symmetry c1  #important for SAPT in psi4, default
}

set PROPERTIES_ORIGIN ["COM"]
properties('MP2/aug-cc-pvtz', properties = ['dipole'])
--------------------------------------------------------------------------

    Molecular point group: c1
  Charge       = 0
  Multiplicity = 1
  Basis Set: AUG-CC-PVTZ
    Blend: AUG-CC-PVTZ
  Basis Set: (AUG-CC-PVTZ AUX)
    Blend: AUG-CC-PVTZ-JKFIT

    Orbital Energies [Eh]
    ---------------------

    Doubly Occupied:

       1A    -91.967541     2A    -91.967007     3A    -11.262134
       4A    -11.257598     5A    -11.231194     6A    -11.221308
       7A    -11.219332     8A    -11.210112     9A     -8.966382
      10A     -8.965778    11A     -6.647487    12A     -6.646832
      13A     -6.646215    14A     -6.645640    15A     -6.645396
      16A     -6.644841    17A     -1.110620    18A     -1.076491
      19A     -1.011561    20A     -0.935053    21A     -0.930115
      22A     -0.860787    23A     -0.793185    24A     -0.751760
      25A     -0.643342    26A     -0.629770    27A     -0.604914
      28A     -0.591705    29A     -0.585798    30A     -0.550240
      31A     -0.540890    32A     -0.533717    33A     -0.513587
      34A     -0.508147    35A     -0.492705    36A     -0.475584
      37A     -0.471262    38A     -0.452710    39A     -0.428744
      40A     -0.352929    41A     -0.344145

  @DF-RHF Final Energy: -1030.54760714886743

   => Energetics <=

    Nuclear Repulsion Energy =            555.6357144772024412
    One-Electron Energy =               -2521.6975210075124778
    Two-Electron Energy =                 935.5141993814426087
    Total Energy =                      -1030.5476071488674279
  Basis Set: (AUG-CC-PVTZ AUX)
    Blend: AUG-CC-PVTZ-RI
    Molecular point group: c1

    Geometry (in Angstrom), charge = 0, multiplicity = 1:

       Center              X                  Y                   Z               Mass
    ------------   -----------------  -----------------  -----------------  -----------------
         S           -0.240920203657    -1.003091368137    -0.503740258691    31.972071174400
         S           -1.249603203657    -0.048867368137     1.015386741309    31.972071174400
         C            2.167243796343     0.327429631863     0.182269741309    12.000000000000
         C            1.083024796343     0.191972631863    -0.884490258691    12.000000000000
         C            2.962668796343    -0.963497368137     0.350723741309    12.000000000000
         C            3.088099796343     1.493329631863    -0.178239258691    12.000000000000
         C           -2.428205203657     0.998187631863     0.099891741309    12.000000000000
         C           -3.509236203657     0.217083631863    -0.630132258691    12.000000000000
         H            1.669689796343     0.563145631863     1.131889741309     1.007825032230
         H            0.621369796343     1.163599631863    -1.091950258691     1.007825032230
         H            1.522422796343    -0.168583368137    -1.824355258691     1.007825032230
         H            3.488198796343    -1.211708368137    -0.578834258691     1.007825032230
         H            3.711967796343    -0.853884368137     1.140685741309     1.007825032230
         H            2.312328796343    -1.802323368137     0.610644741309     1.007825032230
         H            3.597085896343     1.305818631863    -1.153344058691     1.007825032230
         H            3.862476796343     1.625146631863     0.583764741309     1.007825032230
         H            2.531161796343     2.432221631863    -0.260465258691     1.007825032230
         H           -2.864780203657     1.645815631863     0.868669741309     1.007825032230
         H           -1.870191203657     1.640775631863    -0.587984258691     1.007825032230
         H           -3.067912203657    -0.447639368137    -1.376374258691     1.007825032230
         H           -4.089258203657    -0.387597368137     0.070908741309     1.007825032230
         H           -4.189206203657     0.904291631863    -1.143683258691     1.007825032230

  Basis Set: AUG-CC-PVTZ
    Blend: AUG-CC-PVTZ
  Basis Set: (AUG-CC-PVTZ AUX)
    Blend: AUG-CC-PVTZ-JKFIT
	 Reference Energy          =   -1030.5476071488674279 [Eh]
	 Singles Energy            =      -0.0000000000000000 [Eh]
	 Same-Spin Energy          =      -0.3701000215065956 [Eh]
	 Opposite-Spin Energy      =      -1.2690157036059686 [Eh]
	 Correlation Energy        =      -1.6391157251125641 [Eh]
	 Total Energy              =   -1032.1867228739799884 [Eh]

	 ================> DF-SCS-MP2 Energies <==================
	-----------------------------------------------------------
	 SCS Same-Spin Scale       =       0.3333333333333333 [-]
	 SCS Opposite-Spin Scale   =       1.2000000000000000 [-]
	 SCS Same-Spin Energy      =      -0.1233666738355319 [Eh]
	 SCS Opposite-Spin Energy  =      -1.5228188443271622 [Eh]
	 SCS Correlation Energy    =      -1.6461855181626941 [Eh]
	 SCS Total Energy          =   -1032.1937926670300385 [Eh]
	-----------------------------------------------------------

  Dipole Moment: [D]
     X:     0.1086      Y:     1.7665      Z:    -0.8513     Total:     1.9639

*** Psi4 exiting successfully. Buy a developer a beer!
