                               Psi4 1.4a3.dev225

  ==> Input File <==

--------------------------------------------------------------------------
#psi4
#
memory 32 gb

molecule  {
0 1
  S       -0.2843280    -1.0417270    -0.4821980
  S       -1.2930110    -0.0875030     1.0369290
  C        2.1238360     0.2887940     0.2038120
  C        1.0396170     0.1533370    -0.8629480
  C        2.9192610    -1.0021330     0.3722660
  C        3.0446920     1.4546940    -0.1566970
  C       -2.4716130     0.9595520     0.1214340
  C       -3.5526440     0.1784480    -0.6085900
  H        1.6262820     0.5245100     1.1534320
  H        0.5779620     1.1249640    -1.0704080
  H        1.4790150    -0.2072190    -1.8028130
  H        3.4447910    -1.2503440    -0.5572920
  H        3.8055052    -0.8724866     1.3066049
  H        2.2689210    -1.8409590     0.6321870
  H        3.5445550     1.2705440    -1.1143240
  H        3.8190690     1.5865110     0.6053070
  H        2.4877540     2.3935860    -0.2389230
  H       -2.9081880     1.6071800     0.8902120
  H       -1.9135990     1.6021400    -0.5664420
  H       -3.1113200    -0.4862750    -1.3548320
  H       -4.1326660    -0.4262330     0.0924510
  H       -4.2326140     0.8656560    -1.1221410
units angstrom
no_reorient  #important for SAPT in psi4, default
symmetry c1  #important for SAPT in psi4, default
}

set PROPERTIES_ORIGIN ["COM"]
properties('MP2/aug-cc-pvtz', properties = ['dipole'])
--------------------------------------------------------------------------

    Molecular point group: c1
  Charge       = 0
  Multiplicity = 1
  Basis Set: AUG-CC-PVTZ
    Blend: AUG-CC-PVTZ
  Basis Set: (AUG-CC-PVTZ AUX)
    Blend: AUG-CC-PVTZ-JKFIT

    Orbital Energies [Eh]
    ---------------------

    Doubly Occupied:

       1A    -91.968540     2A    -91.968357     3A    -11.262946
       4A    -11.259784     5A    -11.233769     6A    -11.233109
       7A    -11.221985     8A    -11.216975     9A     -8.967401
      10A     -8.967116    11A     -6.648533    12A     -6.648135
      13A     -6.647214    14A     -6.646998    15A     -6.646387
      16A     -6.646200    17A     -1.111642    18A     -1.077007
      19A     -1.011691    20A     -0.935321    21A     -0.923068
      22A     -0.861070    23A     -0.792443    24A     -0.752312
      25A     -0.640757    26A     -0.630257    27A     -0.601790
      28A     -0.591486    29A     -0.586680    30A     -0.551862
      31A     -0.542128    32A     -0.531133    33A     -0.513541
      34A     -0.502225    35A     -0.483699    36A     -0.477153
      37A     -0.465449    38A     -0.452611    39A     -0.429953
      40A     -0.354150    41A     -0.345280

  @DF-RHF Final Energy: -1030.52824063519438

   => Energetics <=

    Nuclear Repulsion Energy =            554.8619338495661850
    One-Electron Energy =               -2520.0840387785824532
    Two-Electron Energy =                 934.6938642938217754
    Total Energy =                      -1030.5282406351943791
  Basis Set: (AUG-CC-PVTZ AUX)
    Blend: AUG-CC-PVTZ-RI
    Molecular point group: c1

    Geometry (in Angstrom), charge = 0, multiplicity = 1:

       Center              X                  Y                   Z               Mass
    ------------   -----------------  -----------------  -----------------  -----------------
         S           -0.241778711766    -1.003248494973    -0.504827344355    31.972071174400
         S           -1.250461711766    -0.049024494973     1.014299655645    31.972071174400
         C            2.166385288234     0.327272505027     0.181182655645    12.000000000000
         C            1.082166288234     0.191815505027    -0.885577344355    12.000000000000
         C            2.961810288234    -0.963654494973     0.349636655645    12.000000000000
         C            3.087241288234     1.493172505027    -0.179326344355    12.000000000000
         C           -2.429063711766     0.998030505027     0.098804655645    12.000000000000
         C           -3.510094711766     0.216926505027    -0.631219344355    12.000000000000
         H            1.668831288234     0.562988505027     1.130802655645     1.007825032230
         H            0.620511288234     1.163442505027    -1.093037344355     1.007825032230
         H            1.521564288234    -0.168740494973    -1.825442344355     1.007825032230
         H            3.487340288234    -1.211865494973    -0.579921344355     1.007825032230
         H            3.848054488234    -0.834008094973     1.283975555645     1.007825032230
         H            2.311470288234    -1.802480494973     0.609557655645     1.007825032230
         H            3.587104288234     1.309022505027    -1.136953344355     1.007825032230
         H            3.861618288234     1.624989505027     0.582677655645     1.007825032230
         H            2.530303288234     2.432064505027    -0.261552344355     1.007825032230
         H           -2.865638711766     1.645658505027     0.867582655645     1.007825032230
         H           -1.871049711766     1.640618505027    -0.589071344355     1.007825032230
         H           -3.068770711766    -0.447796494973    -1.377461344355     1.007825032230
         H           -4.090116711766    -0.387754494973     0.069821655645     1.007825032230
         H           -4.190064711766     0.904134505027    -1.144770344355     1.007825032230

  Basis Set: AUG-CC-PVTZ
    Blend: AUG-CC-PVTZ
  Basis Set: (AUG-CC-PVTZ AUX)
    Blend: AUG-CC-PVTZ-JKFIT
	 Reference Energy          =   -1030.5282406351943791 [Eh]
	 Singles Energy            =      -0.0000000000000000 [Eh]
	 Same-Spin Energy          =      -0.3700564571660103 [Eh]
	 Opposite-Spin Energy      =      -1.2704472804491269 [Eh]
	 Correlation Energy        =      -1.6405037376151372 [Eh]
	 Total Energy              =   -1032.1687443728094422 [Eh]

	 ================> DF-SCS-MP2 Energies <==================
	-----------------------------------------------------------
	 SCS Same-Spin Scale       =       0.3333333333333333 [-]
	 SCS Opposite-Spin Scale   =       1.2000000000000000 [-]
	 SCS Same-Spin Energy      =      -0.1233521523886701 [Eh]
	 SCS Opposite-Spin Energy  =      -1.5245367365389522 [Eh]
	 SCS Correlation Energy    =      -1.6478888889276222 [Eh]
	 SCS Total Energy          =   -1032.1761295241219614 [Eh]
	-----------------------------------------------------------

  Dipole Moment: [D]
     X:    -0.0454      Y:     1.7912      Z:    -0.9676     Total:     2.0363

*** Psi4 exiting successfully. Buy a developer a beer!
