                               Psi4 1.4a3.dev225

  ==> Input File <==

--------------------------------------------------------------------------
#psi4
#
memory 32 gb

molecule  {
0 1
  S       -0.2843280    -1.0417270    -0.4821980
  S       -1.2930110    -0.0875030     1.0369290
  C        2.1238360     0.2887940     0.2038120
  C        1.0396170     0.1533370    -0.8629480
  C        2.9296884    -1.0190561     0.3744743
  C        3.0446920     1.4546940    -0.1566970
  C       -2.4716130     0.9595520     0.1214340
  C       -3.5526440     0.1784480    -0.6085900
  H        1.6262820     0.5245100     1.1534320
  H        0.5779620     1.1249640    -1.0704080
  H        1.4790150    -0.2072190    -1.8028130
  H        3.4447910    -1.2503440    -0.5572920
  H        3.6685600    -0.8925200     1.1622280
  H        2.2689210    -1.8409590     0.6321870
  H        3.5445550     1.2705440    -1.1143240
  H        3.8190690     1.5865110     0.6053070
  H        2.4877540     2.3935860    -0.2389230
  H       -2.9081880     1.6071800     0.8902120
  H       -1.9135990     1.6021400    -0.5664420
  H       -3.1113200    -0.4862750    -1.3548320
  H       -4.1326660    -0.4262330     0.0924510
  H       -4.2326140     0.8656560    -1.1221410
units angstrom
no_reorient  #important for SAPT in psi4, default
symmetry c1  #important for SAPT in psi4, default
}

set PROPERTIES_ORIGIN ["COM"]
properties('MP2/aug-cc-pvtz', properties = ['dipole'])
--------------------------------------------------------------------------

    Molecular point group: c1
  Charge       = 0
  Multiplicity = 1
  Basis Set: AUG-CC-PVTZ
    Blend: AUG-CC-PVTZ
  Basis Set: (AUG-CC-PVTZ AUX)
    Blend: AUG-CC-PVTZ-JKFIT

    Orbital Energies [Eh]
    ---------------------

    Doubly Occupied:

       1A    -91.967483     2A    -91.966959     3A    -11.262087
       4A    -11.257520     5A    -11.231754     6A    -11.221271
       7A    -11.216790     8A    -11.209266     9A     -8.966324
      10A     -8.965729    11A     -6.647429    12A     -6.646783
      13A     -6.646157    14A     -6.645593    15A     -6.645337
      16A     -6.644793    17A     -1.109351    18A     -1.075787
      19A     -1.011181    20A     -0.935031    21A     -0.931264
      22A     -0.860980    23A     -0.793606    24A     -0.751664
      25A     -0.642764    26A     -0.629550    27A     -0.604706
      28A     -0.591742    29A     -0.585473    30A     -0.551210
      31A     -0.541763    32A     -0.536551    33A     -0.514415
      34A     -0.509681    35A     -0.492942    36A     -0.473671
      37A     -0.469991    38A     -0.452971    39A     -0.428620
      40A     -0.352867    41A     -0.344080

  @DF-RHF Final Energy: -1030.54797700932477

   => Energetics <=

    Nuclear Repulsion Energy =            555.3769806622344731
    One-Electron Energy =               -2521.1836397771639895
    Two-Electron Energy =                 935.2586821056046347
    Total Energy =                      -1030.5479770093247680
  Basis Set: (AUG-CC-PVTZ AUX)
    Blend: AUG-CC-PVTZ-RI
    Molecular point group: c1

    Geometry (in Angstrom), charge = 0, multiplicity = 1:

       Center              X                  Y                   Z               Mass
    ------------   -----------------  -----------------  -----------------  -----------------
         S           -0.241692822506    -1.001760578496    -0.504034247886    31.972071174400
         S           -1.250375822506    -0.047536578496     1.015092752114    31.972071174400
         C            2.166471177494     0.328760421504     0.181975752114    12.000000000000
         C            1.082252177494     0.193303421504    -0.884784247886    12.000000000000
         C            2.972323577494    -0.979089678496     0.352638052114    12.000000000000
         C            3.087327177494     1.494660421504    -0.178533247886    12.000000000000
         C           -2.428977822506     0.999518421504     0.099597752114    12.000000000000
         C           -3.510008822506     0.218414421504    -0.630426247886    12.000000000000
         H            1.668917177494     0.564476421504     1.131595752114     1.007825032230
         H            0.620597177494     1.164930421504    -1.092244247886     1.007825032230
         H            1.521650177494    -0.167252578496    -1.824649247886     1.007825032230
         H            3.487426177494    -1.210377578496    -0.579128247886     1.007825032230
         H            3.711195177494    -0.852553578496     1.140391752114     1.007825032230
         H            2.311556177494    -1.800992578496     0.610350752114     1.007825032230
         H            3.587190177494     1.310510421504    -1.136160247886     1.007825032230
         H            3.861704177494     1.626477421504     0.583470752114     1.007825032230
         H            2.530389177494     2.433552421504    -0.260759247886     1.007825032230
         H           -2.865552822506     1.647146421504     0.868375752114     1.007825032230
         H           -1.870963822506     1.642106421504    -0.588278247886     1.007825032230
         H           -3.068684822506    -0.446308578496    -1.376668247886     1.007825032230
         H           -4.090030822506    -0.386266578496     0.070614752114     1.007825032230
         H           -4.189978822506     0.905622421504    -1.143977247886     1.007825032230

  Basis Set: AUG-CC-PVTZ
    Blend: AUG-CC-PVTZ
  Basis Set: (AUG-CC-PVTZ AUX)
    Blend: AUG-CC-PVTZ-JKFIT
	 Reference Energy          =   -1030.5479770093247680 [Eh]
	 Singles Energy            =      -0.0000000000000000 [Eh]
	 Same-Spin Energy          =      -0.3699630395228036 [Eh]
	 Opposite-Spin Energy      =      -1.2687855344213863 [Eh]
	 Correlation Energy        =      -1.6387485739441900 [Eh]
	 Total Energy              =   -1032.1867255832689807 [Eh]

	 ================> DF-SCS-MP2 Energies <==================
	-----------------------------------------------------------
	 SCS Same-Spin Scale       =       0.3333333333333333 [-]
	 SCS Opposite-Spin Scale   =       1.2000000000000000 [-]
	 SCS Same-Spin Energy      =      -0.1233210131742679 [Eh]
	 SCS Opposite-Spin Energy  =      -1.5225426413056635 [Eh]
	 SCS Correlation Energy    =      -1.6458636544799314 [Eh]
	 SCS Total Energy          =   -1032.1938406638046217 [Eh]
	-----------------------------------------------------------

  Dipole Moment: [D]
     X:     0.1174      Y:     1.7715      Z:    -0.8642     Total:     1.9746

*** Psi4 exiting successfully. Buy a developer a beer!
