                               Psi4 1.4a3.dev225

  ==> Input File <==

--------------------------------------------------------------------------
#psi4
#
memory 32 gb

molecule  {
0 1
  S       -0.2843280    -1.0417270    -0.4821980
  S       -1.2930110    -0.0875030     1.0369290
  C        2.1238360     0.2887940     0.2038120
  C        1.0396170     0.1533370    -0.8629480
  C        2.9192610    -1.0021330     0.3722660
  C        3.0446920     1.4546940    -0.1566970
  C       -2.4716130     0.9595520     0.1214340
  C       -3.5526440     0.1784480    -0.6085900
  H        1.6262820     0.5245100     1.1534320
  H        0.5779620     1.1249640    -1.0704080
  H        1.4790150    -0.2072190    -1.8028130
  H        3.4447910    -1.2503440    -0.5572920
  H        3.6685600    -0.8925200     1.1622280
  H        2.2689210    -1.8409590     0.6321870
  H        3.5445550     1.2705440    -1.1143240
  H        3.8190690     1.5865110     0.6053070
  H        2.4877540     2.3935860    -0.2389230
  H       -2.9081880     1.6071800     0.8902120
  H       -1.9135990     1.6021400    -0.5664420
  H       -3.1113200    -0.4862750    -1.3548320
  H       -4.1326660    -0.4262330     0.0924510
  H       -4.2636716     0.8970442    -1.1455974
units angstrom
no_reorient  #important for SAPT in psi4, default
symmetry c1  #important for SAPT in psi4, default
}

set PROPERTIES_ORIGIN ["COM"]
properties('MP2/aug-cc-pvtz', properties = ['dipole'])
--------------------------------------------------------------------------

    Molecular point group: c1
  Charge       = 0
  Multiplicity = 1
  Basis Set: AUG-CC-PVTZ
    Blend: AUG-CC-PVTZ
  Basis Set: (AUG-CC-PVTZ AUX)
    Blend: AUG-CC-PVTZ-JKFIT

    Orbital Energies [Eh]
    ---------------------

    Doubly Occupied:

       1A    -91.967969     2A    -91.967268     3A    -11.262560
       4A    -11.257776     5A    -11.231119     6A    -11.227365
       7A    -11.216967     8A    -11.210232     9A     -8.966804
      10A     -8.966044    11A     -6.647899    12A     -6.647108
      13A     -6.646633    14A     -6.645904    15A     -6.645816
      16A     -6.645103    17A     -1.110866    18A     -1.076340
      19A     -1.011004    20A     -0.933736    21A     -0.931170
      22A     -0.859478    23A     -0.793513    24A     -0.752105
      25A     -0.643744    26A     -0.630207    27A     -0.604676
      28A     -0.589557    29A     -0.581058    30A     -0.551244
      31A     -0.541713    32A     -0.535155    33A     -0.514070
      34A     -0.508391    35A     -0.491177    36A     -0.475361
      37A     -0.471321    38A     -0.452135    39A     -0.429010
      40A     -0.353250    41A     -0.344384

  @DF-RHF Final Energy: -1030.54607583917300

   => Energetics <=

    Nuclear Repulsion Energy =            555.4923616892765494
    One-Electron Energy =               -2521.4024009423155803
    Two-Electron Energy =                 935.3639634138660313
    Total Energy =                      -1030.5460758391729996
  Basis Set: (AUG-CC-PVTZ AUX)
    Blend: AUG-CC-PVTZ-RI
    Molecular point group: c1

    Geometry (in Angstrom), charge = 0, multiplicity = 1:

       Center              X                  Y                   Z               Mass
    ------------   -----------------  -----------------  -----------------  -----------------
         S           -0.240650332822    -1.003324758686    -0.503700103846    31.972071174400
         S           -1.249333332822    -0.049100758686     1.015426896154    31.972071174400
         C            2.167513667178     0.327196241314     0.182309896154    12.000000000000
         C            1.083294667178     0.191739241314    -0.884450103846    12.000000000000
         C            2.962938667178    -0.963730758686     0.350763896154    12.000000000000
         C            3.088369667178     1.493096241314    -0.178199103846    12.000000000000
         C           -2.427935332822     0.997954241314     0.099931896154    12.000000000000
         C           -3.508966332822     0.216850241314    -0.630092103846    12.000000000000
         H            1.669959667178     0.562912241314     1.131929896154     1.007825032230
         H            0.621639667178     1.163366241314    -1.091910103846     1.007825032230
         H            1.522692667178    -0.168816758686    -1.824315103846     1.007825032230
         H            3.488468667178    -1.211941758686    -0.578794103846     1.007825032230
         H            3.712237667178    -0.854117758686     1.140725896154     1.007825032230
         H            2.312598667178    -1.802556758686     0.610684896154     1.007825032230
         H            3.588232667178     1.308946241314    -1.135826103846     1.007825032230
         H            3.862746667178     1.624913241314     0.583804896154     1.007825032230
         H            2.531431667178     2.431988241314    -0.260425103846     1.007825032230
         H           -2.864510332822     1.645582241314     0.868709896154     1.007825032230
         H           -1.869921332822     1.640542241314    -0.587944103846     1.007825032230
         H           -3.067642332822    -0.447872758686    -1.376334103846     1.007825032230
         H           -4.088988332822    -0.387830758686     0.070948896154     1.007825032230
         H           -4.219993932822     0.935446441314    -1.167099503846     1.007825032230

  Basis Set: AUG-CC-PVTZ
    Blend: AUG-CC-PVTZ
  Basis Set: (AUG-CC-PVTZ AUX)
    Blend: AUG-CC-PVTZ-JKFIT
	 Reference Energy          =   -1030.5460758391729996 [Eh]
	 Singles Energy            =      -0.0000000000000000 [Eh]
	 Same-Spin Energy          =      -0.3700860425355650 [Eh]
	 Opposite-Spin Energy      =      -1.2691984198439987 [Eh]
	 Correlation Energy        =      -1.6392844623795637 [Eh]
	 Total Energy              =   -1032.1853603015524641 [Eh]

	 ================> DF-SCS-MP2 Energies <==================
	-----------------------------------------------------------
	 SCS Same-Spin Scale       =       0.3333333333333333 [-]
	 SCS Opposite-Spin Scale   =       1.2000000000000000 [-]
	 SCS Same-Spin Energy      =      -0.1233620141785217 [Eh]
	 SCS Opposite-Spin Energy  =      -1.5230381038127985 [Eh]
	 SCS Correlation Energy    =      -1.6464001179913201 [Eh]
	 SCS Total Energy          =   -1032.1924759571643335 [Eh]
	-----------------------------------------------------------

  Dipole Moment: [D]
     X:     0.1548      Y:     1.7511      Z:    -0.8430     Total:     1.9496

*** Psi4 exiting successfully. Buy a developer a beer!
