                               Psi4 1.4a3.dev225

  ==> Input File <==

--------------------------------------------------------------------------
#psi4
#
memory 32 gb

molecule  {
0 1
  S       -0.2843280    -1.0417270    -0.4821980
  S       -1.2930110    -0.0875030     1.0369290
  C        2.1238360     0.2887940     0.2038120
  C        1.0396170     0.1533370    -0.8629480
  C        2.9192610    -1.0021330     0.3722660
  C        3.0446920     1.4546940    -0.1566970
  C       -2.4716130     0.9595520     0.1214340
  C       -3.5526440     0.1784480    -0.6085900
  H        1.6262820     0.5245100     1.1534320
  H        0.5779620     1.1249640    -1.0704080
  H        1.4790150    -0.2072190    -1.8028130
  H        3.4447910    -1.2503440    -0.5572920
  H        3.6685600    -0.8925200     1.1622280
  H        2.2689210    -1.8409590     0.6321870
  H        3.5445550     1.2705440    -1.1143240
  H        3.8190690     1.5865110     0.6053070
  H        2.4877540     2.3935860    -0.2389230
  H       -2.9081880     1.6071800     0.8902120
  H       -1.9135990     1.6021400    -0.5664420
  H       -3.1113200    -0.4862750    -1.3548320
  H       -4.1326660    -0.4262330     0.0924510
  H       -4.2450370     0.8782113    -1.1315236
units angstrom
no_reorient  #important for SAPT in psi4, default
symmetry c1  #important for SAPT in psi4, default
}

set PROPERTIES_ORIGIN ["COM"]
properties('MP2/aug-cc-pvtz', properties = ['dipole'])
--------------------------------------------------------------------------

    Molecular point group: c1
  Charge       = 0
  Multiplicity = 1
  Basis Set: AUG-CC-PVTZ
    Blend: AUG-CC-PVTZ
  Basis Set: (AUG-CC-PVTZ AUX)
    Blend: AUG-CC-PVTZ-JKFIT

    Orbital Energies [Eh]
    ---------------------

    Doubly Occupied:

       1A    -91.967680     2A    -91.967085     3A    -11.262276
       4A    -11.257640     5A    -11.231004     6A    -11.223734
       7A    -11.216883     8A    -11.210136     9A     -8.966518
      10A     -8.965857    11A     -6.647619    12A     -6.646915
      13A     -6.646350    14A     -6.645718    15A     -6.645531
      16A     -6.644918    17A     -1.110739    18A     -1.076438
      19A     -1.011391    20A     -0.934489    21A     -0.931142
      22A     -0.860327    23A     -0.793542    24A     -0.751982
      25A     -0.643621    26A     -0.629952    27A     -0.604805
      28A     -0.590386    29A     -0.584214    30A     -0.551378
      31A     -0.541384    32A     -0.535024    33A     -0.513802
      34A     -0.508200    35A     -0.492091    36A     -0.475400
      37A     -0.471575    38A     -0.452463    39A     -0.428816
      40A     -0.353028    41A     -0.344206

  @DF-RHF Final Energy: -1030.54760647699527

   => Energetics <=

    Nuclear Repulsion Energy =            555.6288742091099948
    One-Electron Energy =               -2521.6804414771058873
    Two-Electron Energy =                 935.5039607910003951
    Total Energy =                      -1030.5476064769954974
  Basis Set: (AUG-CC-PVTZ AUX)
    Blend: AUG-CC-PVTZ-RI
    Molecular point group: c1

    Geometry (in Angstrom), charge = 0, multiplicity = 1:

       Center              X                  Y                   Z               Mass
    ------------   -----------------  -----------------  -----------------  -----------------
         S           -0.240775490797    -1.003198268843    -0.503794629530    31.972071174400
         S           -1.249458490797    -0.048974268843     1.015332370470    31.972071174400
         C            2.167388509203     0.327322731157     0.182215370470    12.000000000000
         C            1.083169509203     0.191865731157    -0.884544629530    12.000000000000
         C            2.962813509203    -0.963604268843     0.350669370470    12.000000000000
         C            3.088244509203     1.493222731157    -0.178293629530    12.000000000000
         C           -2.428060490797     0.998080731157     0.099837370470    12.000000000000
         C           -3.509091490797     0.216976731157    -0.630186629530    12.000000000000
         H            1.669834509203     0.563038731157     1.131835370470     1.007825032230
         H            0.621514509203     1.163492731157    -1.092004629530     1.007825032230
         H            1.522567509203    -0.168690268843    -1.824409629530     1.007825032230
         H            3.488343509203    -1.211815268843    -0.578888629530     1.007825032230
         H            3.712112509203    -0.853991268843     1.140631370470     1.007825032230
         H            2.312473509203    -1.802430268843     0.610590370470     1.007825032230
         H            3.588107509203     1.309072731157    -1.135920629530     1.007825032230
         H            3.862621509203     1.625039731157     0.583710370470     1.007825032230
         H            2.531306509203     2.432114731157    -0.260519629530     1.007825032230
         H           -2.864635490797     1.645708731157     0.868615370470     1.007825032230
         H           -1.870046490797     1.640668731157    -0.588038629530     1.007825032230
         H           -3.067767490797    -0.447746268843    -1.376428629530     1.007825032230
         H           -4.089113490797    -0.387704268843     0.070854370470     1.007825032230
         H           -4.201484490797     0.916740031157    -1.153120229530     1.007825032230

  Basis Set: AUG-CC-PVTZ
    Blend: AUG-CC-PVTZ
  Basis Set: (AUG-CC-PVTZ AUX)
    Blend: AUG-CC-PVTZ-JKFIT
	 Reference Energy          =   -1030.5476064769952700 [Eh]
	 Singles Energy            =      -0.0000000000000000 [Eh]
	 Same-Spin Energy          =      -0.3700955022584774 [Eh]
	 Opposite-Spin Energy      =      -1.2690108685295178 [Eh]
	 Correlation Energy        =      -1.6391063707879951 [Eh]
	 Total Energy              =   -1032.1867128477831557 [Eh]

	 ================> DF-SCS-MP2 Energies <==================
	-----------------------------------------------------------
	 SCS Same-Spin Scale       =       0.3333333333333333 [-]
	 SCS Opposite-Spin Scale   =       1.2000000000000000 [-]
	 SCS Same-Spin Energy      =      -0.1233651674194925 [Eh]
	 SCS Opposite-Spin Energy  =      -1.5228130422354214 [Eh]
	 SCS Correlation Energy    =      -1.6461782096549138 [Eh]
	 SCS Total Energy          =   -1032.1937846866501332 [Eh]
	-----------------------------------------------------------

  Dipole Moment: [D]
     X:     0.1315      Y:     1.7611      Z:    -0.8547     Total:     1.9620

*** Psi4 exiting successfully. Buy a developer a beer!
