                               Psi4 1.4a3.dev225

  ==> Input File <==

--------------------------------------------------------------------------
#psi4
#
memory 32 gb

molecule  {
0 1
  S       -0.2843280    -1.0417270    -0.4821980
  S       -1.2930110    -0.0875030     1.0369290
  C        2.1238360     0.2887940     0.2038120
  C        1.0396170     0.1533370    -0.8629480
  C        2.9192610    -1.0021330     0.3722660
  C        3.0446920     1.4546940    -0.1566970
  C       -2.4716130     0.9595520     0.1214340
  C       -3.5526440     0.1784480    -0.6085900
  H        1.6262820     0.5245100     1.1534320
  H        0.5779620     1.1249640    -1.0704080
  H        1.4790150    -0.2072190    -1.8028130
  H        3.4447910    -1.2503440    -0.5572920
  H        3.7103404    -0.8044520     1.1020739
  H        2.2689210    -1.8409590     0.6321870
  H        3.5445550     1.2705440    -1.1143240
  H        3.8190690     1.5865110     0.6053070
  H        2.4877540     2.3935860    -0.2389230
  H       -2.9081880     1.6071800     0.8902120
  H       -1.9135990     1.6021400    -0.5664420
  H       -3.1113200    -0.4862750    -1.3548320
  H       -4.1326660    -0.4262330     0.0924510
  H       -4.2326140     0.8656560    -1.1221410
units angstrom
no_reorient  #important for SAPT in psi4, default
symmetry c1  #important for SAPT in psi4, default
}

set PROPERTIES_ORIGIN ["COM"]
properties('MP2/aug-cc-pvtz', properties = ['dipole'])
--------------------------------------------------------------------------

    Molecular point group: c1
  Charge       = 0
  Multiplicity = 1
  Basis Set: AUG-CC-PVTZ
    Blend: AUG-CC-PVTZ
  Basis Set: (AUG-CC-PVTZ AUX)
    Blend: AUG-CC-PVTZ-JKFIT

    Orbital Energies [Eh]
    ---------------------

    Doubly Occupied:

       1A    -91.967551     2A    -91.967095     3A    -11.262140
       4A    -11.257100     5A    -11.230363     6A    -11.221315
       7A    -11.217138     8A    -11.210297     9A     -8.966396
      10A     -8.965864    11A     -6.647505    12A     -6.646915
      13A     -6.646227    14A     -6.645731    15A     -6.645406
      16A     -6.644933    17A     -1.110828    18A     -1.076748
      19A     -1.012036    20A     -0.935253    21A     -0.930868
      22A     -0.861008    23A     -0.793405    24A     -0.751725
      25A     -0.641617    26A     -0.629154    27A     -0.609341
      28A     -0.592841    29A     -0.585857    30A     -0.551257
      31A     -0.540972    32A     -0.531598    33A     -0.515566
      34A     -0.510450    35A     -0.492376    36A     -0.473968
      37A     -0.470450    38A     -0.453029    39A     -0.428834
      40A     -0.352952    41A     -0.344081

  @DF-RHF Final Energy: -1030.54675774396765

   => Energetics <=

    Nuclear Repulsion Energy =            555.7957378273636095
    One-Electron Energy =               -2522.0086157449354687
    Two-Electron Energy =                 935.6661201736043267
    Total Energy =                      -1030.5467577439676461
  Basis Set: (AUG-CC-PVTZ AUX)
    Blend: AUG-CC-PVTZ-RI
    Molecular point group: c1

    Geometry (in Angstrom), charge = 0, multiplicity = 1:

       Center              X                  Y                   Z               Mass
    ------------   -----------------  -----------------  -----------------  -----------------
         S           -0.241139544106    -1.003705444560    -0.503453626336    31.972071174400
         S           -1.249822544106    -0.049481444560     1.015673373664    31.972071174400
         C            2.167024455894     0.326815555440     0.182556373664    12.000000000000
         C            1.082805455894     0.191358555440    -0.884203626336    12.000000000000
         C            2.962449455894    -0.964111444560     0.351010373664    12.000000000000
         C            3.087880455894     1.492715555440    -0.177952626336    12.000000000000
         C           -2.428424544106     0.997573555440     0.100178373664    12.000000000000
         C           -3.509455544106     0.216469555440    -0.629845626336    12.000000000000
         H            1.669470455894     0.562531555440     1.132176373664     1.007825032230
         H            0.621150455894     1.162985555440    -1.091663626336     1.007825032230
         H            1.522203455894    -0.169197444560    -1.824068626336     1.007825032230
         H            3.487979455894    -1.212322444560    -0.578547626336     1.007825032230
         H            3.753528855894    -0.766430444560     1.080818273664     1.007825032230
         H            2.312109455894    -1.802937444560     0.610931373664     1.007825032230
         H            3.587743455894     1.308565555440    -1.135579626336     1.007825032230
         H            3.862257455894     1.624532555440     0.584051373664     1.007825032230
         H            2.530942455894     2.431607555440    -0.260178626336     1.007825032230
         H           -2.864999544106     1.645201555440     0.868956373664     1.007825032230
         H           -1.870410544106     1.640161555440    -0.587697626336     1.007825032230
         H           -3.068131544106    -0.448253444560    -1.376087626336     1.007825032230
         H           -4.089477544106    -0.388211444560     0.071195373664     1.007825032230
         H           -4.189425544106     0.903677555440    -1.143396626336     1.007825032230

  Basis Set: AUG-CC-PVTZ
    Blend: AUG-CC-PVTZ
  Basis Set: (AUG-CC-PVTZ AUX)
    Blend: AUG-CC-PVTZ-JKFIT
	 Reference Energy          =   -1030.5467577439676461 [Eh]
	 Singles Energy            =      -0.0000000000000000 [Eh]
	 Same-Spin Energy          =      -0.3702027284428992 [Eh]
	 Opposite-Spin Energy      =      -1.2690706303864754 [Eh]
	 Correlation Energy        =      -1.6392733588293746 [Eh]
	 Total Energy              =   -1032.1860311027969601 [Eh]

	 ================> DF-SCS-MP2 Energies <==================
	-----------------------------------------------------------
	 SCS Same-Spin Scale       =       0.3333333333333333 [-]
	 SCS Opposite-Spin Scale   =       1.2000000000000000 [-]
	 SCS Same-Spin Energy      =      -0.1234009094809664 [Eh]
	 SCS Opposite-Spin Energy  =      -1.5228847564637704 [Eh]
	 SCS Correlation Energy    =      -1.6462856659447369 [Eh]
	 SCS Total Energy          =   -1032.1930434099124341 [Eh]
	-----------------------------------------------------------

  Dipole Moment: [D]
     X:     0.1203      Y:     1.7964      Z:    -0.8904     Total:     2.0086

*** Psi4 exiting successfully. Buy a developer a beer!
