                               Psi4 1.4a3.dev225

  ==> Input File <==

--------------------------------------------------------------------------
#psi4
#
memory 32 gb

molecule  {
0 1
  S       -0.2843280    -1.0417270    -0.4821980
  S       -1.2930110    -0.0875030     1.0369290
  C        2.1238360     0.2887940     0.2038120
  C        1.0897665     0.0028787    -0.8828383
  C        2.9192610    -1.0021330     0.3722660
  C        3.0446920     1.4546940    -0.1566970
  C       -2.4716130     0.9595520     0.1214340
  C       -3.5526440     0.1784480    -0.6085900
  H        1.6262820     0.5245100     1.1534320
  H        0.5779620     1.1249640    -1.0704080
  H        1.4790150    -0.2072190    -1.8028130
  H        3.4447910    -1.2503440    -0.5572920
  H        3.6685600    -0.8925200     1.1622280
  H        2.2689210    -1.8409590     0.6321870
  H        3.5445550     1.2705440    -1.1143240
  H        3.8190690     1.5865110     0.6053070
  H        2.4877540     2.3935860    -0.2389230
  H       -2.9081880     1.6071800     0.8902120
  H       -1.9135990     1.6021400    -0.5664420
  H       -3.1113200    -0.4862750    -1.3548320
  H       -4.1326660    -0.4262330     0.0924510
  H       -4.2326140     0.8656560    -1.1221410
units angstrom
no_reorient  #important for SAPT in psi4, default
symmetry c1  #important for SAPT in psi4, default
}

set PROPERTIES_ORIGIN ["COM"]
properties('MP2/aug-cc-pvtz', properties = ['dipole'])
--------------------------------------------------------------------------

    Molecular point group: c1
  Charge       = 0
  Multiplicity = 1
  Basis Set: AUG-CC-PVTZ
    Blend: AUG-CC-PVTZ
  Basis Set: (AUG-CC-PVTZ AUX)
    Blend: AUG-CC-PVTZ-JKFIT

    Orbital Energies [Eh]
    ---------------------

    Doubly Occupied:

       1A    -91.970707     2A    -91.967817     3A    -11.262854
       4A    -11.260750     5A    -11.231872     6A    -11.221995
       7A    -11.217743     8A    -11.208054     9A     -8.969411
      10A     -8.967167    11A     -6.650476    12A     -6.649219
      13A     -6.648402    14A     -6.648285    15A     -6.647220
      16A     -6.646292    17A     -1.114378    18A     -1.077743
      19A     -1.016193    20A     -0.938415    21A     -0.929745
      22A     -0.860514    23A     -0.796909    24A     -0.756016
      25A     -0.632773    26A     -0.629213    27A     -0.611278
      28A     -0.590730    29A     -0.582487    30A     -0.560991
      31A     -0.541226    32A     -0.535585    33A     -0.517504
      34A     -0.502744    35A     -0.492171    36A     -0.479050
      37A     -0.467095    38A     -0.455116    39A     -0.421271
      40A     -0.352526    41A     -0.343005

  @DF-RHF Final Energy: -1030.52411888009851

   => Energetics <=

    Nuclear Repulsion Energy =            556.1107240946469119
    One-Electron Energy =               -2522.5237945223393581
    Two-Electron Energy =                 935.8889515475939334
    Total Energy =                      -1030.5241188800985128
  Basis Set: (AUG-CC-PVTZ AUX)
    Blend: AUG-CC-PVTZ-RI
    Molecular point group: c1

    Geometry (in Angstrom), charge = 0, multiplicity = 1:

       Center              X                  Y                   Z               Mass
    ------------   -----------------  -----------------  -----------------  -----------------
         S           -0.244869453424    -0.991081585063    -0.502266992479    31.972071174400
         S           -1.253552453424    -0.036857585063     1.016860007521    31.972071174400
         C            2.163294546576     0.339439414937     0.183743007521    12.000000000000
         C            1.129225046576     0.053524114937    -0.902907292479    12.000000000000
         C            2.958719546576    -0.951487585063     0.352197007521    12.000000000000
         C            3.084150546576     1.505339414937    -0.176765992479    12.000000000000
         C           -2.432154453424     1.010197414937     0.101365007521    12.000000000000
         C           -3.513185453424     0.229093414937    -0.628658992479    12.000000000000
         H            1.665740546576     0.575155414937     1.133363007521     1.007825032230
         H            0.617420546576     1.175609414937    -1.090476992479     1.007825032230
         H            1.518473546576    -0.156573585063    -1.822881992479     1.007825032230
         H            3.484249546576    -1.199698585063    -0.577360992479     1.007825032230
         H            3.708018546576    -0.841874585063     1.142159007521     1.007825032230
         H            2.308379546576    -1.790313585063     0.612118007521     1.007825032230
         H            3.584013546576     1.321189414937    -1.134392992479     1.007825032230
         H            3.858527546576     1.637156414937     0.585238007521     1.007825032230
         H            2.527212546576     2.444231414937    -0.258991992479     1.007825032230
         H           -2.868729453424     1.657825414937     0.870143007521     1.007825032230
         H           -1.874140453424     1.652785414937    -0.586510992479     1.007825032230
         H           -3.071861453424    -0.435629585063    -1.374900992479     1.007825032230
         H           -4.093207453424    -0.375587585063     0.072382007521     1.007825032230
         H           -4.193155453424     0.916301414937    -1.142209992479     1.007825032230

  Basis Set: AUG-CC-PVTZ
    Blend: AUG-CC-PVTZ
  Basis Set: (AUG-CC-PVTZ AUX)
    Blend: AUG-CC-PVTZ-JKFIT
	 Reference Energy          =   -1030.5241188800985128 [Eh]
	 Singles Energy            =      -0.0000000000000000 [Eh]
	 Same-Spin Energy          =      -0.3708550717498774 [Eh]
	 Opposite-Spin Energy      =      -1.2704003524960075 [Eh]
	 Correlation Energy        =      -1.6412554242458848 [Eh]
	 Total Energy              =   -1032.1653743043443683 [Eh]

	 ================> DF-SCS-MP2 Energies <==================
	-----------------------------------------------------------
	 SCS Same-Spin Scale       =       0.3333333333333333 [-]
	 SCS Opposite-Spin Scale   =       1.2000000000000000 [-]
	 SCS Same-Spin Energy      =      -0.1236183572499591 [Eh]
	 SCS Opposite-Spin Energy  =      -1.5244804229952089 [Eh]
	 SCS Correlation Energy    =      -1.6480987802451681 [Eh]
	 SCS Total Energy          =   -1032.1722176603436765 [Eh]
	-----------------------------------------------------------

  Dipole Moment: [D]
     X:     0.0531      Y:     1.7529      Z:    -0.8200     Total:     1.9359

*** Psi4 exiting successfully. Buy a developer a beer!
