                               Psi4 1.4a3.dev225

  ==> Input File <==

--------------------------------------------------------------------------
#psi4
#
memory 32 gb

molecule  {
0 1
  S       -0.2843280    -1.0417270    -0.4821980
  S       -1.2930110    -0.0875030     1.0369290
  C        2.1238360     0.2887940     0.2038120
  C        1.0396170     0.1533370    -0.8629480
  C        2.9192610    -1.0021330     0.3722660
  C        3.0446920     1.4546940    -0.1566970
  C       -2.4716130     0.9595520     0.1214340
  C       -3.5526440     0.1784480    -0.6085900
  H        1.6262820     0.5245100     1.1534320
  H        0.5779620     1.1249640    -1.0704080
  H        1.4790150    -0.2072190    -1.8028130
  H        3.4447910    -1.2503440    -0.5572920
  H        3.6685600    -0.8925200     1.1622280
  H        2.2689210    -1.8409590     0.6321870
  H        3.5445550     1.2705440    -1.1143240
  H        3.8190690     1.5865110     0.6053070
  H        2.4877540     2.3935860    -0.2389230
  H       -2.9081880     1.6071800     0.8902120
  H       -1.9135990     1.6021400    -0.5664420
  H       -3.1113200    -0.4862750    -1.3548320
  H       -4.1592120    -0.4539076     0.1245357
  H       -4.2326140     0.8656560    -1.1221410
units angstrom
no_reorient  #important for SAPT in psi4, default
symmetry c1  #important for SAPT in psi4, default
}

set PROPERTIES_ORIGIN ["COM"]
properties('MP2/aug-cc-pvtz', properties = ['dipole'])
--------------------------------------------------------------------------

    Molecular point group: c1
  Charge       = 0
  Multiplicity = 1
  Basis Set: AUG-CC-PVTZ
    Blend: AUG-CC-PVTZ
  Basis Set: (AUG-CC-PVTZ AUX)
    Blend: AUG-CC-PVTZ-JKFIT

    Orbital Energies [Eh]
    ---------------------

    Doubly Occupied:

       1A    -91.967606     2A    -91.967097     3A    -11.262627
       4A    -11.257654     5A    -11.231006     6A    -11.227292
       7A    -11.216897     8A    -11.210139     9A     -8.966445
      10A     -8.965864    11A     -6.647549    12A     -6.646917
      13A     -6.646276    14A     -6.645727    15A     -6.645454
      16A     -6.644928    17A     -1.110714    18A     -1.076154
      19A     -1.011000    20A     -0.933908    21A     -0.931111
      22A     -0.859376    23A     -0.793046    24A     -0.751624
      25A     -0.643430    26A     -0.628038    27A     -0.604977
      28A     -0.592028    29A     -0.585465    30A     -0.550862
      31A     -0.540763    32A     -0.535036    33A     -0.510115
      34A     -0.505570    35A     -0.492656    36A     -0.475538
      37A     -0.471744    38A     -0.452791    39A     -0.428781
      40A     -0.353044    41A     -0.344210

  @DF-RHF Final Energy: -1030.54603442997086

   => Energetics <=

    Nuclear Repulsion Energy =            555.5076947092200044
    One-Electron Energy =               -2521.4445416965722870
    Two-Electron Energy =                 935.3908125573814232
    Total Energy =                      -1030.5460344299708595
  Basis Set: (AUG-CC-PVTZ AUX)
    Blend: AUG-CC-PVTZ-RI
    Molecular point group: c1

    Geometry (in Angstrom), charge = 0, multiplicity = 1:

       Center              X                  Y                   Z               Mass
    ------------   -----------------  -----------------  -----------------  -----------------
         S           -0.240680634665    -1.002928067560    -0.504073141723    31.972071174400
         S           -1.249363634665    -0.048704067560     1.015053858277    31.972071174400
         C            2.167483365335     0.327592932440     0.181936858277    12.000000000000
         C            1.083264365335     0.192135932440    -0.884823141723    12.000000000000
         C            2.962908365335    -0.963334067560     0.350390858277    12.000000000000
         C            3.088339365335     1.493492932440    -0.178572141723    12.000000000000
         C           -2.427965634665     0.998350932440     0.099558858277    12.000000000000
         C           -3.508996634665     0.217246932440    -0.630465141723    12.000000000000
         H            1.669929365335     0.563308932440     1.131556858277     1.007825032230
         H            0.621609365335     1.163762932440    -1.092283141723     1.007825032230
         H            1.522662365335    -0.168420067560    -1.824688141723     1.007825032230
         H            3.488438365335    -1.211545067560    -0.579167141723     1.007825032230
         H            3.712207365335    -0.853721067560     1.140352858277     1.007825032230
         H            2.312568365335    -1.802160067560     0.610311858277     1.007825032230
         H            3.588202365335     1.309342932440    -1.136199141723     1.007825032230
         H            3.862716365335     1.625309932440     0.583431858277     1.007825032230
         H            2.531401365335     2.432384932440    -0.260798141723     1.007825032230
         H           -2.864540634665     1.645978932440     0.868336858277     1.007825032230
         H           -1.869951634665     1.640938932440    -0.588317141723     1.007825032230
         H           -3.067672634665    -0.447476067560    -1.376707141723     1.007825032230
         H           -4.115564634665    -0.415108667560     0.102660558277     1.007825032230
         H           -4.188966634665     0.904454932440    -1.144016141723     1.007825032230

  Basis Set: AUG-CC-PVTZ
    Blend: AUG-CC-PVTZ
  Basis Set: (AUG-CC-PVTZ AUX)
    Blend: AUG-CC-PVTZ-JKFIT
	 Reference Energy          =   -1030.5460344299708595 [Eh]
	 Singles Energy            =      -0.0000000000000000 [Eh]
	 Same-Spin Energy          =      -0.3700947821593662 [Eh]
	 Opposite-Spin Energy      =      -1.2692164160881751 [Eh]
	 Correlation Energy        =      -1.6393111982475412 [Eh]
	 Total Energy              =   -1032.1853456282183288 [Eh]

	 ================> DF-SCS-MP2 Energies <==================
	-----------------------------------------------------------
	 SCS Same-Spin Scale       =       0.3333333333333333 [-]
	 SCS Opposite-Spin Scale   =       1.2000000000000000 [-]
	 SCS Same-Spin Energy      =      -0.1233649273864554 [Eh]
	 SCS Opposite-Spin Energy  =      -1.5230596993058101 [Eh]
	 SCS Correlation Energy    =      -1.6464246266922655 [Eh]
	 SCS Total Energy          =   -1032.1924590566632105 [Eh]
	-----------------------------------------------------------

  Dipole Moment: [D]
     X:     0.1391      Y:     1.7799      Z:    -0.8713     Total:     1.9866

*** Psi4 exiting successfully. Buy a developer a beer!
