                               Psi4 1.4a3.dev225

  ==> Input File <==

--------------------------------------------------------------------------
#psi4
#
memory 32 gb

molecule  {
0 1
  S       -0.2843280    -1.0417270    -0.4821980
  S       -1.2930110    -0.0875030     1.0369290
  C        2.1238360     0.2887940     0.2038120
  C        1.0396170     0.1533370    -0.8629480
  C        2.9192610    -1.0021330     0.3722660
  C        3.0446920     1.4546940    -0.1566970
  C       -2.4716130     0.9595520     0.1214340
  C       -3.5526440     0.1784480    -0.6085900
  H        1.6262820     0.5245100     1.1534320
  H        0.5779620     1.1249640    -1.0704080
  H        1.4790150    -0.2072190    -1.8028130
  H        3.4447910    -1.2503440    -0.5572920
  H        3.6685600    -0.8925200     1.1622280
  H        2.2689210    -1.8409590     0.6321870
  H        3.5445550     1.2705440    -1.1143240
  H        3.8190690     1.5865110     0.6053070
  H        2.4877540     2.3935860    -0.2389230
  H       -2.9002207     1.5953611     0.8761822
  H       -1.9135990     1.6021400    -0.5664420
  H       -3.1113200    -0.4862750    -1.3548320
  H       -4.1326660    -0.4262330     0.0924510
  H       -4.2326140     0.8656560    -1.1221410
units angstrom
no_reorient  #important for SAPT in psi4, default
symmetry c1  #important for SAPT in psi4, default
}

set PROPERTIES_ORIGIN ["COM"]
properties('MP2/aug-cc-pvtz', properties = ['dipole'])
--------------------------------------------------------------------------

    Molecular point group: c1
  Charge       = 0
  Multiplicity = 1
  Basis Set: AUG-CC-PVTZ
    Blend: AUG-CC-PVTZ
  Basis Set: (AUG-CC-PVTZ AUX)
    Blend: AUG-CC-PVTZ-JKFIT

    Orbital Energies [Eh]
    ---------------------

    Doubly Occupied:

       1A    -91.967352     2A    -91.966910     3A    -11.259746
       4A    -11.257510     5A    -11.230899     6A    -11.221114
       7A    -11.216808     8A    -11.210045     9A     -8.966212
      10A     -8.965676    11A     -6.647324    12A     -6.646726
      13A     -6.646047    14A     -6.645540    15A     -6.645228
      16A     -6.644740    17A     -1.110702    18A     -1.077114
      19A     -1.011962    20A     -0.934999    21A     -0.931085
      22A     -0.861896    23A     -0.794231    24A     -0.752259
      25A     -0.643823    26A     -0.631144    27A     -0.604948
      28A     -0.591928    29A     -0.585612    30A     -0.551400
      31A     -0.541282    32A     -0.534980    33A     -0.513796
      34A     -0.508641    35A     -0.492949    36A     -0.475597
      37A     -0.471664    38A     -0.452567    39A     -0.428891
      40A     -0.352827    41A     -0.344015

  @DF-RHF Final Energy: -1030.54815179364050

   => Energetics <=

    Nuclear Repulsion Energy =            555.8298265206389033
    One-Electron Energy =               -2522.0795740243715954
    Two-Electron Energy =                 935.7015957100920787
    Total Energy =                      -1030.5481517936404998
  Basis Set: (AUG-CC-PVTZ AUX)
    Blend: AUG-CC-PVTZ-RI
    Molecular point group: c1

    Geometry (in Angstrom), charge = 0, multiplicity = 1:

       Center              X                  Y                   Z               Mass
    ------------   -----------------  -----------------  -----------------  -----------------
         S           -0.240912440807    -1.003034561249    -0.503763416940    31.972071174400
         S           -1.249595440807    -0.048810561249     1.015363583060    31.972071174400
         C            2.167251559193     0.327486438751     0.182246583060    12.000000000000
         C            1.083032559193     0.192029438751    -0.884513416940    12.000000000000
         C            2.962676559193    -0.963440561249     0.350700583060    12.000000000000
         C            3.088107559193     1.493386438751    -0.178262416940    12.000000000000
         C           -2.428197440807     0.998244438751     0.099868583060    12.000000000000
         C           -3.509228440807     0.217140438751    -0.630155416940    12.000000000000
         H            1.669697559193     0.563202438751     1.131866583060     1.007825032230
         H            0.621377559193     1.163656438751    -1.091973416940     1.007825032230
         H            1.522430559193    -0.168526561249    -1.824378416940     1.007825032230
         H            3.488206559193    -1.211651561249    -0.578857416940     1.007825032230
         H            3.711975559193    -0.853827561249     1.140662583060     1.007825032230
         H            2.312336559193    -1.802266561249     0.610621583060     1.007825032230
         H            3.587970559193     1.309236438751    -1.135889416940     1.007825032230
         H            3.862484559193     1.625203438751     0.583741583060     1.007825032230
         H            2.531169559193     2.432278438751    -0.260488416940     1.007825032230
         H           -2.856805140807     1.634053538751     0.854616783060     1.007825032230
         H           -1.870183440807     1.640832438751    -0.588007416940     1.007825032230
         H           -3.067904440807    -0.447582561249    -1.376397416940     1.007825032230
         H           -4.089250440807    -0.387540561249     0.070885583060     1.007825032230
         H           -4.189198440807     0.904348438751    -1.143706416940     1.007825032230

  Basis Set: AUG-CC-PVTZ
    Blend: AUG-CC-PVTZ
  Basis Set: (AUG-CC-PVTZ AUX)
    Blend: AUG-CC-PVTZ-JKFIT
	 Reference Energy          =   -1030.5481517936404998 [Eh]
	 Singles Energy            =      -0.0000000000000000 [Eh]
	 Same-Spin Energy          =      -0.3700812227504511 [Eh]
	 Opposite-Spin Energy      =      -1.2687675535552601 [Eh]
	 Correlation Energy        =      -1.6388487763057111 [Eh]
	 Total Energy              =   -1032.1870005699461217 [Eh]

	 ================> DF-SCS-MP2 Energies <==================
	-----------------------------------------------------------
	 SCS Same-Spin Scale       =       0.3333333333333333 [-]
	 SCS Opposite-Spin Scale   =       1.2000000000000000 [-]
	 SCS Same-Spin Energy      =      -0.1233604075834837 [Eh]
	 SCS Opposite-Spin Energy  =      -1.5225210642663121 [Eh]
	 SCS Correlation Energy    =      -1.6458814718497958 [Eh]
	 SCS Total Energy          =   -1032.1940332654903614 [Eh]
	-----------------------------------------------------------

  Dipole Moment: [D]
     X:     0.1141      Y:     1.7738      Z:    -0.8574     Total:     1.9734

*** Psi4 exiting successfully. Buy a developer a beer!
