                               Psi4 1.4a3.dev225

  ==> Input File <==

--------------------------------------------------------------------------
#psi4
#
memory 32 gb

molecule  {
0 1
  S       -0.2843280    -1.0417270    -0.4821980
  S       -1.2930110    -0.0875030     1.0369290
  C        2.1096991     0.2772767     0.1844083
  C        1.0396170     0.1533370    -0.8629480
  C        2.9192610    -1.0021330     0.3722660
  C        3.0446920     1.4546940    -0.1566970
  C       -2.4716130     0.9595520     0.1214340
  C       -3.5526440     0.1784480    -0.6085900
  H        1.6262820     0.5245100     1.1534320
  H        0.5779620     1.1249640    -1.0704080
  H        1.4790150    -0.2072190    -1.8028130
  H        3.4447910    -1.2503440    -0.5572920
  H        3.6685600    -0.8925200     1.1622280
  H        2.2689210    -1.8409590     0.6321870
  H        3.5445550     1.2705440    -1.1143240
  H        3.8190690     1.5865110     0.6053070
  H        2.4877540     2.3935860    -0.2389230
  H       -2.9081880     1.6071800     0.8902120
  H       -1.9135990     1.6021400    -0.5664420
  H       -3.1113200    -0.4862750    -1.3548320
  H       -4.1326660    -0.4262330     0.0924510
  H       -4.2326140     0.8656560    -1.1221410
units angstrom
no_reorient  #important for SAPT in psi4, default
symmetry c1  #important for SAPT in psi4, default
}

set PROPERTIES_ORIGIN ["COM"]
properties('MP2/aug-cc-pvtz', properties = ['dipole'])
--------------------------------------------------------------------------

    Molecular point group: c1
  Charge       = 0
  Multiplicity = 1
  Basis Set: AUG-CC-PVTZ
    Blend: AUG-CC-PVTZ
  Basis Set: (AUG-CC-PVTZ AUX)
    Blend: AUG-CC-PVTZ-JKFIT

    Orbital Energies [Eh]
    ---------------------

    Doubly Occupied:

       1A    -91.967634     2A    -91.967112     3A    -11.262204
       4A    -11.257219     5A    -11.231218     6A    -11.221360
       7A    -11.217210     8A    -11.210170     9A     -8.966472
      10A     -8.965916    11A     -6.647577    12A     -6.646961
      13A     -6.646301    14A     -6.645779    15A     -6.645481
      16A     -6.644975    17A     -1.112645    18A     -1.076659
      19A     -1.011169    20A     -0.936228    21A     -0.930229
      22A     -0.862259    23A     -0.793452    24A     -0.750878
      25A     -0.644894    26A     -0.629866    27A     -0.604998
      28A     -0.591711    29A     -0.585984    30A     -0.551167
      31A     -0.540898    32A     -0.534897    33A     -0.514161
      34A     -0.508569    35A     -0.495835    36A     -0.475202
      37A     -0.469982    38A     -0.449522    39A     -0.428645
      40A     -0.353260    41A     -0.344686

  @DF-RHF Final Energy: -1030.54717168574916

   => Energetics <=

    Nuclear Repulsion Energy =            556.0051411876752354
    One-Electron Energy =               -2522.4218527389748488
    Two-Electron Energy =                 935.8695398655504505
    Total Energy =                      -1030.5471716857491629
  Basis Set: (AUG-CC-PVTZ AUX)
    Blend: AUG-CC-PVTZ-RI
    Molecular point group: c1

    Geometry (in Angstrom), charge = 0, multiplicity = 1:

       Center              X                  Y                   Z               Mass
    ------------   -----------------  -----------------  -----------------  -----------------
         S           -0.239728381681    -1.002192887750    -0.502305906549    31.972071174400
         S           -1.248411381681    -0.047968887750     1.016821093451    31.972071174400
         C            2.154298718319     0.316810812250     0.164300393451    12.000000000000
         C            1.084216618319     0.192871112250    -0.883055906549    12.000000000000
         C            2.963860618319    -0.962598887750     0.352158093451    12.000000000000
         C            3.089291618319     1.494228112250    -0.176804906549    12.000000000000
         C           -2.427013381681     0.999086112250     0.101326093451    12.000000000000
         C           -3.508044381681     0.217982112250    -0.628697906549    12.000000000000
         H            1.670881618319     0.564044112250     1.133324093451     1.007825032230
         H            0.622561618319     1.164498112250    -1.090515906549     1.007825032230
         H            1.523614618319    -0.167684887750    -1.822920906549     1.007825032230
         H            3.489390618319    -1.210809887750    -0.577399906549     1.007825032230
         H            3.713159618319    -0.852985887750     1.142120093451     1.007825032230
         H            2.313520618319    -1.801424887750     0.612079093451     1.007825032230
         H            3.589154618319     1.310078112250    -1.134431906549     1.007825032230
         H            3.863668618319     1.626045112250     0.585199093451     1.007825032230
         H            2.532353618319     2.433120112250    -0.259030906549     1.007825032230
         H           -2.863588381681     1.646714112250     0.870104093451     1.007825032230
         H           -1.868999381681     1.641674112250    -0.586549906549     1.007825032230
         H           -3.066720381681    -0.446740887750    -1.374939906549     1.007825032230
         H           -4.088066381681    -0.386698887750     0.072343093451     1.007825032230
         H           -4.188014381681     0.905190112250    -1.142248906549     1.007825032230

  Basis Set: AUG-CC-PVTZ
    Blend: AUG-CC-PVTZ
  Basis Set: (AUG-CC-PVTZ AUX)
    Blend: AUG-CC-PVTZ-JKFIT
	 Reference Energy          =   -1030.5471716857491629 [Eh]
	 Singles Energy            =      -0.0000000000000000 [Eh]
	 Same-Spin Energy          =      -0.3702328279267090 [Eh]
	 Opposite-Spin Energy      =      -1.2690693375189790 [Eh]
	 Correlation Energy        =      -1.6393021654456881 [Eh]
	 Total Energy              =   -1032.1864738511949326 [Eh]

	 ================> DF-SCS-MP2 Energies <==================
	-----------------------------------------------------------
	 SCS Same-Spin Scale       =       0.3333333333333333 [-]
	 SCS Opposite-Spin Scale   =       1.2000000000000000 [-]
	 SCS Same-Spin Energy      =      -0.1234109426422363 [Eh]
	 SCS Opposite-Spin Energy  =      -1.5228832050227747 [Eh]
	 SCS Correlation Energy    =      -1.6462941476650110 [Eh]
	 SCS Total Energy          =   -1032.1934658334141659 [Eh]
	-----------------------------------------------------------

  Dipole Moment: [D]
     X:     0.1055      Y:     1.7617      Z:    -0.8617     Total:     1.9639

*** Psi4 exiting successfully. Buy a developer a beer!
