                               Psi4 1.4a3.dev225

  ==> Input File <==

--------------------------------------------------------------------------
#psi4
#
memory 32 gb

molecule  {
0 1
  S       -0.2843280    -1.0417270    -0.4821980
  S       -1.2930110    -0.0875030     1.0369290
  C        2.1238360     0.2887940     0.2038120
  C        1.0396170     0.1533370    -0.8629480
  C        2.9192610    -1.0021330     0.3722660
  C        3.0446920     1.4546940    -0.1566970
  C       -2.4716130     0.9595520     0.1214340
  C       -3.5526440     0.1784480    -0.6085900
  H        1.6262820     0.5245100     1.1534320
  H        0.5779620     1.1249640    -1.0704080
  H        1.4790150    -0.2072190    -1.8028130
  H        3.4447910    -1.2503440    -0.5572920
  H        3.6685600    -0.8925200     1.1622280
  H        2.2689210    -1.8409590     0.6321870
  H        3.5445550     1.2705440    -1.1143240
  H        3.8190690     1.5865110     0.6053070
  H        2.4877540     2.3935860    -0.2389230
  H       -2.9878608     1.7253690     1.0305103
  H       -1.9135990     1.6021400    -0.5664420
  H       -3.1113200    -0.4862750    -1.3548320
  H       -4.1326660    -0.4262330     0.0924510
  H       -4.2326140     0.8656560    -1.1221410
units angstrom
no_reorient  #important for SAPT in psi4, default
symmetry c1  #important for SAPT in psi4, default
}

set PROPERTIES_ORIGIN ["COM"]
properties('MP2/aug-cc-pvtz', properties = ['dipole'])
--------------------------------------------------------------------------

    Molecular point group: c1
  Charge       = 0
  Multiplicity = 1
  Basis Set: AUG-CC-PVTZ
    Blend: AUG-CC-PVTZ
  Basis Set: (AUG-CC-PVTZ AUX)
    Blend: AUG-CC-PVTZ-JKFIT

    Orbital Energies [Eh]
    ---------------------

    Doubly Occupied:

       1A    -91.969436     2A    -91.968036     3A    -11.283803
       4A    -11.258284     5A    -11.231441     6A    -11.223432
       7A    -11.217182     8A    -11.210561     9A     -8.968080
      10A     -8.966828    11A     -6.649129    12A     -6.647968
      13A     -6.647816    14A     -6.647051    15A     -6.646676
      16A     -6.645887    17A     -1.110931    18A     -1.073397
      19A     -1.010397    20A     -0.936188    21A     -0.931556
      22A     -0.855144    23A     -0.789236    24A     -0.749526
      25A     -0.642948    26A     -0.618729    27A     -0.605387
      28A     -0.588564    29A     -0.586222    30A     -0.552125
      31A     -0.541055    32A     -0.534874    33A     -0.513756
      34A     -0.502734    35A     -0.487799    36A     -0.472610
      37A     -0.471428    38A     -0.453714    39A     -0.425737
      40A     -0.353848    41A     -0.345281

  @DF-RHF Final Energy: -1030.52809438338409

   => Energetics <=

    Nuclear Repulsion Energy =            554.7583432165564545
    One-Electron Energy =               -2519.9032833610631315
    Two-Electron Energy =                 934.6168457611223630
    Total Energy =                      -1030.5280943833840865
  Basis Set: (AUG-CC-PVTZ AUX)
    Blend: AUG-CC-PVTZ-RI
    Molecular point group: c1

    Geometry (in Angstrom), charge = 0, multiplicity = 1:

       Center              X                  Y                   Z               Mass
    ------------   -----------------  -----------------  -----------------  -----------------
         S           -0.240323812264    -1.003907750130    -0.504799950726    31.972071174400
         S           -1.249006812264    -0.049683750130     1.014327049274    31.972071174400
         C            2.167840187736     0.326613249870     0.181210049274    12.000000000000
         C            1.083621187736     0.191156249870    -0.885549950726    12.000000000000
         C            2.963265187736    -0.964313750130     0.349664049274    12.000000000000
         C            3.088696187736     1.492513249870    -0.179298950726    12.000000000000
         C           -2.427608812264     0.997371249870     0.098832049274    12.000000000000
         C           -3.508639812264     0.216267249870    -0.631191950726    12.000000000000
         H            1.670286187736     0.562329249870     1.130830049274     1.007825032230
         H            0.621966187736     1.162783249870    -1.093009950726     1.007825032230
         H            1.523019187736    -0.169399750130    -1.825414950726     1.007825032230
         H            3.488795187736    -1.212524750130    -0.579893950726     1.007825032230
         H            3.712564187736    -0.854700750130     1.139626049274     1.007825032230
         H            2.312925187736    -1.803139750130     0.609585049274     1.007825032230
         H            3.588559187736     1.308363249870    -1.136925950726     1.007825032230
         H            3.863073187736     1.624330249870     0.582705049274     1.007825032230
         H            2.531758187736     2.431405249870    -0.261524950726     1.007825032230
         H           -2.943856612264     1.763188249870     1.007908349274     1.007825032230
         H           -1.869594812264     1.639959249870    -0.589043950726     1.007825032230
         H           -3.067315812264    -0.448455750130    -1.377433950726     1.007825032230
         H           -4.088661812264    -0.388413750130     0.069849049274     1.007825032230
         H           -4.188609812264     0.903475249870    -1.144742950726     1.007825032230

  Basis Set: AUG-CC-PVTZ
    Blend: AUG-CC-PVTZ
  Basis Set: (AUG-CC-PVTZ AUX)
    Blend: AUG-CC-PVTZ-JKFIT
	 Reference Energy          =   -1030.5280943833840865 [Eh]
	 Singles Energy            =      -0.0000000000000000 [Eh]
	 Same-Spin Energy          =      -0.3703418468428095 [Eh]
	 Opposite-Spin Energy      =      -1.2706328174342301 [Eh]
	 Correlation Energy        =      -1.6409746642770395 [Eh]
	 Total Energy              =   -1032.1690690476611962 [Eh]

	 ================> DF-SCS-MP2 Energies <==================
	-----------------------------------------------------------
	 SCS Same-Spin Scale       =       0.3333333333333333 [-]
	 SCS Opposite-Spin Scale   =       1.2000000000000000 [-]
	 SCS Same-Spin Energy      =      -0.1234472822809365 [Eh]
	 SCS Opposite-Spin Energy  =      -1.5247593809210760 [Eh]
	 SCS Correlation Energy    =      -1.6482066632020125 [Eh]
	 SCS Total Energy          =   -1032.1763010465861043 [Eh]
	-----------------------------------------------------------

  Dipole Moment: [D]
     X:     0.1684      Y:     1.6741      Z:    -0.9313     Total:     1.9231

*** Psi4 exiting successfully. Buy a developer a beer!
