                               Psi4 1.4a3.dev225

  ==> Input File <==

--------------------------------------------------------------------------
#psi4
#
memory 32 gb

molecule  {
0 1
  S       -0.2843280    -1.0417270    -0.4821980
  S       -1.2930110    -0.0875030     1.0369290
  C        2.1238360     0.2887940     0.2038120
  C        1.0396170     0.1533370    -0.8629480
  C        2.8931924    -0.9598252     0.3667452
  C        3.0446920     1.4546940    -0.1566970
  C       -2.4716130     0.9595520     0.1214340
  C       -3.5526440     0.1784480    -0.6085900
  H        1.6262820     0.5245100     1.1534320
  H        0.5779620     1.1249640    -1.0704080
  H        1.4790150    -0.2072190    -1.8028130
  H        3.4447910    -1.2503440    -0.5572920
  H        3.6685600    -0.8925200     1.1622280
  H        2.2689210    -1.8409590     0.6321870
  H        3.5445550     1.2705440    -1.1143240
  H        3.8190690     1.5865110     0.6053070
  H        2.4877540     2.3935860    -0.2389230
  H       -2.9081880     1.6071800     0.8902120
  H       -1.9135990     1.6021400    -0.5664420
  H       -3.1113200    -0.4862750    -1.3548320
  H       -4.1326660    -0.4262330     0.0924510
  H       -4.2326140     0.8656560    -1.1221410
units angstrom
no_reorient  #important for SAPT in psi4, default
symmetry c1  #important for SAPT in psi4, default
}

set PROPERTIES_ORIGIN ["COM"]
properties('MP2/aug-cc-pvtz', properties = ['dipole'])
--------------------------------------------------------------------------

    Molecular point group: c1
  Charge       = 0
  Multiplicity = 1
  Basis Set: AUG-CC-PVTZ
    Blend: AUG-CC-PVTZ
  Basis Set: (AUG-CC-PVTZ AUX)
    Blend: AUG-CC-PVTZ-JKFIT

    Orbital Energies [Eh]
    ---------------------

    Doubly Occupied:

       1A    -91.967562     2A    -91.967027     3A    -11.262141
       4A    -11.257720     5A    -11.228728     6A    -11.221319
       7A    -11.217011     8A    -11.212590     9A     -8.966403
      10A     -8.965795    11A     -6.647507    12A     -6.646848
      13A     -6.646235    14A     -6.645654    15A     -6.645416
      16A     -6.644856    17A     -1.114729    18A     -1.078440
      19A     -1.013088    20A     -0.935298    21A     -0.930943
      22A     -0.860856    23A     -0.793398    24A     -0.752538
      25A     -0.645948    26A     -0.630425    27A     -0.606121
      28A     -0.591624    29A     -0.586350    30A     -0.552219
      31A     -0.540666    32A     -0.530731    33A     -0.513174
      34A     -0.503492    35A     -0.494073    36A     -0.482667
      37A     -0.468491    38A     -0.451229    39A     -0.428701
      40A     -0.352954    41A     -0.344148

  @DF-RHF Final Energy: -1030.54496201531947

   => Energetics <=

    Nuclear Repulsion Energy =            556.6037753300448685
    One-Electron Energy =               -2523.6072493222663979
    Two-Electron Energy =                 936.4585119769021730
    Total Energy =                      -1030.5449620153194701
  Basis Set: (AUG-CC-PVTZ AUX)
    Blend: AUG-CC-PVTZ-RI
    Molecular point group: c1

    Geometry (in Angstrom), charge = 0, multiplicity = 1:

       Center              X                  Y                   Z               Mass
    ------------   -----------------  -----------------  -----------------  -----------------
         S           -0.238774187237    -1.006497354957    -0.503416141139    31.972071174400
         S           -1.247457187237    -0.052273354957     1.015710858861    31.972071174400
         C            2.169389812763     0.324023645043     0.182593858861    12.000000000000
         C            1.085170812763     0.188566645043    -0.884166141139    12.000000000000
         C            2.938746212763    -0.924595554957     0.345527058861    12.000000000000
         C            3.090245812763     1.489923645043    -0.177915141139    12.000000000000
         C           -2.426059187237     0.994781645043     0.100215858861    12.000000000000
         C           -3.507090187237     0.213677645043    -0.629808141139    12.000000000000
         H            1.671835812763     0.559739645043     1.132213858861     1.007825032230
         H            0.623515812763     1.160193645043    -1.091626141139     1.007825032230
         H            1.524568812763    -0.171989354957    -1.824031141139     1.007825032230
         H            3.490344812763    -1.215114354957    -0.578510141139     1.007825032230
         H            3.714113812763    -0.857290354957     1.141009858861     1.007825032230
         H            2.314474812763    -1.805729354957     0.610968858861     1.007825032230
         H            3.590108812763     1.305773645043    -1.135542141139     1.007825032230
         H            3.864622812763     1.621740645043     0.584088858861     1.007825032230
         H            2.533307812763     2.428815645043    -0.260141141139     1.007825032230
         H           -2.862634187237     1.642409645043     0.868993858861     1.007825032230
         H           -1.868045187237     1.637369645043    -0.587660141139     1.007825032230
         H           -3.065766187237    -0.451045354957    -1.376050141139     1.007825032230
         H           -4.087112187237    -0.391003354957     0.071232858861     1.007825032230
         H           -4.187060187237     0.900885645043    -1.143359141139     1.007825032230

  Basis Set: AUG-CC-PVTZ
    Blend: AUG-CC-PVTZ
  Basis Set: (AUG-CC-PVTZ AUX)
    Blend: AUG-CC-PVTZ-JKFIT
	 Reference Energy          =   -1030.5449620153194701 [Eh]
	 Singles Energy            =      -0.0000000000000000 [Eh]
	 Same-Spin Energy          =      -0.3705907888266160 [Eh]
	 Opposite-Spin Energy      =      -1.2694126591550063 [Eh]
	 Correlation Energy        =      -1.6400034479816223 [Eh]
	 Total Energy              =   -1032.1849654633010687 [Eh]

	 ================> DF-SCS-MP2 Energies <==================
	-----------------------------------------------------------
	 SCS Same-Spin Scale       =       0.3333333333333333 [-]
	 SCS Opposite-Spin Scale   =       1.2000000000000000 [-]
	 SCS Same-Spin Energy      =      -0.1235302629422053 [Eh]
	 SCS Opposite-Spin Energy  =      -1.5232951909860075 [Eh]
	 SCS Correlation Energy    =      -1.6468254539282128 [Eh]
	 SCS Total Energy          =   -1032.1917874692476289 [Eh]
	-----------------------------------------------------------

  Dipole Moment: [D]
     X:     0.1110      Y:     1.7617      Z:    -0.8568     Total:     1.9621

*** Psi4 exiting successfully. Buy a developer a beer!
