                               Psi4 1.4a3.dev225

  ==> Input File <==

--------------------------------------------------------------------------
#psi4
#
memory 32 gb

molecule  {
0 1
  S       -0.2843280    -1.0417270    -0.4821980
  S       -1.2930110    -0.0875030     1.0369290
  C        2.1238360     0.2887940     0.2038120
  C        1.0396170     0.1533370    -0.8629480
  C        2.9192610    -1.0021330     0.3722660
  C        3.0446920     1.4546940    -0.1566970
  C       -2.4716130     0.9595520     0.1214340
  C       -3.5526440     0.1784480    -0.6085900
  H        1.6262820     0.5245100     1.1534320
  H        0.5779620     1.1249640    -1.0704080
  H        1.4790150    -0.2072190    -1.8028130
  H        3.4447910    -1.2503440    -0.5572920
  H        3.6685600    -0.8925200     1.1622280
  H        2.2689210    -1.8409590     0.6321870
  H        3.5445550     1.2705440    -1.1143240
  H        3.8190690     1.5865110     0.6053070
  H        2.4877540     2.3935860    -0.2389230
  H       -2.9081880     1.6071800     0.8902120
  H       -1.9135990     1.6021400    -0.5664420
  H       -3.1113200    -0.4862750    -1.3548320
  H       -4.1061200    -0.3985584     0.0603663
  H       -4.2326140     0.8656560    -1.1221410
units angstrom
no_reorient  #important for SAPT in psi4, default
symmetry c1  #important for SAPT in psi4, default
}

set PROPERTIES_ORIGIN ["COM"]
properties('MP2/aug-cc-pvtz', properties = ['dipole'])
--------------------------------------------------------------------------

    Molecular point group: c1
  Charge       = 0
  Multiplicity = 1
  Basis Set: AUG-CC-PVTZ
    Blend: AUG-CC-PVTZ
  Basis Set: (AUG-CC-PVTZ AUX)
    Blend: AUG-CC-PVTZ-JKFIT

    Orbital Energies [Eh]
    ---------------------

    Doubly Occupied:

       1A    -91.967417     2A    -91.966864     3A    -11.261632
       4A    -11.257473     5A    -11.230869     6A    -11.216774
       7A    -11.215123     8A    -11.210024     9A     -8.966259
      10A     -8.965636    11A     -6.647365    12A     -6.646692
      13A     -6.646093    14A     -6.645499    15A     -6.645276
      16A     -6.644698    17A     -1.110649    18A     -1.077112
      19A     -1.012641    20A     -0.936597    21A     -0.931101
      22A     -0.862800    23A     -0.794204    24A     -0.752259
      25A     -0.643799    26A     -0.631880    27A     -0.604996
      28A     -0.591325    29A     -0.586006    30A     -0.552380
      31A     -0.541900    32A     -0.534891    33A     -0.518471
      34A     -0.508381    35A     -0.492598    36A     -0.475340
      37A     -0.471662    38A     -0.452517    39A     -0.428622
      40A     -0.352756    41A     -0.344003

  @DF-RHF Final Energy: -1030.54704775343021

   => Energetics <=

    Nuclear Repulsion Energy =            555.9501660228910396
    One-Electron Energy =               -2522.3092574350107498
    Two-Electron Energy =                 935.8120436586893902
    Total Energy =                      -1030.5470477534302063
  Basis Set: (AUG-CC-PVTZ AUX)
    Blend: AUG-CC-PVTZ-RI
    Molecular point group: c1

    Geometry (in Angstrom), charge = 0, multiplicity = 1:

       Center              X                  Y                   Z               Mass
    ------------   -----------------  -----------------  -----------------  -----------------
         S           -0.241037223334    -1.003299816553    -0.503642152479    31.972071174400
         S           -1.249720223334    -0.049075816553     1.015484847521    31.972071174400
         C            2.167126776666     0.327221183447     0.182367847521    12.000000000000
         C            1.082907776666     0.191764183447    -0.884392152479    12.000000000000
         C            2.962551776666    -0.963705816553     0.350821847521    12.000000000000
         C            3.087982776666     1.493121183447    -0.178141152479    12.000000000000
         C           -2.428322223334     0.997979183447     0.099989847521    12.000000000000
         C           -3.509353223334     0.216875183447    -0.630034152479    12.000000000000
         H            1.669572776666     0.562937183447     1.131987847521     1.007825032230
         H            0.621252776666     1.163391183447    -1.091852152479     1.007825032230
         H            1.522305776666    -0.168791816553    -1.824257152479     1.007825032230
         H            3.488081776666    -1.211916816553    -0.578736152479     1.007825032230
         H            3.711850776666    -0.854092816553     1.140783847521     1.007825032230
         H            2.312211776666    -1.802531816553     0.610742847521     1.007825032230
         H            3.587845776666     1.308971183447    -1.135768152479     1.007825032230
         H            3.862359776666     1.624938183447     0.583862847521     1.007825032230
         H            2.531044776666     2.432013183447    -0.260367152479     1.007825032230
         H           -2.864897223334     1.645607183447     0.868767847521     1.007825032230
         H           -1.870308223334     1.640567183447    -0.587886152479     1.007825032230
         H           -3.068029223334    -0.447847816553    -1.376276152479     1.007825032230
         H           -4.062829223334    -0.360131216553     0.038922147521     1.007825032230
         H           -4.189323223334     0.904083183447    -1.143585152479     1.007825032230

  Basis Set: AUG-CC-PVTZ
    Blend: AUG-CC-PVTZ
  Basis Set: (AUG-CC-PVTZ AUX)
    Blend: AUG-CC-PVTZ-JKFIT
	 Reference Energy          =   -1030.5470477534302063 [Eh]
	 Singles Energy            =      -0.0000000000000000 [Eh]
	 Same-Spin Energy          =      -0.3701164268499792 [Eh]
	 Opposite-Spin Energy      =      -1.2686349879012684 [Eh]
	 Correlation Energy        =      -1.6387514147512476 [Eh]
	 Total Energy              =   -1032.1857991681813473 [Eh]

	 ================> DF-SCS-MP2 Energies <==================
	-----------------------------------------------------------
	 SCS Same-Spin Scale       =       0.3333333333333333 [-]
	 SCS Opposite-Spin Scale   =       1.2000000000000000 [-]
	 SCS Same-Spin Energy      =      -0.1233721422833264 [Eh]
	 SCS Opposite-Spin Energy  =      -1.5223619854815220 [Eh]
	 SCS Correlation Energy    =      -1.6457341277648485 [Eh]
	 SCS Total Energy          =   -1032.1927818811950601 [Eh]
	-----------------------------------------------------------

  Dipole Moment: [D]
     X:     0.0977      Y:     1.7567      Z:    -0.8541     Total:     1.9558

*** Psi4 exiting successfully. Buy a developer a beer!
