                               Psi4 1.3.2 release

  ==> Input File <==

--------------------------------------------------------------------------
#psi4
#
memory 32 gb

molecule  {
0 1
  O        1.4608160    -0.9817270     0.0002400
  O       -1.4608130     0.9817270     0.0002230
  O        1.2132250     1.2829860    -0.0000330
  O       -1.2132270    -1.2829860    -0.0001300
  C        0.7476930     0.1601270    -0.0003220
  C       -0.7477209    -0.1601119     0.1497610
  H        2.4016800    -0.7069230     0.0005270
  H       -2.4016780     0.7069260     0.0004400
units angstrom
no_reorient  #important for SAPT in psi4, default
symmetry c1  #important for SAPT in psi4, default
}

set PROPERTIES_ORIGIN ["COM"]
properties('MP2/aug-cc-pvtz', properties = ['dipole'])
--------------------------------------------------------------------------

    Molecular point group: c1
  Charge       = 0
  Multiplicity = 1
  Basis Set: AUG-CC-PVTZ
    Blend: AUG-CC-PVTZ
  Basis Set: (AUG-CC-PVTZ AUX)
    Blend: AUG-CC-PVTZ-JKFIT

    Orbital Energies [Eh]
    ---------------------

    Doubly Occupied:

       1A    -20.646130     2A    -20.644883     3A    -20.595496
       4A    -20.593630     5A    -11.433773     6A    -11.432876
       7A     -1.506365     8A     -1.477100     9A     -1.400324
      10A     -1.382832    11A     -0.985223    12A     -0.843790
      13A     -0.746414    14A     -0.736749    15A     -0.716748
      16A     -0.681308    17A     -0.657191    18A     -0.630077
      19A     -0.610147    20A     -0.540504    21A     -0.511357
      22A     -0.508109    23A     -0.469674

  @DF-RHF Final Energy:  -376.50571908796655

   => Energetics <=

    Nuclear Repulsion Energy =            230.2489310906217668
    One-Electron Energy =                -974.0078997371942933
    Two-Electron Energy =                 367.2532495586059440
    Total Energy =                       -376.5057190879665541
  Basis Set: (AUG-CC-PVTZ AUX)
    Blend: AUG-CC-PVTZ-RI
    Molecular point group: c1

    Geometry (in Angstrom), charge = 0, multiplicity = 1:

       Center              X                  Y                   Z               Mass
    ------------   -----------------  -----------------  -----------------  -----------------
         O            1.460819520066    -0.981729047034    -0.019750386947    15.994914619570
         O           -1.460809479934     0.981724952966    -0.019767386947    15.994914619570
         O            1.213228520066     1.282983952966    -0.020023386947    15.994914619570
         O           -1.213223479934    -1.282988047034    -0.020120386947    15.994914619570
         C            0.747696520066     0.160124952966    -0.020312386947    12.000000000000
         C           -0.747717379934    -0.160113947034     0.129770613053    12.000000000000
         H            2.401683520066    -0.706925047034    -0.019463386947     1.007825032230
         H           -2.401674479934     0.706923952966    -0.019550386947     1.007825032230

  Basis Set: AUG-CC-PVTZ
    Blend: AUG-CC-PVTZ
  Basis Set: (AUG-CC-PVTZ AUX)
    Blend: AUG-CC-PVTZ-JKFIT
	 Reference Energy          =    -376.5057190879665541 [Eh]
	 Singles Energy            =      -0.0000000000000000 [Eh]
	 Same-Spin Energy          =      -0.3521541847620840 [Eh]
	 Opposite-Spin Energy      =      -1.0161484309853046 [Eh]
	 Correlation Energy        =      -1.3683026157473885 [Eh]
	 Total Energy              =    -377.8740217037139359 [Eh]

	 ================> DF-SCS-MP2 Energies <==================
	-----------------------------------------------------------
	 SCS Same-Spin Scale       =       0.3333333333333333 [-]
	 SCS Opposite-Spin Scale   =       1.2000000000000000 [-]
	 SCS Same-Spin Energy      =      -0.1173847282540280 [Eh]
	 SCS Opposite-Spin Energy  =      -1.2193781171823654 [Eh]
	 SCS Correlation Energy    =      -1.3367628454363936 [Eh]
	 SCS Total Energy          =    -377.8424819334029507 [Eh]
	-----------------------------------------------------------

  Dipole Moment: [D]
     X:     0.0292      Y:    -0.0244      Z:     0.2227     Total:     0.2260

*** Psi4 exiting successfully. Buy a developer a beer!
