                               Psi4 1.3.2 release

  ==> Input File <==

--------------------------------------------------------------------------
#psi4
#
memory 32 gb

molecule  {
0 1
  O        1.4608160    -0.9817270     0.0002400
  O       -1.4608130     0.9817270     0.0002230
  O        1.2132250     1.2829860    -0.0000330
  O       -1.2132270    -1.2829860    -0.0001300
  C        0.7476930     0.1601270    -0.0003220
  C       -0.7477388    -0.1601018     0.2497610
  H        2.4016800    -0.7069230     0.0005270
  H       -2.4016780     0.7069260     0.0004400
units angstrom
no_reorient  #important for SAPT in psi4, default
symmetry c1  #important for SAPT in psi4, default
}

set PROPERTIES_ORIGIN ["COM"]
properties('MP2/aug-cc-pvtz', properties = ['dipole'])
--------------------------------------------------------------------------

    Molecular point group: c1
  Charge       = 0
  Multiplicity = 1
  Basis Set: AUG-CC-PVTZ
    Blend: AUG-CC-PVTZ
  Basis Set: (AUG-CC-PVTZ AUX)
    Blend: AUG-CC-PVTZ-JKFIT

    Orbital Energies [Eh]
    ---------------------

    Doubly Occupied:

       1A    -20.646551     2A    -20.642940     3A    -20.599257
       4A    -20.594125     5A    -11.437596     6A    -11.435926
       7A     -1.503754     8A     -1.472455     9A     -1.398277
      10A     -1.376611    11A     -0.980576    12A     -0.841131
      13A     -0.743471    14A     -0.735781    15A     -0.714153
      16A     -0.678447    17A     -0.655203    18A     -0.627383
      19A     -0.607017    20A     -0.539395    21A     -0.511822
      22A     -0.503471    23A     -0.468835

  @DF-RHF Final Energy:  -376.48715395052466

   => Energetics <=

    Nuclear Repulsion Energy =            229.5889607315764067
    One-Electron Energy =                -972.7238770871521183
    Two-Electron Energy =                 366.6477624050510258
    Total Energy =                       -376.4871539505246574
  Basis Set: (AUG-CC-PVTZ AUX)
    Blend: AUG-CC-PVTZ-RI
    Molecular point group: c1

    Geometry (in Angstrom), charge = 0, multiplicity = 1:

       Center              X                  Y                   Z               Mass
    ------------   -----------------  -----------------  -----------------  -----------------
         O            1.460821906857    -0.981730393771    -0.033084415347    15.994914619570
         O           -1.460807093143     0.981723606229    -0.033101415347    15.994914619570
         O            1.213230906857     1.282982606229    -0.033357415347    15.994914619570
         O           -1.213221093143    -1.282989393771    -0.033454415347    15.994914619570
         C            0.747698906857     0.160123606229    -0.033646415347    12.000000000000
         C           -0.747732893143    -0.160105193771     0.216436584653    12.000000000000
         H            2.401685906857    -0.706926393771    -0.032797415347     1.007825032230
         H           -2.401672093143     0.706922606229    -0.032884415347     1.007825032230

  Basis Set: AUG-CC-PVTZ
    Blend: AUG-CC-PVTZ
  Basis Set: (AUG-CC-PVTZ AUX)
    Blend: AUG-CC-PVTZ-JKFIT
	 Reference Energy          =    -376.4871539505246574 [Eh]
	 Singles Energy            =      -0.0000000000000000 [Eh]
	 Same-Spin Energy          =      -0.3533327644910063 [Eh]
	 Opposite-Spin Energy      =      -1.0194599743562389 [Eh]
	 Correlation Energy        =      -1.3727927388472452 [Eh]
	 Total Energy              =    -377.8599466893718954 [Eh]

	 ================> DF-SCS-MP2 Energies <==================
	-----------------------------------------------------------
	 SCS Same-Spin Scale       =       0.3333333333333333 [-]
	 SCS Opposite-Spin Scale   =       1.2000000000000000 [-]
	 SCS Same-Spin Energy      =      -0.1177775881636687 [Eh]
	 SCS Opposite-Spin Energy  =      -1.2233519692274866 [Eh]
	 SCS Correlation Energy    =      -1.3411295573911552 [Eh]
	 SCS Total Energy          =    -377.8282835079157849 [Eh]
	-----------------------------------------------------------

  Dipole Moment: [D]
     X:     0.0848      Y:    -0.0680      Z:     0.3562     Total:     0.3724

*** Psi4 exiting successfully. Buy a developer a beer!
