                               Psi4 1.3.2 release

  ==> Input File <==

--------------------------------------------------------------------------
#psi4
#
memory 32 gb

molecule  {
0 1
  O        1.4608160    -0.9817270     0.0002400
  O       -1.4608130     0.9817270     0.0002230
  O        1.2132250     1.2829860    -0.0000330
  O       -1.2132270    -1.2829860    -0.0001300
  C        0.7476930     0.1601270    -0.0003220
  C       -0.7477299    -0.1601068     0.1997610
  H        2.4016800    -0.7069230     0.0005270
  H       -2.4016780     0.7069260     0.0004400
units angstrom
no_reorient  #important for SAPT in psi4, default
symmetry c1  #important for SAPT in psi4, default
}

set PROPERTIES_ORIGIN ["COM"]
properties('MP2/aug-cc-pvtz', properties = ['dipole'])
--------------------------------------------------------------------------

    Molecular point group: c1
  Charge       = 0
  Multiplicity = 1
  Basis Set: AUG-CC-PVTZ
    Blend: AUG-CC-PVTZ
  Basis Set: (AUG-CC-PVTZ AUX)
    Blend: AUG-CC-PVTZ-JKFIT

    Orbital Energies [Eh]
    ---------------------

    Doubly Occupied:

       1A    -20.646305     2A    -20.644044     3A    -20.597137
       4A    -20.593833     5A    -11.435493     6A    -11.434225
       7A     -1.505098     8A     -1.475168     9A     -1.399198
      10A     -1.380262    11A     -0.983163    12A     -0.842590
      13A     -0.745047    14A     -0.736355    15A     -0.715649
      16A     -0.679986    17A     -0.656327    18A     -0.628942
      19A     -0.608756    20A     -0.540011    21A     -0.511537
      22A     -0.506056    23A     -0.469290

  @DF-RHF Final Energy:  -376.49760641542252

   => Energetics <=

    Nuclear Repulsion Energy =            229.9576866301739244
    One-Electron Energy =                -973.4416367061718347
    Two-Electron Energy =                 366.9863436605753577
    Total Energy =                       -376.4976064154225242
  Basis Set: (AUG-CC-PVTZ AUX)
    Blend: AUG-CC-PVTZ-RI
    Molecular point group: c1

    Geometry (in Angstrom), charge = 0, multiplicity = 1:

       Center              X                  Y                   Z               Mass
    ------------   -----------------  -----------------  -----------------  -----------------
         O            1.460820720129    -0.981729727070    -0.026417401147    15.994914619570
         O           -1.460808279871     0.981724272930    -0.026434401147    15.994914619570
         O            1.213229720129     1.282983272930    -0.026690401147    15.994914619570
         O           -1.213222279871    -1.282988727070    -0.026787401147    15.994914619570
         C            0.747697720129     0.160124272930    -0.026979401147    12.000000000000
         C           -0.747725179871    -0.160109527070     0.173103598853    12.000000000000
         H            2.401684720129    -0.706925727070    -0.026130401147     1.007825032230
         H           -2.401673279871     0.706923272930    -0.026217401147     1.007825032230

  Basis Set: AUG-CC-PVTZ
    Blend: AUG-CC-PVTZ
  Basis Set: (AUG-CC-PVTZ AUX)
    Blend: AUG-CC-PVTZ-JKFIT
	 Reference Energy          =    -376.4976064154225242 [Eh]
	 Singles Energy            =      -0.0000000000000000 [Eh]
	 Same-Spin Energy          =      -0.3526702248650515 [Eh]
	 Opposite-Spin Energy      =      -1.0175725462847025 [Eh]
	 Correlation Energy        =      -1.3702427711497540 [Eh]
	 Total Energy              =    -377.8678491865723004 [Eh]

	 ================> DF-SCS-MP2 Energies <==================
	-----------------------------------------------------------
	 SCS Same-Spin Scale       =       0.3333333333333333 [-]
	 SCS Opposite-Spin Scale   =       1.2000000000000000 [-]
	 SCS Same-Spin Energy      =      -0.1175567416216838 [Eh]
	 SCS Opposite-Spin Energy  =      -1.2210870555416429 [Eh]
	 SCS Correlation Energy    =      -1.3386437971633267 [Eh]
	 SCS Total Energy          =    -377.8362502125858668 [Eh]
	-----------------------------------------------------------

  Dipole Moment: [D]
     X:     0.0529      Y:    -0.0435      Z:     0.2916     Total:     0.2996

*** Psi4 exiting successfully. Buy a developer a beer!
