                               Psi4 1.3.2 release

  ==> Input File <==

--------------------------------------------------------------------------
#psi4
#
memory 32 gb

molecule  {
0 1
  O        1.4608160    -0.9817270     0.0002400
  O       -1.4608130     0.9817270     0.0002230
  O        1.2132250     1.2829860    -0.0000330
  O       -1.2132270    -1.2829860    -0.0001300
  C        0.7476930     0.1601270    -0.0003220
  C       -0.7476940    -0.1601270    -0.0002390
  H        2.4016800    -0.7069230     0.0005270
  H       -2.4016780     0.7069260     0.0004400
units angstrom
no_reorient  #important for SAPT in psi4, default
symmetry c1  #important for SAPT in psi4, default
}

set PROPERTIES_ORIGIN ["COM"]
properties('MP2/aug-cc-pvtz', properties = ['dipole'])
--------------------------------------------------------------------------

    Molecular point group: c1
  Charge       = 0
  Multiplicity = 1
  Basis Set: AUG-CC-PVTZ
    Blend: AUG-CC-PVTZ
  Basis Set: (AUG-CC-PVTZ AUX)
    Blend: AUG-CC-PVTZ-JKFIT

    Orbital Energies [Eh]
    ---------------------

    Doubly Occupied:

       1A    -20.645930     2A    -20.645928     3A    -20.593402
       4A    -20.593402     5A    -11.431572     6A    -11.430994
       7A     -1.508296     8A     -1.479325     9A     -1.402496
      10A     -1.385594    11A     -0.987943    12A     -0.845417
      13A     -0.748316    14A     -0.737224    15A     -0.718074
      16A     -0.683171    17A     -0.658299    18A     -0.631409
      19A     -0.612000    20A     -0.541158    21A     -0.511603
      22A     -0.510389    23A     -0.470214

  @DF-RHF Final Energy:  -376.51610960387592

   => Energetics <=

    Nuclear Repulsion Energy =            230.6287693392529832
    One-Electron Energy =                -974.7454498502646629
    Two-Electron Energy =                 367.6005709071358183
    Total Energy =                       -376.5161096038759183
  Basis Set: (AUG-CC-PVTZ AUX)
    Blend: AUG-CC-PVTZ-RI
    Molecular point group: c1

    Geometry (in Angstrom), charge = 0, multiplicity = 1:

       Center              X                  Y                   Z               Mass
    ------------   -----------------  -----------------  -----------------  -----------------
         O            1.460815933212    -0.981727033596     0.000250655653    15.994914619570
         O           -1.460813066788     0.981726966404     0.000233655653    15.994914619570
         O            1.213224933212     1.282985966404    -0.000022344347    15.994914619570
         O           -1.213227066788    -1.282986033596    -0.000119344347    15.994914619570
         C            0.747692933212     0.160126966404    -0.000311344347    12.000000000000
         C           -0.747694066788    -0.160127033596    -0.000228344347    12.000000000000
         H            2.401679933212    -0.706923033596     0.000537655653     1.007825032230
         H           -2.401678066788     0.706925966404     0.000450655653     1.007825032230

  Basis Set: AUG-CC-PVTZ
    Blend: AUG-CC-PVTZ
  Basis Set: (AUG-CC-PVTZ AUX)
    Blend: AUG-CC-PVTZ-JKFIT
	 Reference Energy          =    -376.5161096038759183 [Eh]
	 Singles Energy            =      -0.0000000000000000 [Eh]
	 Same-Spin Energy          =      -0.3514912424746103 [Eh]
	 Opposite-Spin Energy      =      -1.0144847887408650 [Eh]
	 Correlation Energy        =      -1.3659760312154754 [Eh]
	 Total Energy              =    -377.8820856350914141 [Eh]

	 ================> DF-SCS-MP2 Energies <==================
	-----------------------------------------------------------
	 SCS Same-Spin Scale       =       0.3333333333333333 [-]
	 SCS Opposite-Spin Scale   =       1.2000000000000000 [-]
	 SCS Same-Spin Energy      =      -0.1171637474915368 [Eh]
	 SCS Opposite-Spin Energy  =      -1.2173817464890380 [Eh]
	 SCS Correlation Energy    =      -1.3345454939805748 [Eh]
	 SCS Total Energy          =    -377.8506550978564746 [Eh]
	-----------------------------------------------------------

  Dipole Moment: [D]
     X:    -0.0000      Y:     0.0000      Z:     0.0002     Total:     0.0002

*** Psi4 exiting successfully. Buy a developer a beer!
