                               Psi4 1.3.2 release

  ==> Input File <==

--------------------------------------------------------------------------
#psi4
#
memory 32 gb

molecule  {
0 1
  O        1.4608160    -0.9817270     0.0002400
  O       -1.4608130     0.9817270     0.0002230
  O        1.2132250     1.2829860    -0.0000330
  O       -1.2132270    -1.2829860    -0.0001300
  C        0.7476930     0.1601270    -0.0003220
  C       -0.7477119    -0.1601169     0.0997610
  H        2.4016800    -0.7069230     0.0005270
  H       -2.4016780     0.7069260     0.0004400
units angstrom
no_reorient  #important for SAPT in psi4, default
symmetry c1  #important for SAPT in psi4, default
}

set PROPERTIES_ORIGIN ["COM"]
properties('MP2/aug-cc-pvtz', properties = ['dipole'])
--------------------------------------------------------------------------

    Molecular point group: c1
  Charge       = 0
  Multiplicity = 1
  Basis Set: AUG-CC-PVTZ
    Blend: AUG-CC-PVTZ
  Basis Set: (AUG-CC-PVTZ AUX)
    Blend: AUG-CC-PVTZ-JKFIT

    Orbital Energies [Eh]
    ---------------------

    Doubly Occupied:

       1A    -20.646014     2A    -20.645471     3A    -20.594328
       4A    -20.593499     5A    -11.432528     6A    -11.431869
       7A     -1.507396     8A     -1.478374     9A     -1.401418
      10A     -1.384454    11A     -0.986723    12A     -0.844684
      13A     -0.747454    14A     -0.737015    15A     -0.717497
      16A     -0.682321    17A     -0.657806    18A     -0.630837
      19A     -0.611165    20A     -0.540864    21A     -0.511318
      22A     -0.509534    23A     -0.469966

  @DF-RHF Final Energy:  -376.51149947269107

   => Energetics <=

    Nuclear Repulsion Energy =            230.4593500708106433
    One-Electron Energy =                -974.4166300769434201
    Two-Electron Energy =                 367.4457805334417344
    Total Energy =                       -376.5114994726910709
  Basis Set: (AUG-CC-PVTZ AUX)
    Blend: AUG-CC-PVTZ-RI
    Molecular point group: c1

    Geometry (in Angstrom), charge = 0, multiplicity = 1:

       Center              X                  Y                   Z               Mass
    ------------   -----------------  -----------------  -----------------  -----------------
         O            1.460818320004    -0.981728380333    -0.013083372747    15.994914619570
         O           -1.460810679996     0.981725619667    -0.013100372747    15.994914619570
         O            1.213227320004     1.282984619667    -0.013356372747    15.994914619570
         O           -1.213224679996    -1.282987380333    -0.013453372747    15.994914619570
         C            0.747695320004     0.160125619667    -0.013645372747    12.000000000000
         C           -0.747709579996    -0.160118280333     0.086437627253    12.000000000000
         H            2.401682320004    -0.706924380333    -0.012796372747     1.007825032230
         H           -2.401675679996     0.706924619667    -0.012883372747     1.007825032230

  Basis Set: AUG-CC-PVTZ
    Blend: AUG-CC-PVTZ
  Basis Set: (AUG-CC-PVTZ AUX)
    Blend: AUG-CC-PVTZ-JKFIT
	 Reference Energy          =    -376.5114994726910709 [Eh]
	 Singles Energy            =      -0.0000000000000000 [Eh]
	 Same-Spin Energy          =      -0.3517856195627843 [Eh]
	 Opposite-Spin Energy      =      -1.0151818583093490 [Eh]
	 Correlation Energy        =      -1.3669674778721332 [Eh]
	 Total Energy              =    -377.8784669505632223 [Eh]

	 ================> DF-SCS-MP2 Energies <==================
	-----------------------------------------------------------
	 SCS Same-Spin Scale       =       0.3333333333333333 [-]
	 SCS Opposite-Spin Scale   =       1.2000000000000000 [-]
	 SCS Same-Spin Energy      =      -0.1172618731875948 [Eh]
	 SCS Opposite-Spin Energy  =      -1.2182182299712188 [Eh]
	 SCS Correlation Energy    =      -1.3354801031588135 [Eh]
	 SCS Total Energy          =    -377.8469795758499004 [Eh]
	-----------------------------------------------------------

  Dipole Moment: [D]
     X:     0.0128      Y:    -0.0108      Z:     0.1505     Total:     0.1514

*** Psi4 exiting successfully. Buy a developer a beer!
