                               Psi4 1.3.2 release

  ==> Input File <==

--------------------------------------------------------------------------
#psi4
#
memory 32 gb

molecule  {
0 1
  O        1.4608160    -0.9817270     0.0002400
  O       -1.4608130     0.9817270     0.0002230
  O        1.2132250     1.2829860    -0.0000330
  O       -1.2132270    -1.2829860    -0.0001300
  C        0.7476930     0.1601270    -0.0003220
  C       -0.7477478    -0.1600967     0.2997610
  H        2.4016800    -0.7069230     0.0005270
  H       -2.4016780     0.7069260     0.0004400
units angstrom
no_reorient  #important for SAPT in psi4, default
symmetry c1  #important for SAPT in psi4, default
}

set PROPERTIES_ORIGIN ["COM"]
properties('MP2/aug-cc-pvtz', properties = ['dipole'])
--------------------------------------------------------------------------

    Molecular point group: c1
  Charge       = 0
  Multiplicity = 1
  Basis Set: AUG-CC-PVTZ
    Blend: AUG-CC-PVTZ
  Basis Set: (AUG-CC-PVTZ AUX)
    Blend: AUG-CC-PVTZ-JKFIT

    Orbital Energies [Eh]
    ---------------------

    Doubly Occupied:

       1A    -20.646880     2A    -20.641549     3A    -20.601864
       4A    -20.594526     5A    -11.439979     6A    -11.437978
       7A     -1.502491     8A     -1.468843     9A     -1.397673
      10A     -1.371893    11A     -0.977509    12A     -0.839473
      13A     -0.741897    14A     -0.734899    15A     -0.712211
      16A     -0.676799    17A     -0.653789    18A     -0.625355
      19A     -0.604958    20A     -0.538665    21A     -0.512206
      22A     -0.500434    23A     -0.468334

  @DF-RHF Final Energy:  -376.47436843404591

   => Energetics <=

    Nuclear Repulsion Energy =            229.1468537740203999
    One-Electron Energy =                -971.8620332089089970
    Two-Electron Energy =                 366.2408110008426547
    Total Energy =                       -376.4743684340459140
  Basis Set: (AUG-CC-PVTZ AUX)
    Blend: AUG-CC-PVTZ-RI
    Molecular point group: c1

    Geometry (in Angstrom), charge = 0, multiplicity = 1:

       Center              X                  Y                   Z               Mass
    ------------   -----------------  -----------------  -----------------  -----------------
         O            1.460823106920    -0.981731073807    -0.039751429547    15.994914619570
         O           -1.460805893080     0.981722926193    -0.039768429547    15.994914619570
         O            1.213232106920     1.282981926193    -0.040024429547    15.994914619570
         O           -1.213219893080    -1.282990073807    -0.040121429547    15.994914619570
         C            0.747700106920     0.160122926193    -0.040313429547    12.000000000000
         C           -0.747740693080    -0.160100773807     0.259769570453    12.000000000000
         H            2.401687106920    -0.706927073807    -0.039464429547     1.007825032230
         H           -2.401670893080     0.706921926193    -0.039551429547     1.007825032230

  Basis Set: AUG-CC-PVTZ
    Blend: AUG-CC-PVTZ
  Basis Set: (AUG-CC-PVTZ AUX)
    Blend: AUG-CC-PVTZ-JKFIT
	 Reference Energy          =    -376.4743684340459140 [Eh]
	 Singles Energy            =      -0.0000000000000000 [Eh]
	 Same-Spin Energy          =      -0.3541395619866299 [Eh]
	 Opposite-Spin Energy      =      -1.0218114436138577 [Eh]
	 Correlation Energy        =      -1.3759510056004876 [Eh]
	 Total Energy              =    -377.8503194396463982 [Eh]

	 ================> DF-SCS-MP2 Energies <==================
	-----------------------------------------------------------
	 SCS Same-Spin Scale       =       0.3333333333333333 [-]
	 SCS Opposite-Spin Scale   =       1.2000000000000000 [-]
	 SCS Same-Spin Energy      =      -0.1180465206622100 [Eh]
	 SCS Opposite-Spin Energy  =      -1.2261737323366291 [Eh]
	 SCS Correlation Energy    =      -1.3442202529988390 [Eh]
	 SCS Total Energy          =    -377.8185886870447803 [Eh]
	-----------------------------------------------------------

  Dipole Moment: [D]
     X:     0.1257      Y:    -0.0973      Z:     0.4157     Total:     0.4451

*** Psi4 exiting successfully. Buy a developer a beer!
