                               Psi4 1.3.2 release

  ==> Input File <==

--------------------------------------------------------------------------
#psi4
#
memory 32 gb

molecule  {
0 1
  O        1.4608160    -0.9817270     0.0002400
  O       -1.4608130     0.9817270     0.0002230
  O        1.2132250     1.2829860    -0.0000330
  O       -1.2132270    -1.2829860    -0.0001300
  C        0.7476930     0.1601270    -0.0003220
  C       -0.7477030    -0.1601220     0.0497610
  H        2.4016800    -0.7069230     0.0005270
  H       -2.4016780     0.7069260     0.0004400
units angstrom
no_reorient  #important for SAPT in psi4, default
symmetry c1  #important for SAPT in psi4, default
}

set PROPERTIES_ORIGIN ["COM"]
properties('MP2/aug-cc-pvtz', properties = ['dipole'])
--------------------------------------------------------------------------

    Molecular point group: c1
  Charge       = 0
  Multiplicity = 1
  Basis Set: AUG-CC-PVTZ
    Blend: AUG-CC-PVTZ
  Basis Set: (AUG-CC-PVTZ AUX)
    Blend: AUG-CC-PVTZ-JKFIT

    Orbital Energies [Eh]
    ---------------------

    Doubly Occupied:

       1A    -20.645949     2A    -20.645818     3A    -20.593631
       4A    -20.593425     5A    -11.431803     6A    -11.431220
       7A     -1.508066     8A     -1.479095     9A     -1.402209
      10A     -1.385324    11A     -0.987634    12A     -0.845234
      13A     -0.748099    14A     -0.737171    15A     -0.717932
      16A     -0.682956    17A     -0.658176    18A     -0.631270
      19A     -0.611788    20A     -0.541084    21A     -0.511473
      22A     -0.510231    23A     -0.470150

  @DF-RHF Final Energy:  -376.51495986193993

   => Energetics <=

    Nuclear Repulsion Energy =            230.5864691482288151
    One-Electron Energy =                -974.6633798318882782
    Two-Electron Energy =                 367.5619508217195062
    Total Energy =                       -376.5149598619399285
  Basis Set: (AUG-CC-PVTZ AUX)
    Blend: AUG-CC-PVTZ-RI
    Molecular point group: c1

    Geometry (in Angstrom), charge = 0, multiplicity = 1:

       Center              X                  Y                   Z               Mass
    ------------   -----------------  -----------------  -----------------  -----------------
         O            1.460817133275    -0.981727700297    -0.006416358547    15.994914619570
         O           -1.460811866725     0.981726299703    -0.006433358547    15.994914619570
         O            1.213226133275     1.282985299703    -0.006689358547    15.994914619570
         O           -1.213225866725    -1.282986700297    -0.006786358547    15.994914619570
         C            0.747694133275     0.160126299703    -0.006978358547    12.000000000000
         C           -0.747701866725    -0.160122700297     0.043104641453    12.000000000000
         H            2.401681133275    -0.706923700297    -0.006129358547     1.007825032230
         H           -2.401676866725     0.706925299703    -0.006216358547     1.007825032230

  Basis Set: AUG-CC-PVTZ
    Blend: AUG-CC-PVTZ
  Basis Set: (AUG-CC-PVTZ AUX)
    Blend: AUG-CC-PVTZ-JKFIT
	 Reference Energy          =    -376.5149598619399285 [Eh]
	 Singles Energy            =      -0.0000000000000000 [Eh]
	 Same-Spin Energy          =      -0.3515646495427188 [Eh]
	 Opposite-Spin Energy      =      -1.0146475456436943 [Eh]
	 Correlation Energy        =      -1.3662121951864132 [Eh]
	 Total Energy              =    -377.8811720571263209 [Eh]

	 ================> DF-SCS-MP2 Energies <==================
	-----------------------------------------------------------
	 SCS Same-Spin Scale       =       0.3333333333333333 [-]
	 SCS Opposite-Spin Scale   =       1.2000000000000000 [-]
	 SCS Same-Spin Energy      =      -0.1171882165142396 [Eh]
	 SCS Opposite-Spin Energy  =      -1.2175770547724332 [Eh]
	 SCS Correlation Energy    =      -1.3347652712866727 [Eh]
	 SCS Total Energy          =    -377.8497251332266273 [Eh]
	-----------------------------------------------------------

  Dipole Moment: [D]
     X:     0.0031      Y:    -0.0026      Z:     0.0760     Total:     0.0761

*** Psi4 exiting successfully. Buy a developer a beer!
