                               Psi4 1.3.2 release

  ==> Input File <==

--------------------------------------------------------------------------
#psi4
#
memory 32 gb

molecule  {
0 1
  O       -2.2266400     1.8867650    -0.0032170
  O       -3.7615920     0.4694410    -0.8736430
  N       -2.7859400    -1.6499310     0.5252010
  N        1.9794570     0.3457110    -0.2591130
  N        3.8978530     1.3104060     0.6447910
  N        4.0160410    -0.8946960    -0.1223760
  C       -0.6937690    -0.3717720     0.7299070
  C       -0.1993830    -0.6671070    -0.6806480
  C       -2.2227870    -0.3377670     0.8339710
  C        1.3098450    -0.8661090    -0.7166530
  C       -2.8261080     0.6730930    -0.1173080
  C        3.2319800     0.2459460     0.0175660
  H       -0.2748670     0.5765650     1.0765220
  H       -0.3365530    -1.1529370     1.4152070
  H       -0.7054620    -1.5600450    -1.0625750
  H       -0.4516800     0.1714660    -1.3406670
  H       -2.4873830     0.0287790     1.8430020
  H        1.5813230    -1.7317920    -0.0895090
  H        1.6134840    -1.1144100    -1.7484380
  H       -3.7640510    -1.5477110     0.2601170
  H       -2.7467370    -2.2384130     1.3547150
  H       -2.6964570     2.4686380    -0.6361950
  H        3.2621090     2.1005400     0.7117460
  H        4.7041927     1.6713138    -0.0539313
  H        5.0073770    -0.7866830     0.0488590
  H        3.7976690    -1.4866510    -0.9131750
units angstrom
no_reorient  #important for SAPT in psi4, default
symmetry c1  #important for SAPT in psi4, default
}

set PROPERTIES_ORIGIN ["COM"]
properties('MP2/aug-cc-pvtz', properties = ['dipole'])
--------------------------------------------------------------------------

    Molecular point group: c1
  Charge       = 0
  Multiplicity = 1
  Basis Set: AUG-CC-PVTZ
    Blend: AUG-CC-PVTZ
  Basis Set: (AUG-CC-PVTZ AUX)
    Blend: AUG-CC-PVTZ-JKFIT

    Orbital Energies [Eh]
    ---------------------

    Doubly Occupied:

       1A    -20.610429     2A    -20.547613     3A    -15.583230
       4A    -15.582508     5A    -15.540048     6A    -15.518612
       7A    -11.382916     8A    -11.340949     9A    -11.271463
      10A    -11.239598    11A    -11.213327    12A    -11.202744
      13A     -1.456067    14A     -1.352799    15A     -1.294371
      16A     -1.190011    17A     -1.164032    18A     -1.155043
      19A     -1.047374    20A     -0.974381    21A     -0.892368
      22A     -0.820058    23A     -0.784757    24A     -0.765521
      25A     -0.718954    26A     -0.702459    27A     -0.695482
      28A     -0.674072    29A     -0.656416    30A     -0.634009
      31A     -0.627664    32A     -0.618200    33A     -0.607965
      34A     -0.590401    35A     -0.569978    36A     -0.549239
      37A     -0.542825    38A     -0.518261    39A     -0.492409
      40A     -0.477892    41A     -0.470351    42A     -0.468893
      43A     -0.442970    44A     -0.440859    45A     -0.399368
      46A     -0.391909    47A     -0.350242

  @DF-RHF Final Energy:  -603.11373069812669

   => Energetics <=

    Nuclear Repulsion Energy =            725.3784256385498566
    One-Electron Energy =               -2263.8422336573435132
    Two-Electron Energy =                 935.3500773206670829
    Total Energy =                       -603.1137306981266875
  Basis Set: (AUG-CC-PVTZ AUX)
    Blend: AUG-CC-PVTZ-RI
    Molecular point group: c1

    Geometry (in Angstrom), charge = 0, multiplicity = 1:

       Center              X                  Y                   Z               Mass
    ------------   -----------------  -----------------  -----------------  -----------------
         O           -2.189281961175     1.859635833286     0.004303249922    15.994914619570
         O           -3.724233961175     0.442311833286    -0.866122750078    15.994914619570
         N           -2.748581961175    -1.677060166714     0.532721249922    14.003074004430
         N            2.016815038825     0.318581833286    -0.251592750078    14.003074004430
         N            3.935211038825     1.283276833286     0.652311249922    14.003074004430
         N            4.053399038825    -0.921825166714    -0.114855750078    14.003074004430
         C           -0.656410961175    -0.398901166714     0.737427249922    12.000000000000
         C           -0.162024961175    -0.694236166714    -0.673127750078    12.000000000000
         C           -2.185428961175    -0.364896166714     0.841491249922    12.000000000000
         C            1.347203038825    -0.893238166714    -0.709132750078    12.000000000000
         C           -2.788749961175     0.645963833286    -0.109787750078    12.000000000000
         C            3.269338038825     0.218816833286     0.025086249922    12.000000000000
         H           -0.237508961175     0.549435833286     1.084042249922     1.007825032230
         H           -0.299194961175    -1.180066166714     1.422727249922     1.007825032230
         H           -0.668103961175    -1.587174166714    -1.055054750078     1.007825032230
         H           -0.414321961175     0.144336833286    -1.333146750078     1.007825032230
         H           -2.450024961175     0.001649833286     1.850522249922     1.007825032230
         H            1.618681038825    -1.758921166714    -0.081988750078     1.007825032230
         H            1.650842038825    -1.141539166714    -1.740917750078     1.007825032230
         H           -3.726692961175    -1.574840166714     0.267637249922     1.007825032230
         H           -2.709378961175    -2.265542166714     1.362235249922     1.007825032230
         H           -2.659098961175     2.441508833286    -0.628674750078     1.007825032230
         H            3.299467038825     2.073410833286     0.719266249922     1.007825032230
         H            4.741550738825     1.644184633286    -0.046411050078     1.007825032230
         H            5.044735038825    -0.813812166714     0.056379249922     1.007825032230
         H            3.835027038825    -1.513780166714    -0.905654750078     1.007825032230

  Basis Set: AUG-CC-PVTZ
    Blend: AUG-CC-PVTZ
  Basis Set: (AUG-CC-PVTZ AUX)
    Blend: AUG-CC-PVTZ-JKFIT
	 Reference Energy          =    -603.1137306981266875 [Eh]
	 Singles Energy            =      -0.0000000000000000 [Eh]
	 Same-Spin Energy          =      -0.6208389544430927 [Eh]
	 Opposite-Spin Energy      =      -1.9560896099779386 [Eh]
	 Correlation Energy        =      -2.5769285644210314 [Eh]
	 Total Energy              =    -605.6906592625476833 [Eh]

	 ================> DF-SCS-MP2 Energies <==================
	-----------------------------------------------------------
	 SCS Same-Spin Scale       =       0.3333333333333333 [-]
	 SCS Opposite-Spin Scale   =       1.2000000000000000 [-]
	 SCS Same-Spin Energy      =      -0.2069463181476975 [Eh]
	 SCS Opposite-Spin Energy  =      -2.3473075319735264 [Eh]
	 SCS Correlation Energy    =      -2.5542538501212237 [Eh]
	 SCS Total Energy          =    -605.6679845482478868 [Eh]
	-----------------------------------------------------------

  Dipole Moment: [D]
     X:     3.1232      Y:     0.2604      Z:     0.1126     Total:     3.1361

*** Psi4 exiting successfully. Buy a developer a beer!
