                               Psi4 1.3.2 release

  ==> Input File <==

--------------------------------------------------------------------------
#psi4
#
memory 32 gb

molecule  {
0 1
  O       -2.2266400     1.8867650    -0.0032170
  O       -3.7615920     0.4694410    -0.8736430
  N       -2.7859400    -1.6499310     0.5252010
  N        1.9794570     0.3457110    -0.2591130
  N        3.8978530     1.3104060     0.6447910
  N        4.0160410    -0.8946960    -0.1223760
  C       -0.6937690    -0.3717720     0.7299070
  C       -0.1993830    -0.6671070    -0.6806480
  C       -2.2877740    -0.3110949     0.9051418
  C        1.3098450    -0.8661090    -0.7166530
  C       -2.8261080     0.6730930    -0.1173080
  C        3.2319800     0.2459460     0.0175660
  H       -0.2748670     0.5765650     1.0765220
  H       -0.3365530    -1.1529370     1.4152070
  H       -0.7054620    -1.5600450    -1.0625750
  H       -0.4516800     0.1714660    -1.3406670
  H       -2.4873830     0.0287790     1.8430020
  H        1.5813230    -1.7317920    -0.0895090
  H        1.6134840    -1.1144100    -1.7484380
  H       -3.7640510    -1.5477110     0.2601170
  H       -2.7467370    -2.2384130     1.3547150
  H       -2.6964570     2.4686380    -0.6361950
  H        3.2621090     2.1005400     0.7117460
  H        4.7565350     1.5848730     0.1747350
  H        5.0073770    -0.7866830     0.0488590
  H        3.7976690    -1.4866510    -0.9131750
units angstrom
no_reorient  #important for SAPT in psi4, default
symmetry c1  #important for SAPT in psi4, default
}

set PROPERTIES_ORIGIN ["COM"]
properties('MP2/aug-cc-pvtz', properties = ['dipole'])
--------------------------------------------------------------------------

    Molecular point group: c1
  Charge       = 0
  Multiplicity = 1
  Basis Set: AUG-CC-PVTZ
    Blend: AUG-CC-PVTZ
  Basis Set: (AUG-CC-PVTZ AUX)
    Blend: AUG-CC-PVTZ-JKFIT

    Orbital Energies [Eh]
    ---------------------

    Doubly Occupied:

       1A    -20.609481     2A    -20.546736     3A    -15.583194
       4A    -15.571323     5A    -15.541439     6A    -15.514910
       7A    -11.382178     8A    -11.341183     9A    -11.266279
      10A    -11.238643    11A    -11.215063    12A    -11.201907
      13A     -1.454981    14A     -1.351784    15A     -1.294899
      16A     -1.184897    17A     -1.167306    18A     -1.157472
      19A     -1.040798    20A     -0.973907    21A     -0.890739
      22A     -0.820247    23A     -0.787453    24A     -0.764727
      25A     -0.718730    26A     -0.705676    27A     -0.700508
      28A     -0.693287    29A     -0.656638    30A     -0.637622
      31A     -0.630235    32A     -0.617353    33A     -0.605535
      34A     -0.595195    35A     -0.567467    36A     -0.548690
      37A     -0.537540    38A     -0.519181    39A     -0.491213
      40A     -0.476528    41A     -0.469679    42A     -0.460105
      43A     -0.439578    44A     -0.436899    45A     -0.399688
      46A     -0.394699    47A     -0.346545

  @DF-RHF Final Energy:  -603.11568114244255

   => Energetics <=

    Nuclear Repulsion Energy =            724.4466579847201047
    One-Electron Energy =               -2262.0244019489500715
    Two-Electron Energy =                 934.4620628217874128
    Total Energy =                       -603.1156811424425541
  Basis Set: (AUG-CC-PVTZ AUX)
    Blend: AUG-CC-PVTZ-RI
    Molecular point group: c1

    Geometry (in Angstrom), charge = 0, multiplicity = 1:

       Center              X                  Y                   Z               Mass
    ------------   -----------------  -----------------  -----------------  -----------------
         O           -2.185105951055     1.858297910387    -0.001925540977    15.994914619570
         O           -3.720057951055     0.440973910387    -0.872351540977    15.994914619570
         N           -2.744405951055    -1.678398089613     0.526492459023    14.003074004430
         N            2.020991048945     0.317243910387    -0.257821540977    14.003074004430
         N            3.939387048945     1.281938910387     0.646082459023    14.003074004430
         N            4.057575048945    -0.923163089613    -0.121084540977    14.003074004430
         C           -0.652234951055    -0.400239089613     0.731198459023    12.000000000000
         C           -0.157848951055    -0.695574089613    -0.679356540977    12.000000000000
         C           -2.246239951055    -0.339561989613     0.906433259023    12.000000000000
         C            1.351379048945    -0.894576089613    -0.715361540977    12.000000000000
         C           -2.784573951055     0.644625910387    -0.116016540977    12.000000000000
         C            3.273514048945     0.217478910387     0.018857459023    12.000000000000
         H           -0.233332951055     0.548097910387     1.077813459023     1.007825032230
         H           -0.295018951055    -1.181404089613     1.416498459023     1.007825032230
         H           -0.663927951055    -1.588512089613    -1.061283540977     1.007825032230
         H           -0.410145951055     0.142998910387    -1.339375540977     1.007825032230
         H           -2.445848951055     0.000311910387     1.844293459023     1.007825032230
         H            1.622857048945    -1.760259089613    -0.088217540977     1.007825032230
         H            1.655018048945    -1.142877089613    -1.747146540977     1.007825032230
         H           -3.722516951055    -1.576178089613     0.261408459023     1.007825032230
         H           -2.705202951055    -2.266880089613     1.356006459023     1.007825032230
         H           -2.654922951055     2.440170910387    -0.634903540977     1.007825032230
         H            3.303643048945     2.072072910387     0.713037459023     1.007825032230
         H            4.798069048945     1.556405910387     0.176026459023     1.007825032230
         H            5.048911048945    -0.815150089613     0.050150459023     1.007825032230
         H            3.839203048945    -1.515118089613    -0.911883540977     1.007825032230

  Basis Set: AUG-CC-PVTZ
    Blend: AUG-CC-PVTZ
  Basis Set: (AUG-CC-PVTZ AUX)
    Blend: AUG-CC-PVTZ-JKFIT
	 Reference Energy          =    -603.1156811424425541 [Eh]
	 Singles Energy            =      -0.0000000000000000 [Eh]
	 Same-Spin Energy          =      -0.6201572468317826 [Eh]
	 Opposite-Spin Energy      =      -1.9544202739039489 [Eh]
	 Correlation Energy        =      -2.5745775207357315 [Eh]
	 Total Energy              =    -605.6902586631782697 [Eh]

	 ================> DF-SCS-MP2 Energies <==================
	-----------------------------------------------------------
	 SCS Same-Spin Scale       =       0.3333333333333333 [-]
	 SCS Opposite-Spin Scale   =       1.2000000000000000 [-]
	 SCS Same-Spin Energy      =      -0.2067190822772609 [Eh]
	 SCS Opposite-Spin Energy  =      -2.3453043286847386 [Eh]
	 SCS Correlation Energy    =      -2.5520234109619997 [Eh]
	 SCS Total Energy          =    -605.6677045534045192 [Eh]
	-----------------------------------------------------------

  Dipole Moment: [D]
     X:     3.3357      Y:     0.3009      Z:     0.4052     Total:     3.3736

*** Psi4 exiting successfully. Buy a developer a beer!
