                               Psi4 1.3.2 release

  ==> Input File <==

--------------------------------------------------------------------------
#psi4
#
memory 32 gb

molecule  {
0 1
  O       -2.2266400     1.8867650    -0.0032170
  O       -3.7615920     0.4694410    -0.8736430
  N       -2.7859400    -1.6499310     0.5252010
  N        1.9794570     0.3457110    -0.2591130
  N        3.8978530     1.3104060     0.6447910
  N        4.0683738    -0.8287721    -0.3038018
  C       -0.6937690    -0.3717720     0.7299070
  C       -0.1993830    -0.6671070    -0.6806480
  C       -2.2227870    -0.3377670     0.8339710
  C        1.3098450    -0.8661090    -0.7166530
  C       -2.8261080     0.6730930    -0.1173080
  C        3.2319800     0.2459460     0.0175660
  H       -0.2748670     0.5765650     1.0765220
  H       -0.3365530    -1.1529370     1.4152070
  H       -0.7054620    -1.5600450    -1.0625750
  H       -0.4516800     0.1714660    -1.3406670
  H       -2.4873830     0.0287790     1.8430020
  H        1.5813230    -1.7317920    -0.0895090
  H        1.6134840    -1.1144100    -1.7484380
  H       -3.7640510    -1.5477110     0.2601170
  H       -2.7467370    -2.2384130     1.3547150
  H       -2.6964570     2.4686380    -0.6361950
  H        3.2621090     2.1005400     0.7117460
  H        4.7565350     1.5848730     0.1747350
  H        5.0073770    -0.7866830     0.0488590
  H        3.7976690    -1.4866510    -0.9131750
units angstrom
no_reorient  #important for SAPT in psi4, default
symmetry c1  #important for SAPT in psi4, default
}

set PROPERTIES_ORIGIN ["COM"]
properties('MP2/aug-cc-pvtz', properties = ['dipole'])
--------------------------------------------------------------------------

    Molecular point group: c1
  Charge       = 0
  Multiplicity = 1
  Basis Set: AUG-CC-PVTZ
    Blend: AUG-CC-PVTZ
  Basis Set: (AUG-CC-PVTZ AUX)
    Blend: AUG-CC-PVTZ-JKFIT

    Orbital Energies [Eh]
    ---------------------

    Doubly Occupied:

       1A    -20.609762     2A    -20.547003     3A    -15.575526
       4A    -15.571635     5A    -15.539564     6A    -15.512660
       7A    -11.382301     8A    -11.344259     9A    -11.270797
      10A    -11.238760    11A    -11.212365    12A    -11.201719
      13A     -1.455419    14A     -1.352174    15A     -1.294725
      16A     -1.189475    17A     -1.172757    18A     -1.157781
      19A     -1.046924    20A     -0.974235    21A     -0.892750
      22A     -0.824831    23A     -0.791961    24A     -0.766518
      25A     -0.732925    26A     -0.703523    27A     -0.701036
      28A     -0.690326    29A     -0.656561    30A     -0.635580
      31A     -0.633961    32A     -0.617878    33A     -0.612928
      34A     -0.594602    35A     -0.570299    36A     -0.553298
      37A     -0.541689    38A     -0.521872    39A     -0.490922
      40A     -0.477016    41A     -0.470127    42A     -0.467080
      43A     -0.440225    44A     -0.431295    45A     -0.397557
      46A     -0.390849    47A     -0.344669

  @DF-RHF Final Energy:  -603.12223080704223

   => Energetics <=

    Nuclear Repulsion Energy =            725.5525147274570372
    One-Electron Energy =               -2264.1452491122900028
    Two-Electron Energy =                 935.4705035777907369
    Total Energy =                       -603.1222308070422287
  Basis Set: (AUG-CC-PVTZ AUX)
    Blend: AUG-CC-PVTZ-RI
    Molecular point group: c1

    Geometry (in Angstrom), charge = 0, multiplicity = 1:

       Center              X                  Y                   Z               Mass
    ------------   -----------------  -----------------  -----------------  -----------------
         O           -2.193793846712     1.854834202121     0.017570960276    15.994914619570
         O           -3.728745846712     0.437510202121    -0.852855039724    15.994914619570
         N           -2.753093846712    -1.681861797879     0.545988960276    14.003074004430
         N            2.012303153288     0.313780202121    -0.238325039724    14.003074004430
         N            3.930699153288     1.278475202121     0.665578960276    14.003074004430
         N            4.101219953288    -0.860702897879    -0.283013839724    14.003074004430
         C           -0.660922846712    -0.403702797879     0.750694960276    12.000000000000
         C           -0.166536846712    -0.699037797879    -0.659860039724    12.000000000000
         C           -2.189940846712    -0.369697797879     0.854758960276    12.000000000000
         C            1.342691153288    -0.898039797879    -0.695865039724    12.000000000000
         C           -2.793261846712     0.641162202121    -0.096520039724    12.000000000000
         C            3.264826153288     0.214015202121     0.038353960276    12.000000000000
         H           -0.242020846712     0.544634202121     1.097309960276     1.007825032230
         H           -0.303706846712    -1.184867797879     1.435994960276     1.007825032230
         H           -0.672615846712    -1.591975797879    -1.041787039724     1.007825032230
         H           -0.418833846712     0.139535202121    -1.319879039724     1.007825032230
         H           -2.454536846712    -0.003151797879     1.863789960276     1.007825032230
         H            1.614169153288    -1.763722797879    -0.068721039724     1.007825032230
         H            1.646330153288    -1.146340797879    -1.727650039724     1.007825032230
         H           -3.731204846712    -1.579641797879     0.280904960276     1.007825032230
         H           -2.713890846712    -2.270343797879     1.375502960276     1.007825032230
         H           -2.663610846712     2.436707202121    -0.615407039724     1.007825032230
         H            3.294955153288     2.068609202121     0.732533960276     1.007825032230
         H            4.789381153288     1.552942202121     0.195522960276     1.007825032230
         H            5.040223153288    -0.818613797879     0.069646960276     1.007825032230
         H            3.830515153288    -1.518581797879    -0.892387039724     1.007825032230

  Basis Set: AUG-CC-PVTZ
    Blend: AUG-CC-PVTZ
  Basis Set: (AUG-CC-PVTZ AUX)
    Blend: AUG-CC-PVTZ-JKFIT
	 Reference Energy          =    -603.1222308070422287 [Eh]
	 Singles Energy            =      -0.0000000000000000 [Eh]
	 Same-Spin Energy          =      -0.6198181372465115 [Eh]
	 Opposite-Spin Energy      =      -1.9523992215383561 [Eh]
	 Correlation Energy        =      -2.5722173587848678 [Eh]
	 Total Energy              =    -605.6944481658271116 [Eh]

	 ================> DF-SCS-MP2 Energies <==================
	-----------------------------------------------------------
	 SCS Same-Spin Scale       =       0.3333333333333333 [-]
	 SCS Opposite-Spin Scale   =       1.2000000000000000 [-]
	 SCS Same-Spin Energy      =      -0.2066060457488371 [Eh]
	 SCS Opposite-Spin Energy  =      -2.3428790658460272 [Eh]
	 SCS Correlation Energy    =      -2.5494851115948642 [Eh]
	 SCS Total Energy          =    -605.6717159186371191 [Eh]
	-----------------------------------------------------------

  Dipole Moment: [D]
     X:     3.3468      Y:     0.0590      Z:     0.7273     Total:     3.4254

*** Psi4 exiting successfully. Buy a developer a beer!
