                               Psi4 1.3.2 release

  ==> Input File <==

--------------------------------------------------------------------------
#psi4
#
memory 32 gb

molecule  {
0 1
  O       -2.2266400     1.8867650    -0.0032170
  O       -3.7615920     0.4694410    -0.8736430
  N       -2.7859400    -1.6499310     0.5252010
  N        1.9794570     0.3457110    -0.2591130
  N        3.8978530     1.3104060     0.6447910
  N        4.0160410    -0.8946960    -0.1223760
  C       -0.6937690    -0.3717720     0.7299070
  C       -0.1993830    -0.6671070    -0.6806480
  C       -2.4177481    -0.2577507     1.0474835
  C        1.3098450    -0.8661090    -0.7166530
  C       -2.8261080     0.6730930    -0.1173080
  C        3.2319800     0.2459460     0.0175660
  H       -0.2748670     0.5765650     1.0765220
  H       -0.3365530    -1.1529370     1.4152070
  H       -0.7054620    -1.5600450    -1.0625750
  H       -0.4516800     0.1714660    -1.3406670
  H       -2.4873830     0.0287790     1.8430020
  H        1.5813230    -1.7317920    -0.0895090
  H        1.6134840    -1.1144100    -1.7484380
  H       -3.7640510    -1.5477110     0.2601170
  H       -2.7467370    -2.2384130     1.3547150
  H       -2.6964570     2.4686380    -0.6361950
  H        3.2621090     2.1005400     0.7117460
  H        4.7565350     1.5848730     0.1747350
  H        5.0073770    -0.7866830     0.0488590
  H        3.7976690    -1.4866510    -0.9131750
units angstrom
no_reorient  #important for SAPT in psi4, default
symmetry c1  #important for SAPT in psi4, default
}

set PROPERTIES_ORIGIN ["COM"]
properties('MP2/aug-cc-pvtz', properties = ['dipole'])
--------------------------------------------------------------------------

    Molecular point group: c1
  Charge       = 0
  Multiplicity = 1
  Basis Set: AUG-CC-PVTZ
    Blend: AUG-CC-PVTZ
  Basis Set: (AUG-CC-PVTZ AUX)
    Blend: AUG-CC-PVTZ-JKFIT

    Orbital Energies [Eh]
    ---------------------

    Doubly Occupied:

       1A    -20.607905     2A    -20.545565     3A    -15.583096
       4A    -15.571106     5A    -15.548468     6A    -15.514730
       7A    -11.385326     8A    -11.340956     9A    -11.262327
      10A    -11.239872    11A    -11.221816    12A    -11.203621
      13A     -1.453159    14A     -1.350384    15A     -1.294755
      16A     -1.173851    17A     -1.167148    18A     -1.157374
      19A     -1.034050    20A     -0.978168    21A     -0.889126
      22A     -0.826001    23A     -0.798752    24A     -0.766418
      25A     -0.720355    26A     -0.718247    27A     -0.698298
      28A     -0.695954    29A     -0.649252    30A     -0.636700
      31A     -0.629149    32A     -0.616774    33A     -0.606313
      34A     -0.598295    35A     -0.562316    36A     -0.542587
      37A     -0.530400    38A     -0.517151    39A     -0.488761
      40A     -0.475593    41A     -0.469280    42A     -0.450230
      43A     -0.439914    44A     -0.435024    45A     -0.395814
      46A     -0.385454    47A     -0.346424

  @DF-RHF Final Energy:  -603.01661754588065

   => Energetics <=

    Nuclear Repulsion Energy =            721.6829135363926753
    One-Electron Energy =               -2256.3545521470246058
    Two-Electron Energy =                 931.6550210647511676
    Total Energy =                       -603.0166175458806492
  Basis Set: (AUG-CC-PVTZ AUX)
    Blend: AUG-CC-PVTZ-RI
    Molecular point group: c1

    Geometry (in Angstrom), charge = 0, multiplicity = 1:

       Center              X                  Y                   Z               Mass
    ------------   -----------------  -----------------  -----------------  -----------------
         O           -2.176147969382     1.854621359706    -0.011735913504    15.994914619570
         O           -3.711099969382     0.437297359706    -0.882161913504    15.994914619570
         N           -2.735447969382    -1.682074640294     0.516682086496    14.003074004430
         N            2.029949030618     0.313567359706    -0.267631913504    14.003074004430
         N            3.948345030618     1.278262359706     0.636272086496    14.003074004430
         N            4.066533030618    -0.926839640294    -0.130894913504    14.003074004430
         C           -0.643276969382    -0.403915640294     0.721388086496    12.000000000000
         C           -0.148890969382    -0.699250640294    -0.689166913504    12.000000000000
         C           -2.367256069382    -0.289894340294     1.038964586496    12.000000000000
         C            1.360337030618    -0.898252640294    -0.725171913504    12.000000000000
         C           -2.775615969382     0.640949359706    -0.125826913504    12.000000000000
         C            3.282472030618     0.213802359706     0.009047086496    12.000000000000
         H           -0.224374969382     0.544421359706     1.068003086496     1.007825032230
         H           -0.286060969382    -1.185080640294     1.406688086496     1.007825032230
         H           -0.654969969382    -1.592188640294    -1.071093913504     1.007825032230
         H           -0.401187969382     0.139322359706    -1.349185913504     1.007825032230
         H           -2.436890969382    -0.003364640294     1.834483086496     1.007825032230
         H            1.631815030618    -1.763935640294    -0.098027913504     1.007825032230
         H            1.663976030618    -1.146553640294    -1.756956913504     1.007825032230
         H           -3.713558969382    -1.579854640294     0.251598086496     1.007825032230
         H           -2.696244969382    -2.270556640294     1.346196086496     1.007825032230
         H           -2.645964969382     2.436494359706    -0.644713913504     1.007825032230
         H            3.312601030618     2.068396359706     0.703227086496     1.007825032230
         H            4.807027030618     1.552729359706     0.166216086496     1.007825032230
         H            5.057869030618    -0.818826640294     0.040340086496     1.007825032230
         H            3.848161030618    -1.518794640294    -0.921693913504     1.007825032230

  Basis Set: AUG-CC-PVTZ
    Blend: AUG-CC-PVTZ
  Basis Set: (AUG-CC-PVTZ AUX)
    Blend: AUG-CC-PVTZ-JKFIT
	 Reference Energy          =    -603.0166175458806492 [Eh]
	 Singles Energy            =      -0.0000000000000000 [Eh]
	 Same-Spin Energy          =      -0.6215615840286810 [Eh]
	 Opposite-Spin Energy      =      -1.9599607508124888 [Eh]
	 Correlation Energy        =      -2.5815223348411696 [Eh]
	 Total Energy              =    -605.5981398807218739 [Eh]

	 ================> DF-SCS-MP2 Energies <==================
	-----------------------------------------------------------
	 SCS Same-Spin Scale       =       0.3333333333333333 [-]
	 SCS Opposite-Spin Scale   =       1.2000000000000000 [-]
	 SCS Same-Spin Energy      =      -0.2071871946762270 [Eh]
	 SCS Opposite-Spin Energy  =      -2.3519529009749864 [Eh]
	 SCS Correlation Energy    =      -2.5591400956512134 [Eh]
	 SCS Total Energy          =    -605.5757576415318226 [Eh]
	-----------------------------------------------------------

  Dipole Moment: [D]
     X:     3.2923      Y:     0.2472      Z:     0.4313     Total:     3.3296

*** Psi4 exiting successfully. Buy a developer a beer!
