                               Psi4 1.3.2 release

  ==> Input File <==

--------------------------------------------------------------------------
#psi4
#
memory 32 gb

molecule  {
0 1
  O       -2.2266400     1.8867650    -0.0032170
  O       -3.7615920     0.4694410    -0.8736430
  N       -2.7859400    -1.6499310     0.5252010
  N        1.9794570     0.3457110    -0.2591130
  N        3.8978530     1.3104060     0.6447910
  N        4.0160410    -0.8946960    -0.1223760
  C       -0.6937690    -0.3717720     0.7299070
  C       -0.1993830    -0.6671070    -0.6806480
  C       -2.2552805    -0.3244309     0.8695564
  C        1.3098450    -0.8661090    -0.7166530
  C       -2.8261080     0.6730930    -0.1173080
  C        3.2319800     0.2459460     0.0175660
  H       -0.2748670     0.5765650     1.0765220
  H       -0.3365530    -1.1529370     1.4152070
  H       -0.7054620    -1.5600450    -1.0625750
  H       -0.4516800     0.1714660    -1.3406670
  H       -2.4873830     0.0287790     1.8430020
  H        1.5813230    -1.7317920    -0.0895090
  H        1.6134840    -1.1144100    -1.7484380
  H       -3.7640510    -1.5477110     0.2601170
  H       -2.7467370    -2.2384130     1.3547150
  H       -2.6964570     2.4686380    -0.6361950
  H        3.2621090     2.1005400     0.7117460
  H        4.7565350     1.5848730     0.1747350
  H        5.0073770    -0.7866830     0.0488590
  H        3.7976690    -1.4866510    -0.9131750
units angstrom
no_reorient  #important for SAPT in psi4, default
symmetry c1  #important for SAPT in psi4, default
}

set PROPERTIES_ORIGIN ["COM"]
properties('MP2/aug-cc-pvtz', properties = ['dipole'])
--------------------------------------------------------------------------

    Molecular point group: c1
  Charge       = 0
  Multiplicity = 1
  Basis Set: AUG-CC-PVTZ
    Blend: AUG-CC-PVTZ
  Basis Set: (AUG-CC-PVTZ AUX)
    Blend: AUG-CC-PVTZ-JKFIT

    Orbital Energies [Eh]
    ---------------------

    Doubly Occupied:

       1A    -20.609693     2A    -20.546913     3A    -15.583329
       4A    -15.571475     5A    -15.540313     6A    -15.515094
       7A    -11.382104     8A    -11.341377     9A    -11.268324
      10A    -11.238514    11A    -11.213688    12A    -11.201741
      13A     -1.455263    14A     -1.352025    15A     -1.295055
      16A     -1.187241    17A     -1.167450    18A     -1.157624
      19A     -1.043605    20A     -0.973942    21A     -0.891633
      22A     -0.820745    23A     -0.785693    24A     -0.764708
      25A     -0.718924    26A     -0.703325    27A     -0.700787
      28A     -0.691494    29A     -0.656792    30A     -0.637852
      31A     -0.630907    32A     -0.617531    33A     -0.606275
      34A     -0.594108    35A     -0.568403    36A     -0.549886
      37A     -0.539273    38A     -0.520343    39A     -0.491486
      40A     -0.476828    41A     -0.469768    42A     -0.463837
      43A     -0.439892    44A     -0.437837    45A     -0.398767
      46A     -0.393699    47A     -0.346698

  @DF-RHF Final Energy:  -603.12360579412621

   => Energetics <=

    Nuclear Repulsion Energy =            725.1055036205730175
    One-Electron Energy =               -2263.3337032359095247
    Two-Electron Energy =                 935.1045938212103010
    Total Energy =                       -603.1236057941262061
  Basis Set: (AUG-CC-PVTZ AUX)
    Blend: AUG-CC-PVTZ-RI
    Molecular point group: c1

    Geometry (in Angstrom), charge = 0, multiplicity = 1:

       Center              X                  Y                   Z               Mass
    ------------   -----------------  -----------------  -----------------  -----------------
         O           -2.187345444750     1.859217044611     0.000527050431    15.994914619570
         O           -3.722297444750     0.441893044611    -0.869898949569    15.994914619570
         N           -2.746645444750    -1.677478955389     0.528945050431    14.003074004430
         N            2.018751555250     0.318163044611    -0.255368949569    14.003074004430
         N            3.937147555250     1.282858044611     0.648535050431    14.003074004430
         N            4.055335555250    -0.922243955389    -0.118631949569    14.003074004430
         C           -0.654474444750    -0.399319955389     0.733651050431    12.000000000000
         C           -0.160088444750    -0.694654955389    -0.676903949569    12.000000000000
         C           -2.215985944750    -0.351978855389     0.873300450431    12.000000000000
         C            1.349139555250    -0.893656955389    -0.712908949569    12.000000000000
         C           -2.786813444750     0.645545044611    -0.113563949569    12.000000000000
         C            3.271274555250     0.218398044611     0.021310050431    12.000000000000
         H           -0.235572444750     0.549017044611     1.080266050431     1.007825032230
         H           -0.297258444750    -1.180484955389     1.418951050431     1.007825032230
         H           -0.666167444750    -1.587592955389    -1.058830949569     1.007825032230
         H           -0.412385444750     0.143918044611    -1.336922949569     1.007825032230
         H           -2.448088444750     0.001231044611     1.846746050431     1.007825032230
         H            1.620617555250    -1.759339955389    -0.085764949569     1.007825032230
         H            1.652778555250    -1.141957955389    -1.744693949569     1.007825032230
         H           -3.724756444750    -1.575258955389     0.263861050431     1.007825032230
         H           -2.707442444750    -2.265960955389     1.358459050431     1.007825032230
         H           -2.657162444750     2.441090044611    -0.632450949569     1.007825032230
         H            3.301403555250     2.072992044611     0.715490050431     1.007825032230
         H            4.795829555250     1.557325044611     0.178479050431     1.007825032230
         H            5.046671555250    -0.814230955389     0.052603050431     1.007825032230
         H            3.836963555250    -1.514198955389    -0.909430949569     1.007825032230

  Basis Set: AUG-CC-PVTZ
    Blend: AUG-CC-PVTZ
  Basis Set: (AUG-CC-PVTZ AUX)
    Blend: AUG-CC-PVTZ-JKFIT
	 Reference Energy          =    -603.1236057941262061 [Eh]
	 Singles Energy            =      -0.0000000000000000 [Eh]
	 Same-Spin Energy          =      -0.6201469056350668 [Eh]
	 Opposite-Spin Energy      =      -1.9539374041676649 [Eh]
	 Correlation Energy        =      -2.5740843098027320 [Eh]
	 Total Energy              =    -605.6976901039289487 [Eh]

	 ================> DF-SCS-MP2 Energies <==================
	-----------------------------------------------------------
	 SCS Same-Spin Scale       =       0.3333333333333333 [-]
	 SCS Opposite-Spin Scale   =       1.2000000000000000 [-]
	 SCS Same-Spin Energy      =      -0.2067156352116889 [Eh]
	 SCS Opposite-Spin Energy  =      -2.3447248850011979 [Eh]
	 SCS Correlation Energy    =      -2.5514405202128869 [Eh]
	 SCS Total Energy          =    -605.6750463143390562 [Eh]
	-----------------------------------------------------------

  Dipole Moment: [D]
     X:     3.3708      Y:     0.2981      Z:     0.3783     Total:     3.4051

*** Psi4 exiting successfully. Buy a developer a beer!
