                               Psi4 1.3.2 release

  ==> Input File <==

--------------------------------------------------------------------------
#psi4
#
memory 32 gb

molecule  {
0 1
  O       -2.2266400     1.8867650    -0.0032170
  O       -3.7615920     0.4694410    -0.8736430
  N       -2.7859400    -1.6499310     0.5252010
  N        1.9794570     0.3457110    -0.2591130
  N        3.8978530     1.3104060     0.6447910
  N        4.0160410    -0.8946960    -0.1223760
  C       -0.6937690    -0.3717720     0.7299070
  C       -0.1993830    -0.6671070    -0.6806480
  C       -2.2227870    -0.3377670     0.8339710
  C        1.3098450    -0.8661090    -0.7166530
  C       -2.8261080     0.6730930    -0.1173080
  C        3.2319800     0.2459460     0.0175660
  H       -0.2748670     0.5765650     1.0765220
  H       -0.3365530    -1.1529370     1.4152070
  H       -0.7054620    -1.5600450    -1.0625750
  H       -0.4516800     0.1714660    -1.3406670
  H       -2.4873830     0.0287790     1.8430020
  H        1.5813230    -1.7317920    -0.0895090
  H        1.6134840    -1.1144100    -1.7484380
  H       -3.7640510    -1.5477110     0.2601170
  H       -2.7467370    -2.2384130     1.3547150
  H       -2.6964570     2.4686380    -0.6361950
  H        3.2621090     2.1005400     0.7117460
  H        4.7565350     1.5848730     0.1747350
  H        5.0073770    -0.7866830     0.0488590
  H        3.8457586    -1.4075473    -1.0312004
units angstrom
no_reorient  #important for SAPT in psi4, default
symmetry c1  #important for SAPT in psi4, default
}

set PROPERTIES_ORIGIN ["COM"]
properties('MP2/aug-cc-pvtz', properties = ['dipole'])
--------------------------------------------------------------------------

    Molecular point group: c1
  Charge       = 0
  Multiplicity = 1
  Basis Set: AUG-CC-PVTZ
    Blend: AUG-CC-PVTZ
  Basis Set: (AUG-CC-PVTZ AUX)
    Blend: AUG-CC-PVTZ-JKFIT

    Orbital Energies [Eh]
    ---------------------

    Doubly Occupied:

       1A    -20.609843     2A    -20.547018     3A    -15.587496
       4A    -15.571828     5A    -15.539395     6A    -15.517010
       7A    -11.382308     8A    -11.341167     9A    -11.270754
      10A    -11.238077    11A    -11.212404    12A    -11.201509
      13A     -1.455475    14A     -1.352211    15A     -1.294819
      16A     -1.189341    17A     -1.164857    18A     -1.157648
      19A     -1.046887    20A     -0.974095    21A     -0.892344
      22A     -0.820193    23A     -0.781366    24A     -0.763886
      25A     -0.712370    26A     -0.702819    27A     -0.700209
      28A     -0.689453    29A     -0.655531    30A     -0.638254
      31A     -0.631141    32A     -0.617639    33A     -0.603535
      34A     -0.591477    35A     -0.569026    36A     -0.549963
      37A     -0.540380    38A     -0.521013    39A     -0.491446
      40A     -0.477090    41A     -0.469760    42A     -0.467789
      43A     -0.440812    44A     -0.440107    45A     -0.398542
      46A     -0.391088    47A     -0.348238

  @DF-RHF Final Energy:  -603.12232259156201

   => Energetics <=

    Nuclear Repulsion Energy =            725.5155095144058350
    One-Electron Energy =               -2264.1564379516144072
    Two-Electron Energy =                 935.5186058456464480
    Total Energy =                       -603.1223225915620105
  Basis Set: (AUG-CC-PVTZ AUX)
    Blend: AUG-CC-PVTZ-RI
    Molecular point group: c1

    Geometry (in Angstrom), charge = 0, multiplicity = 1:

       Center              X                  Y                   Z               Mass
    ------------   -----------------  -----------------  -----------------  -----------------
         O           -2.189863299460     1.859678303230     0.003662818038    15.994914619570
         O           -3.724815299460     0.442354303230    -0.866763181962    15.994914619570
         N           -2.749163299460    -1.677017696770     0.532080818038    14.003074004430
         N            2.016233700540     0.318624303230    -0.252233181962    14.003074004430
         N            3.934629700540     1.283319303230     0.651670818038    14.003074004430
         N            4.052817700540    -0.921782696770    -0.115496181962    14.003074004430
         C           -0.656992299460    -0.398858696770     0.736786818038    12.000000000000
         C           -0.162606299460    -0.694193696770    -0.673768181962    12.000000000000
         C           -2.186010299460    -0.364853696770     0.840850818038    12.000000000000
         C            1.346621700540    -0.893195696770    -0.709773181962    12.000000000000
         C           -2.789331299460     0.646006303230    -0.110428181962    12.000000000000
         C            3.268756700540     0.218859303230     0.024445818038    12.000000000000
         H           -0.238090299460     0.549478303230     1.083401818038     1.007825032230
         H           -0.299776299460    -1.180023696770     1.422086818038     1.007825032230
         H           -0.668685299460    -1.587131696770    -1.055695181962     1.007825032230
         H           -0.414903299460     0.144379303230    -1.333787181962     1.007825032230
         H           -2.450606299460     0.001692303230     1.849881818038     1.007825032230
         H            1.618099700540    -1.758878696770    -0.082629181962     1.007825032230
         H            1.650260700540    -1.141496696770    -1.741558181962     1.007825032230
         H           -3.727274299460    -1.574797696770     0.266996818038     1.007825032230
         H           -2.709960299460    -2.265499696770     1.361594818038     1.007825032230
         H           -2.659680299460     2.441551303230    -0.629315181962     1.007825032230
         H            3.298885700540     2.073453303230     0.718625818038     1.007825032230
         H            4.793311700540     1.557786303230     0.181614818038     1.007825032230
         H            5.044153700540    -0.813769696770     0.055738818038     1.007825032230
         H            3.882535300540    -1.434633996770    -1.024320581962     1.007825032230

  Basis Set: AUG-CC-PVTZ
    Blend: AUG-CC-PVTZ
  Basis Set: (AUG-CC-PVTZ AUX)
    Blend: AUG-CC-PVTZ-JKFIT
	 Reference Energy          =    -603.1223225915620105 [Eh]
	 Singles Energy            =      -0.0000000000000000 [Eh]
	 Same-Spin Energy          =      -0.6205303814691537 [Eh]
	 Opposite-Spin Energy      =      -1.9547118625323505 [Eh]
	 Correlation Energy        =      -2.5752422440015041 [Eh]
	 Total Energy              =    -605.6975648355635258 [Eh]

	 ================> DF-SCS-MP2 Energies <==================
	-----------------------------------------------------------
	 SCS Same-Spin Scale       =       0.3333333333333333 [-]
	 SCS Opposite-Spin Scale   =       1.2000000000000000 [-]
	 SCS Same-Spin Energy      =      -0.2068434604897179 [Eh]
	 SCS Opposite-Spin Energy  =      -2.3456542350388205 [Eh]
	 SCS Correlation Energy    =      -2.5524976955285386 [Eh]
	 SCS Total Energy          =    -605.6748202870905970 [Eh]
	-----------------------------------------------------------

  Dipole Moment: [D]
     X:     3.4389      Y:     0.4273      Z:     0.2434     Total:     3.4739

*** Psi4 exiting successfully. Buy a developer a beer!
