                               Psi4 1.3.2 release

  ==> Input File <==

--------------------------------------------------------------------------
#psi4
#
memory 32 gb

molecule  {
0 1
  O       -2.2266400     1.8867650    -0.0032170
  O       -3.7615920     0.4694410    -0.8736430
  N       -2.7859400    -1.6499310     0.5252010
  N        1.9794570     0.3457110    -0.2591130
  N        3.8978530     1.3104060     0.6447910
  N        4.0160410    -0.8946960    -0.1223760
  C       -0.6937690    -0.3717720     0.7299070
  C       -0.1993830    -0.6671070    -0.6806480
  C       -2.2227870    -0.3377670     0.8339710
  C        1.3098450    -0.8661090    -0.7166530
  C       -2.8261080     0.6730930    -0.1173080
  C        3.2319800     0.2459460     0.0175660
  H       -0.2748670     0.5765650     1.0765220
  H       -0.3365530    -1.1529370     1.4152070
  H       -0.7054620    -1.5600450    -1.0625750
  H       -0.4516800     0.1714660    -1.3406670
  H       -2.4873830     0.0287790     1.8430020
  H        1.5813230    -1.7317920    -0.0895090
  H        1.6134840    -1.1144100    -1.7484380
  H       -3.7640510    -1.5477110     0.2601170
  H       -2.7467370    -2.2384130     1.3547150
  H       -2.6964570     2.4686380    -0.6361950
  H        3.2621090     2.1005400     0.7117460
  H        4.7565350     1.5848730     0.1747350
  H        5.0073770    -0.7866830     0.0488590
  H        3.7976690    -1.4866510    -0.9131750
units angstrom
no_reorient  #important for SAPT in psi4, default
symmetry c1  #important for SAPT in psi4, default
}

set PROPERTIES_ORIGIN ["COM"]
properties('MP2/aug-cc-pvtz', properties = ['dipole'])
--------------------------------------------------------------------------

    Molecular point group: c1
  Charge       = 0
  Multiplicity = 1
  Basis Set: AUG-CC-PVTZ
    Blend: AUG-CC-PVTZ
  Basis Set: (AUG-CC-PVTZ AUX)
    Blend: AUG-CC-PVTZ-JKFIT

    Orbital Energies [Eh]
    ---------------------

    Doubly Occupied:

       1A    -20.609820     2A    -20.547026     3A    -15.583510
       4A    -15.571666     5A    -15.539474     6A    -15.515335
       7A    -11.382318     8A    -11.341628     9A    -11.270793
      10A    -11.238468    11A    -11.212437    12A    -11.201713
      13A     -1.455464    14A     -1.352209    15A     -1.295260
      16A     -1.189408    17A     -1.167637    18A     -1.157834
      19A     -1.046941    20A     -0.974206    21A     -0.892592
      22A     -0.821571    23A     -0.784486    24A     -0.764904
      25A     -0.719186    26A     -0.702804    27A     -0.700505
      28A     -0.689740    29A     -0.655786    30A     -0.638126
      31A     -0.631790    32A     -0.617692    33A     -0.607338
      34A     -0.593297    35A     -0.569286    36A     -0.550840
      37A     -0.541134    38A     -0.521614    39A     -0.491534
      40A     -0.477169    41A     -0.469903    42A     -0.467707
      43A     -0.440261    44A     -0.438335    45A     -0.397955
      46A     -0.391029    47A     -0.346893

  @DF-RHF Final Energy:  -603.12606908527005

   => Energetics <=

    Nuclear Repulsion Energy =            725.7471781446573686
    One-Electron Energy =               -2264.5932442052603619
    Two-Electron Energy =                 935.7199969753328332
    Total Energy =                       -603.1260690852700463
  Basis Set: (AUG-CC-PVTZ AUX)
    Blend: AUG-CC-PVTZ-RI
    Molecular point group: c1

    Geometry (in Angstrom), charge = 0, multiplicity = 1:

       Center              X                  Y                   Z               Mass
    ------------   -----------------  -----------------  -----------------  -----------------
         O           -2.189584938445     1.860136185728     0.002979641840    15.994914619570
         O           -3.724536938445     0.442812185728    -0.867446358160    15.994914619570
         N           -2.748884938445    -1.676559814272     0.531397641840    14.003074004430
         N            2.016512061555     0.319082185728    -0.252916358160    14.003074004430
         N            3.934908061555     1.283777185728     0.650987641840    14.003074004430
         N            4.053096061555    -0.921324814272    -0.116179358160    14.003074004430
         C           -0.656713938445    -0.398400814272     0.736103641840    12.000000000000
         C           -0.162327938445    -0.693735814272    -0.674451358160    12.000000000000
         C           -2.185731938445    -0.364395814272     0.840167641840    12.000000000000
         C            1.346900061555    -0.892737814272    -0.710456358160    12.000000000000
         C           -2.789052938445     0.646464185728    -0.111111358160    12.000000000000
         C            3.269035061555     0.219317185728     0.023762641840    12.000000000000
         H           -0.237811938445     0.549936185728     1.082718641840     1.007825032230
         H           -0.299497938445    -1.179565814272     1.421403641840     1.007825032230
         H           -0.668406938445    -1.586673814272    -1.056378358160     1.007825032230
         H           -0.414624938445     0.144837185728    -1.334470358160     1.007825032230
         H           -2.450327938445     0.002150185728     1.849198641840     1.007825032230
         H            1.618378061555    -1.758420814272    -0.083312358160     1.007825032230
         H            1.650539061555    -1.141038814272    -1.742241358160     1.007825032230
         H           -3.726995938445    -1.574339814272     0.266313641840     1.007825032230
         H           -2.709681938445    -2.265041814272     1.360911641840     1.007825032230
         H           -2.659401938445     2.442009185728    -0.629998358160     1.007825032230
         H            3.299164061555     2.073911185728     0.717942641840     1.007825032230
         H            4.793590061555     1.558244185728     0.180931641840     1.007825032230
         H            5.044432061555    -0.813311814272     0.055055641840     1.007825032230
         H            3.834724061555    -1.513279814272    -0.906978358160     1.007825032230

  Basis Set: AUG-CC-PVTZ
    Blend: AUG-CC-PVTZ
  Basis Set: (AUG-CC-PVTZ AUX)
    Blend: AUG-CC-PVTZ-JKFIT
	 Reference Energy          =    -603.1260690852700463 [Eh]
	 Singles Energy            =      -0.0000000000000000 [Eh]
	 Same-Spin Energy          =      -0.6202744741139695 [Eh]
	 Opposite-Spin Energy      =      -1.9537984528461159 [Eh]
	 Correlation Energy        =      -2.5740729269600853 [Eh]
	 Total Energy              =    -605.7001420122301170 [Eh]

	 ================> DF-SCS-MP2 Energies <==================
	-----------------------------------------------------------
	 SCS Same-Spin Scale       =       0.3333333333333333 [-]
	 SCS Opposite-Spin Scale   =       1.2000000000000000 [-]
	 SCS Same-Spin Energy      =      -0.2067581580379898 [Eh]
	 SCS Opposite-Spin Energy  =      -2.3445581434153389 [Eh]
	 SCS Correlation Energy    =      -2.5513163014533289 [Eh]
	 SCS Total Energy          =    -605.6773853867233584 [Eh]
	-----------------------------------------------------------

  Dipole Moment: [D]
     X:     3.4164      Y:     0.2882      Z:     0.3432     Total:     3.4457

*** Psi4 exiting successfully. Buy a developer a beer!
