                               Psi4 1.3.2 release

  ==> Input File <==

--------------------------------------------------------------------------
#psi4
#
memory 32 gb

molecule  {
0 1
  O       -2.2266400     1.8867650    -0.0032170
  O       -3.7615920     0.4694410    -0.8736430
  N       -2.7859400    -1.6499310     0.5252010
  N        1.9794570     0.3457110    -0.2591130
  N        3.8978530     1.3104060     0.6447910
  N        4.0160410    -0.8946960    -0.1223760
  C       -0.6937690    -0.3717720     0.7299070
  C       -0.1993830    -0.6671070    -0.6806480
  C       -2.2227870    -0.3377670     0.8339710
  C        1.3098450    -0.8661090    -0.7166530
  C       -2.8261080     0.6730930    -0.1173080
  C        3.2319800     0.2459460     0.0175660
  H       -0.2748670     0.5765650     1.0765220
  H       -0.3365530    -1.1529370     1.4152070
  H       -0.7054620    -1.5600450    -1.0625750
  H       -0.4516800     0.1714660    -1.3406670
  H       -2.4873830     0.0287790     1.8430020
  H        1.5813230    -1.7317920    -0.0895090
  H        1.6134840    -1.1144100    -1.7484380
  H       -3.7640510    -1.5477110     0.2601170
  H       -2.7467370    -2.2384130     1.3547150
  H       -2.6964570     2.4686380    -0.6361950
  H        3.2621090     2.1005400     0.7117460
  H        4.7146612     1.6540256    -0.0081980
  H        5.0073770    -0.7866830     0.0488590
  H        3.7976690    -1.4866510    -0.9131750
units angstrom
no_reorient  #important for SAPT in psi4, default
symmetry c1  #important for SAPT in psi4, default
}

set PROPERTIES_ORIGIN ["COM"]
properties('MP2/aug-cc-pvtz', properties = ['dipole'])
--------------------------------------------------------------------------

    Molecular point group: c1
  Charge       = 0
  Multiplicity = 1
  Basis Set: AUG-CC-PVTZ
    Blend: AUG-CC-PVTZ
  Basis Set: (AUG-CC-PVTZ AUX)
    Blend: AUG-CC-PVTZ-JKFIT

    Orbital Energies [Eh]
    ---------------------

    Doubly Occupied:

       1A    -20.610307     2A    -20.547496     3A    -15.583310
       4A    -15.580017     5A    -15.539933     6A    -15.518003
       7A    -11.382796     8A    -11.341001     9A    -11.271329
      10A    -11.239367    11A    -11.213149    12A    -11.202540
      13A     -1.455947    14A     -1.352681    15A     -1.294560
      16A     -1.189890    17A     -1.164505    18A     -1.155936
      19A     -1.047292    20A     -0.974344    21A     -0.892395
      22A     -0.820306    23A     -0.784699    24A     -0.765386
      25A     -0.718992    26A     -0.702360    27A     -0.695664
      28A     -0.677402    29A     -0.656293    30A     -0.634369
      31A     -0.629746    32A     -0.618112    33A     -0.607870
      34A     -0.591251    35A     -0.569843    36A     -0.549566
      37A     -0.542537    38A     -0.519029    39A     -0.492285
      40A     -0.477746    41A     -0.470199    42A     -0.468760
      43A     -0.442135    44A     -0.440719    45A     -0.399071
      46A     -0.391733    47A     -0.349682

  @DF-RHF Final Energy:  -603.11774555699753

   => Energetics <=

    Nuclear Repulsion Energy =            725.4623947465805713
    One-Electron Energy =               -2264.0151739421016828
    Two-Electron Energy =                 935.4350336385234641
    Total Energy =                       -603.1177455569975336
  Basis Set: (AUG-CC-PVTZ AUX)
    Blend: AUG-CC-PVTZ-RI
    Molecular point group: c1

    Geometry (in Angstrom), charge = 0, multiplicity = 1:

       Center              X                  Y                   Z               Mass
    ------------   -----------------  -----------------  -----------------  -----------------
         O           -2.189342556861     1.859735904006     0.004038528074    15.994914619570
         O           -3.724294556861     0.442411904006    -0.866387471926    15.994914619570
         N           -2.748642556861    -1.676960095994     0.532456528074    14.003074004430
         N            2.016754443139     0.318681904006    -0.251857471926    14.003074004430
         N            3.935150443139     1.283376904006     0.652046528074    14.003074004430
         N            4.053338443139    -0.921725095994    -0.115120471926    14.003074004430
         C           -0.656471556861    -0.398801095994     0.737162528074    12.000000000000
         C           -0.162085556861    -0.694136095994    -0.673392471926    12.000000000000
         C           -2.185489556861    -0.364796095994     0.841226528074    12.000000000000
         C            1.347142443139    -0.893138095994    -0.709397471926    12.000000000000
         C           -2.788810556861     0.646063904006    -0.110052471926    12.000000000000
         C            3.269277443139     0.218916904006     0.024821528074    12.000000000000
         H           -0.237569556861     0.549535904006     1.083777528074     1.007825032230
         H           -0.299255556861    -1.179966095994     1.422462528074     1.007825032230
         H           -0.668164556861    -1.587074095994    -1.055319471926     1.007825032230
         H           -0.414382556861     0.144436904006    -1.333411471926     1.007825032230
         H           -2.450085556861     0.001749904006     1.850257528074     1.007825032230
         H            1.618620443139    -1.758821095994    -0.082253471926     1.007825032230
         H            1.650781443139    -1.141439095994    -1.741182471926     1.007825032230
         H           -3.726753556861    -1.574740095994     0.267372528074     1.007825032230
         H           -2.709439556861    -2.265442095994     1.361970528074     1.007825032230
         H           -2.659159556861     2.441608904006    -0.628939471926     1.007825032230
         H            3.299406443139     2.073510904006     0.719001528074     1.007825032230
         H            4.751958643139     1.626996504006    -0.000942471926     1.007825032230
         H            5.044674443139    -0.813712095994     0.056114528074     1.007825032230
         H            3.834966443139    -1.513680095994    -0.905919471926     1.007825032230

  Basis Set: AUG-CC-PVTZ
    Blend: AUG-CC-PVTZ
  Basis Set: (AUG-CC-PVTZ AUX)
    Blend: AUG-CC-PVTZ-JKFIT
	 Reference Energy          =    -603.1177455569975336 [Eh]
	 Singles Energy            =      -0.0000000000000000 [Eh]
	 Same-Spin Energy          =      -0.6207061115914649 [Eh]
	 Opposite-Spin Energy      =      -1.9555365307733656 [Eh]
	 Correlation Energy        =      -2.5762426423648304 [Eh]
	 Total Energy              =    -605.6939881993623658 [Eh]

	 ================> DF-SCS-MP2 Energies <==================
	-----------------------------------------------------------
	 SCS Same-Spin Scale       =       0.3333333333333333 [-]
	 SCS Opposite-Spin Scale   =       1.2000000000000000 [-]
	 SCS Same-Spin Energy      =      -0.2069020371971550 [Eh]
	 SCS Opposite-Spin Energy  =      -2.3466438369280387 [Eh]
	 SCS Correlation Energy    =      -2.5535458741251937 [Eh]
	 SCS Total Energy          =    -605.6712914311227678 [Eh]
	-----------------------------------------------------------

  Dipole Moment: [D]
     X:     3.1831      Y:     0.2680      Z:     0.1513     Total:     3.1979

*** Psi4 exiting successfully. Buy a developer a beer!
