                               Psi4 1.3.2 release

  ==> Input File <==

--------------------------------------------------------------------------
#psi4
#
memory 32 gb

molecule  {
0 1
  O       -2.2266400     1.8867650    -0.0032170
  O       -3.7615920     0.4694410    -0.8736430
  N       -2.7859400    -1.6499310     0.5252010
  N        1.9794570     0.3457110    -0.2591130
  N        3.8978530     1.3104060     0.6447910
  N        4.0160410    -0.8946960    -0.1223760
  C       -0.6937690    -0.3717720     0.7299070
  C       -0.1993830    -0.6671070    -0.6806480
  C       -2.2227870    -0.3377670     0.8339710
  C        1.3098450    -0.8661090    -0.7166530
  C       -2.8261080     0.6730930    -0.1173080
  C        3.2319800     0.2459460     0.0175660
  H       -0.2748670     0.5765650     1.0765220
  H       -0.3365530    -1.1529370     1.4152070
  H       -0.7054620    -1.5600450    -1.0625750
  H       -0.4516800     0.1714660    -1.3406670
  H       -2.4873830     0.0287790     1.8430020
  H        1.5813230    -1.7317920    -0.0895090
  H        1.6134840    -1.1144100    -1.7484380
  H       -3.7640510    -1.5477110     0.2601170
  H       -2.7467370    -2.2384130     1.3547150
  H       -2.6964570     2.4686380    -0.6361950
  H        3.2621090     2.1005400     0.7117460
  H        4.7355981     1.6194493     0.0832685
  H        5.0073770    -0.7866830     0.0488590
  H        3.7976690    -1.4866510    -0.9131750
units angstrom
no_reorient  #important for SAPT in psi4, default
symmetry c1  #important for SAPT in psi4, default
}

set PROPERTIES_ORIGIN ["COM"]
properties('MP2/aug-cc-pvtz', properties = ['dipole'])
--------------------------------------------------------------------------

    Molecular point group: c1
  Charge       = 0
  Multiplicity = 1
  Basis Set: AUG-CC-PVTZ
    Blend: AUG-CC-PVTZ
  Basis Set: (AUG-CC-PVTZ AUX)
    Blend: AUG-CC-PVTZ-JKFIT

    Orbital Energies [Eh]
    ---------------------

    Doubly Occupied:

       1A    -20.610063     2A    -20.547261     3A    -15.583438
       4A    -15.575472     5A    -15.539703     6A    -15.516715
       7A    -11.382557     8A    -11.341236     9A    -11.271061
      10A    -11.238914    11A    -11.212794    12A    -11.202129
      13A     -1.455705    14A     -1.352445    15A     -1.294942
      16A     -1.189648    17A     -1.165896    18A     -1.157225
      19A     -1.047125    20A     -0.974278    21A     -0.892482
      22A     -0.820896    23A     -0.784595    24A     -0.765132
      25A     -0.719079    26A     -0.702211    27A     -0.696856
      28A     -0.684692    29A     -0.656042    30A     -0.636218
      31A     -0.631579    32A     -0.617909    33A     -0.607628
      34A     -0.592477    35A     -0.569567    36A     -0.550216
      37A     -0.541875    38A     -0.520419    39A     -0.491950
      40A     -0.477456    41A     -0.470013    42A     -0.468305
      43A     -0.440631    44A     -0.440154    45A     -0.398501
      46A     -0.391381    47A     -0.348390

  @DF-RHF Final Energy:  -603.12340105452904

   => Energetics <=

    Nuclear Repulsion Energy =            725.6169440446146837
    One-Electron Energy =               -2264.3301671209892447
    Two-Electron Energy =                 935.5898220218455208
    Total Energy =                       -603.1234010545290403
  Basis Set: (AUG-CC-PVTZ AUX)
    Blend: AUG-CC-PVTZ-RI
    Molecular point group: c1

    Geometry (in Angstrom), charge = 0, multiplicity = 1:

       Center              X                  Y                   Z               Mass
    ------------   -----------------  -----------------  -----------------  -----------------
         O           -2.189463747653     1.859936044867     0.003509084957    15.994914619570
         O           -3.724415747653     0.442612044867    -0.866916915043    15.994914619570
         N           -2.748763747653    -1.676759955133     0.531927084957    14.003074004430
         N            2.016633252347     0.318882044867    -0.252386915043    14.003074004430
         N            3.935029252347     1.283577044867     0.651517084957    14.003074004430
         N            4.053217252347    -0.921524955133    -0.115649915043    14.003074004430
         C           -0.656592747653    -0.398600955133     0.736633084957    12.000000000000
         C           -0.162206747653    -0.693935955133    -0.673921915043    12.000000000000
         C           -2.185610747653    -0.364595955133     0.840697084957    12.000000000000
         C            1.347021252347    -0.892937955133    -0.709926915043    12.000000000000
         C           -2.788931747653     0.646264044867    -0.110581915043    12.000000000000
         C            3.269156252347     0.219117044867     0.024292084957    12.000000000000
         H           -0.237690747653     0.549736044867     1.083248084957     1.007825032230
         H           -0.299376747653    -1.179765955133     1.421933084957     1.007825032230
         H           -0.668285747653    -1.586873955133    -1.055848915043     1.007825032230
         H           -0.414503747653     0.144637044867    -1.333940915043     1.007825032230
         H           -2.450206747653     0.001950044867     1.849728084957     1.007825032230
         H            1.618499252347    -1.758620955133    -0.082782915043     1.007825032230
         H            1.650660252347    -1.141238955133    -1.741711915043     1.007825032230
         H           -3.726874747653    -1.574539955133     0.266843084957     1.007825032230
         H           -2.709560747653    -2.265241955133     1.361441084957     1.007825032230
         H           -2.659280747653     2.441809044867    -0.629468915043     1.007825032230
         H            3.299285252347     2.073711044867     0.718472084957     1.007825032230
         H            4.772774352347     1.592620344867     0.089994584957     1.007825032230
         H            5.044553252347    -0.813511955133     0.055585084957     1.007825032230
         H            3.834845252347    -1.513479955133    -0.906448915043     1.007825032230

  Basis Set: AUG-CC-PVTZ
    Blend: AUG-CC-PVTZ
  Basis Set: (AUG-CC-PVTZ AUX)
    Blend: AUG-CC-PVTZ-JKFIT
	 Reference Energy          =    -603.1234010545290403 [Eh]
	 Singles Energy            =      -0.0000000000000000 [Eh]
	 Same-Spin Energy          =      -0.6204660819894933 [Eh]
	 Opposite-Spin Energy      =      -1.9545707020787122 [Eh]
	 Correlation Energy        =      -2.5750367840682054 [Eh]
	 Total Energy              =    -605.6984378385972150 [Eh]

	 ================> DF-SCS-MP2 Energies <==================
	-----------------------------------------------------------
	 SCS Same-Spin Scale       =       0.3333333333333333 [-]
	 SCS Opposite-Spin Scale   =       1.2000000000000000 [-]
	 SCS Same-Spin Energy      =      -0.2068220273298311 [Eh]
	 SCS Opposite-Spin Energy  =      -2.3454848424944545 [Eh]
	 SCS Correlation Energy    =      -2.5523068698242857 [Eh]
	 SCS Total Energy          =    -605.6757079243533326 [Eh]
	-----------------------------------------------------------

  Dipole Moment: [D]
     X:     3.3012      Y:     0.2803      Z:     0.2398     Total:     3.3218

*** Psi4 exiting successfully. Buy a developer a beer!
