                               Psi4 1.3.2 release

  ==> Input File <==

--------------------------------------------------------------------------
#psi4
#
memory 32 gb

molecule  {
0 1
  O       -2.2266400     1.8867650    -0.0032170
  O       -3.7615920     0.4694410    -0.8736430
  N       -2.7859400    -1.6499310     0.5252010
  N        1.9794570     0.3457110    -0.2591130
  N        3.8978530     1.3104060     0.6447910
  N        4.0160410    -0.8946960    -0.1223760
  C       -0.6937690    -0.3717720     0.7299070
  C       -0.1993830    -0.6671070    -0.6806480
  C       -2.3852545    -0.2710867     1.0118981
  C        1.3098450    -0.8661090    -0.7166530
  C       -2.8261080     0.6730930    -0.1173080
  C        3.2319800     0.2459460     0.0175660
  H       -0.2748670     0.5765650     1.0765220
  H       -0.3365530    -1.1529370     1.4152070
  H       -0.7054620    -1.5600450    -1.0625750
  H       -0.4516800     0.1714660    -1.3406670
  H       -2.4873830     0.0287790     1.8430020
  H        1.5813230    -1.7317920    -0.0895090
  H        1.6134840    -1.1144100    -1.7484380
  H       -3.7640510    -1.5477110     0.2601170
  H       -2.7467370    -2.2384130     1.3547150
  H       -2.6964570     2.4686380    -0.6361950
  H        3.2621090     2.1005400     0.7117460
  H        4.7565350     1.5848730     0.1747350
  H        5.0073770    -0.7866830     0.0488590
  H        3.7976690    -1.4866510    -0.9131750
units angstrom
no_reorient  #important for SAPT in psi4, default
symmetry c1  #important for SAPT in psi4, default
}

set PROPERTIES_ORIGIN ["COM"]
properties('MP2/aug-cc-pvtz', properties = ['dipole'])
--------------------------------------------------------------------------

    Molecular point group: c1
  Charge       = 0
  Multiplicity = 1
  Basis Set: AUG-CC-PVTZ
    Blend: AUG-CC-PVTZ
  Basis Set: (AUG-CC-PVTZ AUX)
    Blend: AUG-CC-PVTZ-JKFIT

    Orbital Energies [Eh]
    ---------------------

    Doubly Occupied:

       1A    -20.608395     2A    -20.545912     3A    -15.583051
       4A    -15.571098     5A    -15.546373     6A    -15.514688
       7A    -11.384128     8A    -11.340926     9A    -11.262636
      10A    -11.239461    11A    -11.219922    12A    -11.203054
      13A     -1.453708    14A     -1.350790    15A     -1.294716
      16A     -1.176832    17A     -1.167121    18A     -1.157326
      19A     -1.035130    20A     -0.976146    21A     -0.889104
      22A     -0.822838    23A     -0.795962    24A     -0.765873
      25A     -0.718771    26A     -0.717060    27A     -0.698855
      28A     -0.695683    29A     -0.651574    30A     -0.636999
      31A     -0.629216    32A     -0.616845    33A     -0.605711
      34A     -0.597939    35A     -0.563522    36A     -0.544161
      37A     -0.532567    38A     -0.517254    39A     -0.489470
      40A     -0.475776    41A     -0.469323    42A     -0.452116
      43A     -0.439636    44A     -0.434645    45A     -0.395953
      46A     -0.391569    47A     -0.346374

  @DF-RHF Final Energy:  -603.05303412300952

   => Energetics <=

    Nuclear Repulsion Energy =            722.3883470913949623
    One-Electron Energy =               -2257.8303404366592986
    Two-Electron Energy =                 932.3889592222548117
    Total Energy =                       -603.0530341230095246
  Basis Set: (AUG-CC-PVTZ AUX)
    Blend: AUG-CC-PVTZ-RI
    Molecular point group: c1

    Geometry (in Angstrom), charge = 0, multiplicity = 1:

       Center              X                  Y                   Z               Mass
    ------------   -----------------  -----------------  -----------------  -----------------
         O           -2.178387469970     1.855540493930    -0.009283322096    15.994914619570
         O           -3.713339469970     0.438216493930    -0.879709322096    15.994914619570
         N           -2.737687469970    -1.681155506070     0.519134677904    14.003074004430
         N            2.027709530030     0.314486493930    -0.265179322096    14.003074004430
         N            3.946105530030     1.279181493930     0.638724677904    14.003074004430
         N            4.064293530030    -0.925920506070    -0.128442322096    14.003074004430
         C           -0.645516469970    -0.402996506070     0.723840677904    12.000000000000
         C           -0.151130469970    -0.698331506070    -0.686714322096    12.000000000000
         C           -2.337001969970    -0.302311206070     1.005831777904    12.000000000000
         C            1.358097530030    -0.897333506070    -0.722719322096    12.000000000000
         C           -2.777855469970     0.641868493930    -0.123374322096    12.000000000000
         C            3.280232530030     0.214721493930     0.011499677904    12.000000000000
         H           -0.226614469970     0.545340493930     1.070455677904     1.007825032230
         H           -0.288300469970    -1.184161506070     1.409140677904     1.007825032230
         H           -0.657209469970    -1.591269506070    -1.068641322096     1.007825032230
         H           -0.403427469970     0.140241493930    -1.346733322096     1.007825032230
         H           -2.439130469970    -0.002445506070     1.836935677904     1.007825032230
         H            1.629575530030    -1.763016506070    -0.095575322096     1.007825032230
         H            1.661736530030    -1.145634506070    -1.754504322096     1.007825032230
         H           -3.715798469970    -1.578935506070     0.254050677904     1.007825032230
         H           -2.698484469970    -2.269637506070     1.348648677904     1.007825032230
         H           -2.648204469970     2.437413493930    -0.642261322096     1.007825032230
         H            3.310361530030     2.069315493930     0.705679677904     1.007825032230
         H            4.804787530030     1.553648493930     0.168668677904     1.007825032230
         H            5.055629530030    -0.817907506070     0.042792677904     1.007825032230
         H            3.845921530030    -1.517875506070    -0.919241322096     1.007825032230

  Basis Set: AUG-CC-PVTZ
    Blend: AUG-CC-PVTZ
  Basis Set: (AUG-CC-PVTZ AUX)
    Blend: AUG-CC-PVTZ-JKFIT
	 Reference Energy          =    -603.0530341230095246 [Eh]
	 Singles Energy            =      -0.0000000000000000 [Eh]
	 Same-Spin Energy          =      -0.6210076658762560 [Eh]
	 Opposite-Spin Energy      =      -1.9580253941402561 [Eh]
	 Correlation Energy        =      -2.5790330600165121 [Eh]
	 Total Energy              =    -605.6320671830260380 [Eh]

	 ================> DF-SCS-MP2 Energies <==================
	-----------------------------------------------------------
	 SCS Same-Spin Scale       =       0.3333333333333333 [-]
	 SCS Opposite-Spin Scale   =       1.2000000000000000 [-]
	 SCS Same-Spin Energy      =      -0.2070025552920853 [Eh]
	 SCS Opposite-Spin Energy  =      -2.3496304729683071 [Eh]
	 SCS Correlation Energy    =      -2.5566330282603924 [Eh]
	 SCS Total Energy          =    -605.6096671512699459 [Eh]
	-----------------------------------------------------------

  Dipole Moment: [D]
     X:     3.2883      Y:     0.2697      Z:     0.4373     Total:     3.3282

*** Psi4 exiting successfully. Buy a developer a beer!
