                               Psi4 1.3.2 release

  ==> Input File <==

--------------------------------------------------------------------------
#psi4
#
memory 32 gb

molecule  {
0 1
  O       -2.2266400     1.8867650    -0.0032170
  O       -3.7615920     0.4694410    -0.8736430
  N       -2.7859400    -1.6499310     0.5252010
  N        1.9794570     0.3457110    -0.2591130
  N        3.8978530     1.3104060     0.6447910
  N        4.0160410    -0.8946960    -0.1223760
  C       -0.6937690    -0.3717720     0.7299070
  C       -0.1993830    -0.6671070    -0.6806480
  C       -2.2227870    -0.3377670     0.8339710
  C        1.3098450    -0.8661090    -0.7166530
  C       -2.8261080     0.6730930    -0.1173080
  C        3.2319800     0.2459460     0.0175660
  H       -0.2748670     0.5765650     1.0765220
  H       -0.3365530    -1.1529370     1.4152070
  H       -0.7054620    -1.5600450    -1.0625750
  H       -0.4516800     0.1714660    -1.3406670
  H       -2.4873830     0.0287790     1.8430020
  H        1.5813230    -1.7317920    -0.0895090
  H        1.6134840    -1.1144100    -1.7484380
  H       -3.7640510    -1.5477110     0.2601170
  H       -2.7467370    -2.2384130     1.3547150
  H       -2.6964570     2.4686380    -0.6361950
  H        3.2621090     2.1005400     0.7117460
  H        4.7565350     1.5848730     0.1747350
  H        5.0073770    -0.7866830     0.0488590
  H        3.8297287    -1.4339152    -0.9918586
units angstrom
no_reorient  #important for SAPT in psi4, default
symmetry c1  #important for SAPT in psi4, default
}

set PROPERTIES_ORIGIN ["COM"]
properties('MP2/aug-cc-pvtz', properties = ['dipole'])
--------------------------------------------------------------------------

    Molecular point group: c1
  Charge       = 0
  Multiplicity = 1
  Basis Set: AUG-CC-PVTZ
    Blend: AUG-CC-PVTZ
  Basis Set: (AUG-CC-PVTZ AUX)
    Blend: AUG-CC-PVTZ-JKFIT

    Orbital Energies [Eh]
    ---------------------

    Doubly Occupied:

       1A    -20.609835     2A    -20.547020     3A    -15.585989
       4A    -15.571770     5A    -15.539420     6A    -15.516449
       7A    -11.382311     8A    -11.341315     9A    -11.270766
      10A    -11.238211    11A    -11.212415    12A    -11.201579
      13A     -1.455471    14A     -1.352210    15A     -1.295011
      16A     -1.189362    17A     -1.165844    18A     -1.157810
      19A     -1.046907    20A     -0.974134    21A     -0.892428
      22A     -0.820635    23A     -0.782401    24A     -0.764268
      25A     -0.714753    26A     -0.702814    27A     -0.700342
      28A     -0.689560    29A     -0.655619    30A     -0.638250
      31A     -0.631452    32A     -0.617656    33A     -0.604836
      34A     -0.592286    35A     -0.569125    36A     -0.550288
      37A     -0.540671    38A     -0.521250    39A     -0.491478
      40A     -0.477115    41A     -0.469807    42A     -0.467762
      43A     -0.440344    44A     -0.439809    45A     -0.398340
      46A     -0.391071    47A     -0.347792

  @DF-RHF Final Energy:  -603.12411211482959

   => Energetics <=

    Nuclear Repulsion Energy =            725.6012925855134199
    One-Electron Energy =               -2264.3188384535756086
    Two-Electron Energy =                 935.5934337532326026
    Total Energy =                       -603.1241121148295861
  Basis Set: (AUG-CC-PVTZ AUX)
    Blend: AUG-CC-PVTZ-RI
    Molecular point group: c1

    Geometry (in Angstrom), charge = 0, multiplicity = 1:

       Center              X                  Y                   Z               Mass
    ------------   -----------------  -----------------  -----------------  -----------------
         O           -2.189770512262     1.859830930729     0.003435092638    15.994914619570
         O           -3.724722512262     0.442506930729    -0.866990907362    15.994914619570
         N           -2.749070512262    -1.676865069271     0.531853092638    14.003074004430
         N            2.016326487738     0.318776930729    -0.252460907362    14.003074004430
         N            3.934722487738     1.283471930729     0.651443092638    14.003074004430
         N            4.052910487738    -0.921630069271    -0.115723907362    14.003074004430
         C           -0.656899512262    -0.398706069271     0.736559092638    12.000000000000
         C           -0.162513512262    -0.694041069271    -0.673995907362    12.000000000000
         C           -2.185917512262    -0.364701069271     0.840623092638    12.000000000000
         C            1.346714487738    -0.893043069271    -0.710000907362    12.000000000000
         C           -2.789238512262     0.646158930729    -0.110655907362    12.000000000000
         C            3.268849487738     0.219011930729     0.024218092638    12.000000000000
         H           -0.237997512262     0.549630930729     1.083174092638     1.007825032230
         H           -0.299683512262    -1.179871069271     1.421859092638     1.007825032230
         H           -0.668592512262    -1.586979069271    -1.055922907362     1.007825032230
         H           -0.414810512262     0.144531930729    -1.334014907362     1.007825032230
         H           -2.450513512262     0.001844930729     1.849654092638     1.007825032230
         H            1.618192487738    -1.758726069271    -0.082856907362     1.007825032230
         H            1.650353487738    -1.141344069271    -1.741785907362     1.007825032230
         H           -3.727181512262    -1.574645069271     0.266769092638     1.007825032230
         H           -2.709867512262    -2.265347069271     1.361367092638     1.007825032230
         H           -2.659587512262     2.441703930729    -0.629542907362     1.007825032230
         H            3.298978487738     2.073605930729     0.718398092638     1.007825032230
         H            4.793404487738     1.557938930729     0.181387092638     1.007825032230
         H            5.044246487738    -0.813617069271     0.055511092638     1.007825032230
         H            3.866598187738    -1.460849269271    -0.985206507362     1.007825032230

  Basis Set: AUG-CC-PVTZ
    Blend: AUG-CC-PVTZ
  Basis Set: (AUG-CC-PVTZ AUX)
    Blend: AUG-CC-PVTZ-JKFIT
	 Reference Energy          =    -603.1241121148295861 [Eh]
	 Singles Energy            =      -0.0000000000000000 [Eh]
	 Same-Spin Energy          =      -0.6204297432861103 [Eh]
	 Opposite-Spin Energy      =      -1.9543586115837215 [Eh]
	 Correlation Energy        =      -2.5747883548698320 [Eh]
	 Total Energy              =    -605.6989004696994243 [Eh]

	 ================> DF-SCS-MP2 Energies <==================
	-----------------------------------------------------------
	 SCS Same-Spin Scale       =       0.3333333333333333 [-]
	 SCS Opposite-Spin Scale   =       1.2000000000000000 [-]
	 SCS Same-Spin Energy      =      -0.2068099144287034 [Eh]
	 SCS Opposite-Spin Energy  =      -2.3452303339004659 [Eh]
	 SCS Correlation Energy    =      -2.5520402483291695 [Eh]
	 SCS Total Energy          =    -605.6761523631587352 [Eh]
	-----------------------------------------------------------

  Dipole Moment: [D]
     X:     3.4322      Y:     0.3806      Z:     0.2738     Total:     3.4640

*** Psi4 exiting successfully. Buy a developer a beer!
