                               Psi4 1.3.2 release

  ==> Input File <==

--------------------------------------------------------------------------
#psi4
#
memory 32 gb

molecule  {
0 1
  O       -2.2266400     1.8867650    -0.0032170
  O       -3.7615920     0.4694410    -0.8736430
  N       -2.7859400    -1.6499310     0.5252010
  N        1.9794570     0.3457110    -0.2591130
  N        3.8978530     1.3104060     0.6447910
  N        4.0291242    -0.8782150    -0.1677324
  C       -0.6937690    -0.3717720     0.7299070
  C       -0.1993830    -0.6671070    -0.6806480
  C       -2.2227870    -0.3377670     0.8339710
  C        1.3098450    -0.8661090    -0.7166530
  C       -2.8261080     0.6730930    -0.1173080
  C        3.2319800     0.2459460     0.0175660
  H       -0.2748670     0.5765650     1.0765220
  H       -0.3365530    -1.1529370     1.4152070
  H       -0.7054620    -1.5600450    -1.0625750
  H       -0.4516800     0.1714660    -1.3406670
  H       -2.4873830     0.0287790     1.8430020
  H        1.5813230    -1.7317920    -0.0895090
  H        1.6134840    -1.1144100    -1.7484380
  H       -3.7640510    -1.5477110     0.2601170
  H       -2.7467370    -2.2384130     1.3547150
  H       -2.6964570     2.4686380    -0.6361950
  H        3.2621090     2.1005400     0.7117460
  H        4.7565350     1.5848730     0.1747350
  H        5.0073770    -0.7866830     0.0488590
  H        3.7976690    -1.4866510    -0.9131750
units angstrom
no_reorient  #important for SAPT in psi4, default
symmetry c1  #important for SAPT in psi4, default
}

set PROPERTIES_ORIGIN ["COM"]
properties('MP2/aug-cc-pvtz', properties = ['dipole'])
--------------------------------------------------------------------------

    Molecular point group: c1
  Charge       = 0
  Multiplicity = 1
  Basis Set: AUG-CC-PVTZ
    Blend: AUG-CC-PVTZ
  Basis Set: (AUG-CC-PVTZ AUX)
    Blend: AUG-CC-PVTZ-JKFIT

    Orbital Energies [Eh]
    ---------------------

    Doubly Occupied:

       1A    -20.609725     2A    -20.546943     3A    -15.580802
       4A    -15.571563     5A    -15.539416     6A    -15.514062
       7A    -11.382234     8A    -11.342172     9A    -11.270698
      10A    -11.238341    11A    -11.212287    12A    -11.201565
      13A     -1.455373    14A     -1.352122    15A     -1.295523
      16A     -1.189338    17A     -1.169303    18A     -1.157802
      19A     -1.046804    20A     -0.974089    21A     -0.892513
      22A     -0.822337    23A     -0.786709    24A     -0.765372
      25A     -0.724600    26A     -0.703123    27A     -0.700663
      28A     -0.689825    29A     -0.655937    30A     -0.637288
      31A     -0.632840    32A     -0.617660    33A     -0.609567
      34A     -0.593628    35A     -0.569448    36A     -0.551503
      37A     -0.541212    38A     -0.521615    39A     -0.491278
      40A     -0.477030    41A     -0.469809    42A     -0.467404
      43A     -0.440144    44A     -0.436103    45A     -0.397656
      46A     -0.390862    47A     -0.345818

  @DF-RHF Final Energy:  -603.12676393159666

   => Energetics <=

    Nuclear Repulsion Energy =            725.7741777110255725
    One-Electron Energy =               -2264.6376773981896804
    Two-Electron Energy =                 935.7367357555675653
    Total Energy =                       -603.1267639315966562
  Basis Set: (AUG-CC-PVTZ AUX)
    Blend: AUG-CC-PVTZ-RI
    Molecular point group: c1

    Geometry (in Angstrom), charge = 0, multiplicity = 1:

       Center              X                  Y                   Z               Mass
    ------------   -----------------  -----------------  -----------------  -----------------
         O           -2.190637165512     1.858810687816     0.006627467428    15.994914619570
         O           -3.725589165512     0.441486687816    -0.863798532572    15.994914619570
         N           -2.749937165512    -1.677885312184     0.535045467428    14.003074004430
         N            2.015459834488     0.317756687816    -0.249268532572    14.003074004430
         N            3.933855834488     1.282451687816     0.654635467428    14.003074004430
         N            4.065127034488    -0.906169312184    -0.157887932572    14.003074004430
         C           -0.657766165512    -0.399726312184     0.739751467428    12.000000000000
         C           -0.163380165512    -0.695061312184    -0.670803532572    12.000000000000
         C           -2.186784165512    -0.365721312184     0.843815467428    12.000000000000
         C            1.345847834488    -0.894063312184    -0.706808532572    12.000000000000
         C           -2.790105165512     0.645138687816    -0.107463532572    12.000000000000
         C            3.267982834488     0.217991687816     0.027410467428    12.000000000000
         H           -0.238864165512     0.548610687816     1.086366467428     1.007825032230
         H           -0.300550165512    -1.180891312184     1.425051467428     1.007825032230
         H           -0.669459165512    -1.587999312184    -1.052730532572     1.007825032230
         H           -0.415677165512     0.143511687816    -1.330822532572     1.007825032230
         H           -2.451380165512     0.000824687816     1.852846467428     1.007825032230
         H            1.617325834488    -1.759746312184    -0.079664532572     1.007825032230
         H            1.649486834488    -1.142364312184    -1.738593532572     1.007825032230
         H           -3.728048165512    -1.575665312184     0.269961467428     1.007825032230
         H           -2.710734165512    -2.266367312184     1.364559467428     1.007825032230
         H           -2.660454165512     2.440683687816    -0.626350532572     1.007825032230
         H            3.298111834488     2.072585687816     0.721590467428     1.007825032230
         H            4.792537834488     1.556918687816     0.184579467428     1.007825032230
         H            5.043379834488    -0.814637312184     0.058703467428     1.007825032230
         H            3.833671834488    -1.514605312184    -0.903330532572     1.007825032230

  Basis Set: AUG-CC-PVTZ
    Blend: AUG-CC-PVTZ
  Basis Set: (AUG-CC-PVTZ AUX)
    Blend: AUG-CC-PVTZ-JKFIT
	 Reference Energy          =    -603.1267639315966562 [Eh]
	 Singles Energy            =      -0.0000000000000000 [Eh]
	 Same-Spin Energy          =      -0.6201072512483778 [Eh]
	 Opposite-Spin Energy      =      -1.9531941322786022 [Eh]
	 Correlation Energy        =      -2.5733013835269798 [Eh]
	 Total Energy              =    -605.7000653151236520 [Eh]

	 ================> DF-SCS-MP2 Energies <==================
	-----------------------------------------------------------
	 SCS Same-Spin Scale       =       0.3333333333333333 [-]
	 SCS Opposite-Spin Scale   =       1.2000000000000000 [-]
	 SCS Same-Spin Energy      =      -0.2067024170827926 [Eh]
	 SCS Opposite-Spin Energy  =      -2.3438329587343225 [Eh]
	 SCS Correlation Energy    =      -2.5505353758171152 [Eh]
	 SCS Total Energy          =    -605.6772993074138185 [Eh]
	-----------------------------------------------------------

  Dipole Moment: [D]
     X:     3.4263      Y:     0.2232      Z:     0.4293     Total:     3.4603

*** Psi4 exiting successfully. Buy a developer a beer!
