                               Psi4 1.3.2 release

  ==> Input File <==

--------------------------------------------------------------------------
#psi4
#
memory 32 gb

molecule  {
0 1
  O       -2.2266400     1.8867650    -0.0032170
  O       -3.7615920     0.4694410    -0.8736430
  N       -2.7859400    -1.6499310     0.5252010
  N        1.9794570     0.3457110    -0.2591130
  N        3.8978530     1.3104060     0.6447910
  N        4.0422074    -0.8617340    -0.2130889
  C       -0.6937690    -0.3717720     0.7299070
  C       -0.1993830    -0.6671070    -0.6806480
  C       -2.2227870    -0.3377670     0.8339710
  C        1.3098450    -0.8661090    -0.7166530
  C       -2.8261080     0.6730930    -0.1173080
  C        3.2319800     0.2459460     0.0175660
  H       -0.2748670     0.5765650     1.0765220
  H       -0.3365530    -1.1529370     1.4152070
  H       -0.7054620    -1.5600450    -1.0625750
  H       -0.4516800     0.1714660    -1.3406670
  H       -2.4873830     0.0287790     1.8430020
  H        1.5813230    -1.7317920    -0.0895090
  H        1.6134840    -1.1144100    -1.7484380
  H       -3.7640510    -1.5477110     0.2601170
  H       -2.7467370    -2.2384130     1.3547150
  H       -2.6964570     2.4686380    -0.6361950
  H        3.2621090     2.1005400     0.7117460
  H        4.7565350     1.5848730     0.1747350
  H        5.0073770    -0.7866830     0.0488590
  H        3.7976690    -1.4866510    -0.9131750
units angstrom
no_reorient  #important for SAPT in psi4, default
symmetry c1  #important for SAPT in psi4, default
}

set PROPERTIES_ORIGIN ["COM"]
properties('MP2/aug-cc-pvtz', properties = ['dipole'])
--------------------------------------------------------------------------

    Molecular point group: c1
  Charge       = 0
  Multiplicity = 1
  Basis Set: AUG-CC-PVTZ
    Blend: AUG-CC-PVTZ
  Basis Set: (AUG-CC-PVTZ AUX)
    Blend: AUG-CC-PVTZ-JKFIT

    Orbital Energies [Eh]
    ---------------------

    Doubly Occupied:

       1A    -20.609681     2A    -20.546909     3A    -15.578581
       4A    -15.571518     5A    -15.539410     6A    -15.513169
       7A    -11.382200     8A    -11.342806     9A    -11.270665
      10A    -11.238342    11A    -11.212221    12A    -11.201512
      13A     -1.455332    14A     -1.352085    15A     -1.295519
      16A     -1.189323    17A     -1.170747    18A     -1.157730
      19A     -1.046751    20A     -0.974052    21A     -0.892512
      22A     -0.823183    23A     -0.788727    24A     -0.765760
      25A     -0.728935    26A     -0.703357    27A     -0.700788
      28A     -0.689945    29A     -0.656117    30A     -0.636360
      31A     -0.633789    32A     -0.617681    33A     -0.611138
      34A     -0.593940    35A     -0.569669    36A     -0.552134
      37A     -0.541314    38A     -0.521653    39A     -0.491085
      40A     -0.476955    41A     -0.469816    42A     -0.467192
      43A     -0.440104    44A     -0.434149    45A     -0.397490
      46A     -0.390771    47A     -0.345063

  @DF-RHF Final Energy:  -603.12619583384480

   => Energetics <=

    Nuclear Repulsion Energy =            725.7515290360989866
    One-Electron Energy =               -2264.5790914962226452
    Two-Electron Energy =                 935.7013666262789684
    Total Energy =                       -603.1261958338448039
  Basis Set: (AUG-CC-PVTZ AUX)
    Blend: AUG-CC-PVTZ-RI
    Molecular point group: c1

    Geometry (in Angstrom), charge = 0, multiplicity = 1:

       Center              X                  Y                   Z               Mass
    ------------   -----------------  -----------------  -----------------  -----------------
         O           -2.191689392579     1.857485189903     0.010275301058    15.994914619570
         O           -3.726641392579     0.440161189903    -0.860150698942    15.994914619570
         N           -2.750989392579    -1.679210810097     0.538693301058    14.003074004430
         N            2.014407607421     0.316431189903    -0.245620698942    14.003074004430
         N            3.932803607421     1.281126189903     0.658283301058    14.003074004430
         N            4.077158007421    -0.891013810097    -0.199596598942    14.003074004430
         C           -0.658818392579    -0.401051810097     0.743399301058    12.000000000000
         C           -0.164432392579    -0.696386810097    -0.667155698942    12.000000000000
         C           -2.187836392579    -0.367046810097     0.847463301058    12.000000000000
         C            1.344795607421    -0.895388810097    -0.703160698942    12.000000000000
         C           -2.791157392579     0.643813189903    -0.103815698942    12.000000000000
         C            3.266930607421     0.216666189903     0.031058301058    12.000000000000
         H           -0.239916392579     0.547285189903     1.090014301058     1.007825032230
         H           -0.301602392579    -1.182216810097     1.428699301058     1.007825032230
         H           -0.670511392579    -1.589324810097    -1.049082698942     1.007825032230
         H           -0.416729392579     0.142186189903    -1.327174698942     1.007825032230
         H           -2.452432392579    -0.000500810097     1.856494301058     1.007825032230
         H            1.616273607421    -1.761071810097    -0.076016698942     1.007825032230
         H            1.648434607421    -1.143689810097    -1.734945698942     1.007825032230
         H           -3.729100392579    -1.576990810097     0.273609301058     1.007825032230
         H           -2.711786392579    -2.267692810097     1.368207301058     1.007825032230
         H           -2.661506392579     2.439358189903    -0.622702698942     1.007825032230
         H            3.297059607421     2.071260189903     0.725238301058     1.007825032230
         H            4.791485607421     1.555593189903     0.188227301058     1.007825032230
         H            5.042327607421    -0.815962810097     0.062351301058     1.007825032230
         H            3.832619607421    -1.515930810097    -0.899682698942     1.007825032230

  Basis Set: AUG-CC-PVTZ
    Blend: AUG-CC-PVTZ
  Basis Set: (AUG-CC-PVTZ AUX)
    Blend: AUG-CC-PVTZ-JKFIT
	 Reference Energy          =    -603.1261958338448039 [Eh]
	 Singles Energy            =      -0.0000000000000000 [Eh]
	 Same-Spin Energy          =      -0.6199798837728577 [Eh]
	 Opposite-Spin Energy      =      -1.9527679626352232 [Eh]
	 Correlation Energy        =      -2.5727478464080811 [Eh]
	 Total Energy              =    -605.6989436802529099 [Eh]

	 ================> DF-SCS-MP2 Energies <==================
	-----------------------------------------------------------
	 SCS Same-Spin Scale       =       0.3333333333333333 [-]
	 SCS Opposite-Spin Scale   =       1.2000000000000000 [-]
	 SCS Same-Spin Energy      =      -0.2066599612576192 [Eh]
	 SCS Opposite-Spin Energy  =      -2.3433215551622677 [Eh]
	 SCS Correlation Energy    =      -2.5499815164198871 [Eh]
	 SCS Total Energy          =    -605.6761773502646520 [Eh]
	-----------------------------------------------------------

  Dipole Moment: [D]
     X:     3.4186      Y:     0.1627      Z:     0.5225     Total:     3.4621

*** Psi4 exiting successfully. Buy a developer a beer!
