                               Psi4 1.3.2 release

  ==> Input File <==

--------------------------------------------------------------------------
#psi4
#
memory 32 gb

molecule  {
0 1
  O       -2.2266400     1.8867650    -0.0032170
  O       -3.7615920     0.4694410    -0.8736430
  N       -2.7859400    -1.6499310     0.5252010
  N        1.9794570     0.3457110    -0.2591130
  N        3.8978530     1.3104060     0.6447910
  N        4.0552906    -0.8452531    -0.2584453
  C       -0.6937690    -0.3717720     0.7299070
  C       -0.1993830    -0.6671070    -0.6806480
  C       -2.2227870    -0.3377670     0.8339710
  C        1.3098450    -0.8661090    -0.7166530
  C       -2.8261080     0.6730930    -0.1173080
  C        3.2319800     0.2459460     0.0175660
  H       -0.2748670     0.5765650     1.0765220
  H       -0.3365530    -1.1529370     1.4152070
  H       -0.7054620    -1.5600450    -1.0625750
  H       -0.4516800     0.1714660    -1.3406670
  H       -2.4873830     0.0287790     1.8430020
  H        1.5813230    -1.7317920    -0.0895090
  H        1.6134840    -1.1144100    -1.7484380
  H       -3.7640510    -1.5477110     0.2601170
  H       -2.7467370    -2.2384130     1.3547150
  H       -2.6964570     2.4686380    -0.6361950
  H        3.2621090     2.1005400     0.7117460
  H        4.7565350     1.5848730     0.1747350
  H        5.0073770    -0.7866830     0.0488590
  H        3.7976690    -1.4866510    -0.9131750
units angstrom
no_reorient  #important for SAPT in psi4, default
symmetry c1  #important for SAPT in psi4, default
}

set PROPERTIES_ORIGIN ["COM"]
properties('MP2/aug-cc-pvtz', properties = ['dipole'])
--------------------------------------------------------------------------

    Molecular point group: c1
  Charge       = 0
  Multiplicity = 1
  Basis Set: AUG-CC-PVTZ
    Blend: AUG-CC-PVTZ
  Basis Set: (AUG-CC-PVTZ AUX)
    Blend: AUG-CC-PVTZ-JKFIT

    Orbital Energies [Eh]
    ---------------------

    Doubly Occupied:

       1A    -20.609693     2A    -20.546928     3A    -15.576827
       4A    -15.571540     5A    -15.539458     6A    -15.512693
       7A    -11.382222     8A    -11.343508     9A    -11.270697
      10A    -11.238480    11A    -11.212246    12A    -11.201562
      13A     -1.455347    14A     -1.352102    15A     -1.295250
      16A     -1.189368    17A     -1.171907    18A     -1.157708
      19A     -1.046789    20A     -0.974099    21A     -0.892591
      22A     -0.824043    23A     -0.790494    24A     -0.766134
      25A     -0.731778    26A     -0.703502    27A     -0.700908
      28A     -0.690111    29A     -0.656327    30A     -0.635457
      31A     -0.634493    32A     -0.617756    33A     -0.612218
      34A     -0.594260    35A     -0.569953    36A     -0.552732
      37A     -0.541468    38A     -0.521737    39A     -0.490965
      40A     -0.476949    41A     -0.469923    42A     -0.467082
      43A     -0.440131    44A     -0.432530    45A     -0.397460
      46A     -0.390765    47A     -0.344671

  @DF-RHF Final Energy:  -603.12460312430471

   => Energetics <=

    Nuclear Repulsion Energy =            725.6779281121391705
    One-Electron Energy =               -2264.4153387204710270
    Two-Electron Energy =                 935.6128074840271438
    Total Energy =                       -603.1246031243047128
  Basis Set: (AUG-CC-PVTZ AUX)
    Blend: AUG-CC-PVTZ-RI
    Molecular point group: c1

    Geometry (in Angstrom), charge = 0, multiplicity = 1:

       Center              X                  Y                   Z               Mass
    ------------   -----------------  -----------------  -----------------  -----------------
         O           -2.192741619646     1.856159700033     0.013923126646    15.994914619570
         O           -3.727693619646     0.438835700033    -0.856502873354    15.994914619570
         N           -2.752041619646    -1.680536299967     0.542341126646    14.003074004430
         N            2.013355380354     0.315105700033    -0.241972873354    14.003074004430
         N            3.931751380354     1.279800700033     0.661931126646    14.003074004430
         N            4.089188980354    -0.875858399967    -0.241305173354    14.003074004430
         C           -0.659870619646    -0.402377299967     0.747047126646    12.000000000000
         C           -0.165484619646    -0.697712299967    -0.663507873354    12.000000000000
         C           -2.188888619646    -0.368372299967     0.851111126646    12.000000000000
         C            1.343743380354    -0.896714299967    -0.699512873354    12.000000000000
         C           -2.792209619646     0.642487700033    -0.100167873354    12.000000000000
         C            3.265878380354     0.215340700033     0.034706126646    12.000000000000
         H           -0.240968619646     0.545959700033     1.093662126646     1.007825032230
         H           -0.302654619646    -1.183542299967     1.432347126646     1.007825032230
         H           -0.671563619646    -1.590650299967    -1.045434873354     1.007825032230
         H           -0.417781619646     0.140860700033    -1.323526873354     1.007825032230
         H           -2.453484619646    -0.001826299967     1.860142126646     1.007825032230
         H            1.615221380354    -1.762397299967    -0.072368873354     1.007825032230
         H            1.647382380354    -1.145015299967    -1.731297873354     1.007825032230
         H           -3.730152619646    -1.578316299967     0.277257126646     1.007825032230
         H           -2.712838619646    -2.269018299967     1.371855126646     1.007825032230
         H           -2.662558619646     2.438032700033    -0.619054873354     1.007825032230
         H            3.296007380354     2.069934700033     0.728886126646     1.007825032230
         H            4.790433380354     1.554267700033     0.191875126646     1.007825032230
         H            5.041275380354    -0.817288299967     0.065999126646     1.007825032230
         H            3.831567380354    -1.517256299967    -0.896034873354     1.007825032230

  Basis Set: AUG-CC-PVTZ
    Blend: AUG-CC-PVTZ
  Basis Set: (AUG-CC-PVTZ AUX)
    Blend: AUG-CC-PVTZ-JKFIT
	 Reference Energy          =    -603.1246031243047128 [Eh]
	 Singles Energy            =      -0.0000000000000000 [Eh]
	 Same-Spin Energy          =      -0.6198855401272241 [Eh]
	 Opposite-Spin Energy      =      -1.9525065254705691 [Eh]
	 Correlation Energy        =      -2.5723920655977932 [Eh]
	 Total Energy              =    -605.6969951899025091 [Eh]

	 ================> DF-SCS-MP2 Energies <==================
	-----------------------------------------------------------
	 SCS Same-Spin Scale       =       0.3333333333333333 [-]
	 SCS Opposite-Spin Scale   =       1.2000000000000000 [-]
	 SCS Same-Spin Energy      =      -0.2066285133757413 [Eh]
	 SCS Opposite-Spin Energy  =      -2.3430078305646829 [Eh]
	 SCS Correlation Energy    =      -2.5496363439404242 [Eh]
	 SCS Total Energy          =    -605.6742394682451049 [Eh]
	-----------------------------------------------------------

  Dipole Moment: [D]
     X:     3.3922      Y:     0.1077      Z:     0.6220     Total:     3.4505

*** Psi4 exiting successfully. Buy a developer a beer!
