                               Psi4 1.3.2 release

  ==> Input File <==

--------------------------------------------------------------------------
#psi4
#
memory 32 gb

molecule  {
0 1
  O       -2.2266400     1.8867650    -0.0032170
  O       -3.7615920     0.4694410    -0.8736430
  N       -2.7859400    -1.6499310     0.5252010
  N        1.9794570     0.3457110    -0.2591130
  N        3.8978530     1.3104060     0.6447910
  N        4.0160410    -0.8946960    -0.1223760
  C       -0.6937690    -0.3717720     0.7299070
  C       -0.1993830    -0.6671070    -0.6806480
  C       -2.2227870    -0.3377670     0.8339710
  C        1.3098450    -0.8661090    -0.7166530
  C       -2.8261080     0.6730930    -0.1173080
  C        3.2319800     0.2459460     0.0175660
  H       -0.2748670     0.5765650     1.0765220
  H       -0.3365530    -1.1529370     1.4152070
  H       -0.7054620    -1.5600450    -1.0625750
  H       -0.4516800     0.1714660    -1.3406670
  H       -2.4873830     0.0287790     1.8430020
  H        1.5813230    -1.7317920    -0.0895090
  H        1.6134840    -1.1144100    -1.7484380
  H       -3.7640510    -1.5477110     0.2601170
  H       -2.7467370    -2.2384130     1.3547150
  H       -2.6964570     2.4686380    -0.6361950
  H        3.2621090     2.1005400     0.7117460
  H        4.7565350     1.5848730     0.1747350
  H        5.0073770    -0.7866830     0.0488590
  H        3.8136989    -1.4602831    -0.9525168
units angstrom
no_reorient  #important for SAPT in psi4, default
symmetry c1  #important for SAPT in psi4, default
}

set PROPERTIES_ORIGIN ["COM"]
properties('MP2/aug-cc-pvtz', properties = ['dipole'])
--------------------------------------------------------------------------

    Molecular point group: c1
  Charge       = 0
  Multiplicity = 1
  Basis Set: AUG-CC-PVTZ
    Blend: AUG-CC-PVTZ
  Basis Set: (AUG-CC-PVTZ AUX)
    Blend: AUG-CC-PVTZ-JKFIT

    Orbital Energies [Eh]
    ---------------------

    Doubly Occupied:

       1A    -20.609827     2A    -20.547023     3A    -15.584657
       4A    -15.571717     5A    -15.539446     6A    -15.515889
       7A    -11.382314     8A    -11.341471     9A    -11.270779
      10A    -11.238341    11A    -11.212425    12A    -11.201647
      13A     -1.455467    14A     -1.352209    15A     -1.295162
      16A     -1.189384    17A     -1.166793    18A     -1.157860
      19A     -1.046925    20A     -0.974171    21A     -0.892511
      22A     -0.821099    23A     -0.783456    24A     -0.764609
      25A     -0.717050    26A     -0.702809    27A     -0.700436
      28A     -0.689655    29A     -0.655705    30A     -0.638209
      31A     -0.631669    32A     -0.617674    33A     -0.606115
      34A     -0.592874    35A     -0.569211    36A     -0.550582
      37A     -0.540919    38A     -0.521450    39A     -0.491507
      40A     -0.477142    41A     -0.469855    42A     -0.467735
      43A     -0.440268    44A     -0.439109    45A     -0.398144
      46A     -0.391051    47A     -0.347342

  @DF-RHF Final Energy:  -603.12533003117517

   => Energetics <=

    Nuclear Repulsion Energy =            725.6788436125789303
    One-Electron Energy =               -2264.4649539744564208
    Two-Electron Energy =                 935.6607803307023232
    Total Energy =                       -603.1253300311751673
  Basis Set: (AUG-CC-PVTZ AUX)
    Blend: AUG-CC-PVTZ-RI
    Molecular point group: c1

    Geometry (in Angstrom), charge = 0, multiplicity = 1:

       Center              X                  Y                   Z               Mass
    ------------   -----------------  -----------------  -----------------  -----------------
         O           -2.189677725643     1.859983558229     0.003207367239    15.994914619570
         O           -3.724629725643     0.442659558229    -0.867218632761    15.994914619570
         N           -2.748977725643    -1.676712441771     0.531625367239    14.003074004430
         N            2.016419274357     0.318929558229    -0.252688632761    14.003074004430
         N            3.934815274357     1.283624558229     0.651215367239    14.003074004430
         N            4.053003274357    -0.921477441771    -0.115951632761    14.003074004430
         C           -0.656806725643    -0.398553441771     0.736331367239    12.000000000000
         C           -0.162420725643    -0.693888441771    -0.674223632761    12.000000000000
         C           -2.185824725643    -0.364548441771     0.840395367239    12.000000000000
         C            1.346807274357    -0.892890441771    -0.710228632761    12.000000000000
         C           -2.789145725643     0.646311558229    -0.110883632761    12.000000000000
         C            3.268942274357     0.219164558229     0.023990367239    12.000000000000
         H           -0.237904725643     0.549783558229     1.082946367239     1.007825032230
         H           -0.299590725643    -1.179718441771     1.421631367239     1.007825032230
         H           -0.668499725643    -1.586826441771    -1.056150632761     1.007825032230
         H           -0.414717725643     0.144684558229    -1.334242632761     1.007825032230
         H           -2.450420725643     0.001997558229     1.849426367239     1.007825032230
         H            1.618285274357    -1.758573441771    -0.083084632761     1.007825032230
         H            1.650446274357    -1.141191441771    -1.742013632761     1.007825032230
         H           -3.727088725643    -1.574492441771     0.266541367239     1.007825032230
         H           -2.709774725643    -2.265194441771     1.361139367239     1.007825032230
         H           -2.659494725643     2.441856558229    -0.629770632761     1.007825032230
         H            3.299071274357     2.073758558229     0.718170367239     1.007825032230
         H            4.793497274357     1.558091558229     0.181159367239     1.007825032230
         H            5.044339274357    -0.813464441771     0.055283367239     1.007825032230
         H            3.850661174357    -1.487064541771    -0.946092432761     1.007825032230

  Basis Set: AUG-CC-PVTZ
    Blend: AUG-CC-PVTZ
  Basis Set: (AUG-CC-PVTZ AUX)
    Blend: AUG-CC-PVTZ-JKFIT
	 Reference Energy          =    -603.1253300311751673 [Eh]
	 Singles Energy            =      -0.0000000000000000 [Eh]
	 Same-Spin Energy          =      -0.6203441236527014 [Eh]
	 Opposite-Spin Energy      =      -1.9540542354566286 [Eh]
	 Correlation Energy        =      -2.5743983591093302 [Eh]
	 Total Energy              =    -605.6997283902844629 [Eh]

	 ================> DF-SCS-MP2 Energies <==================
	-----------------------------------------------------------
	 SCS Same-Spin Scale       =       0.3333333333333333 [-]
	 SCS Opposite-Spin Scale   =       1.2000000000000000 [-]
	 SCS Same-Spin Energy      =      -0.2067813745509005 [Eh]
	 SCS Opposite-Spin Energy  =      -2.3448650825479542 [Eh]
	 SCS Correlation Energy    =      -2.5516464570988546 [Eh]
	 SCS Total Energy          =    -605.6769764882740219 [Eh]
	-----------------------------------------------------------

  Dipole Moment: [D]
     X:     3.4247      Y:     0.3342      Z:     0.3071     Total:     3.4546

*** Psi4 exiting successfully. Buy a developer a beer!
