                               Psi4 1.3.2 release

  ==> Input File <==

--------------------------------------------------------------------------
#psi4
#
memory 32 gb

molecule  {
0 1
  O       -2.2266400     1.8867650    -0.0032170
  O       -3.7615920     0.4694410    -0.8736430
  N       -2.7859400    -1.6499310     0.5252010
  N        1.9794570     0.3457110    -0.2591130
  N        3.8978530     1.3104060     0.6447910
  N        4.0160410    -0.8946960    -0.1223760
  C       -0.6937690    -0.3717720     0.7299070
  C       -0.1993830    -0.6671070    -0.6806480
  C       -2.2227870    -0.3377670     0.8339710
  C        1.3098450    -0.8661090    -0.7166530
  C       -2.8261080     0.6730930    -0.1173080
  C        3.2319800     0.2459460     0.0175660
  H       -0.2748670     0.5765650     1.0765220
  H       -0.3365530    -1.1529370     1.4152070
  H       -0.7054620    -1.5600450    -1.0625750
  H       -0.4516800     0.1714660    -1.3406670
  H       -2.4873830     0.0287790     1.8430020
  H        1.5813230    -1.7317920    -0.0895090
  H        1.6134840    -1.1144100    -1.7484380
  H       -3.7640510    -1.5477110     0.2601170
  H       -2.7467370    -2.2384130     1.3547150
  H       -2.6964570     2.4686380    -0.6361950
  H        3.2621090     2.1005400     0.7117460
  H        4.7460665     1.6021612     0.1290017
  H        5.0073770    -0.7866830     0.0488590
  H        3.7976690    -1.4866510    -0.9131750
units angstrom
no_reorient  #important for SAPT in psi4, default
symmetry c1  #important for SAPT in psi4, default
}

set PROPERTIES_ORIGIN ["COM"]
properties('MP2/aug-cc-pvtz', properties = ['dipole'])
--------------------------------------------------------------------------

    Molecular point group: c1
  Charge       = 0
  Multiplicity = 1
  Basis Set: AUG-CC-PVTZ
    Blend: AUG-CC-PVTZ
  Basis Set: (AUG-CC-PVTZ AUX)
    Blend: AUG-CC-PVTZ-JKFIT

    Orbital Energies [Eh]
    ---------------------

    Doubly Occupied:

       1A    -20.609941     2A    -20.547144     3A    -15.583482
       4A    -15.573465     5A    -15.539588     6A    -15.516036
       7A    -11.382438     8A    -11.341414     9A    -11.270927
      10A    -11.238690    11A    -11.212616    12A    -11.201921
      13A     -1.455585    14A     -1.352327    15A     -1.295115
      16A     -1.189528    17A     -1.166753    18A     -1.157604
      19A     -1.047036    20A     -0.974244    21A     -0.892536
      22A     -0.821227    23A     -0.784542    24A     -0.765014
      25A     -0.719128    26A     -0.702235    27A     -0.698394
      28A     -0.687746    29A     -0.655915    30A     -0.637265
      31A     -0.631764    32A     -0.617801    33A     -0.607488
      34A     -0.592925    35A     -0.569427    36A     -0.550532
      37A     -0.541513    38A     -0.521041    39A     -0.491750
      40A     -0.477313    41A     -0.469954    42A     -0.468017
      43A     -0.440409    44A     -0.439293    45A     -0.398225
      46A     -0.391205    47A     -0.347665

  @DF-RHF Final Energy:  -603.12507956359661

   => Energetics <=

    Nuclear Repulsion Energy =            725.6856168326017951
    One-Electron Energy =               -2264.4690350839609891
    Two-Electron Energy =                 935.6583386877626936
    Total Energy =                       -603.1250795635966142
  Basis Set: (AUG-CC-PVTZ AUX)
    Blend: AUG-CC-PVTZ-RI
    Molecular point group: c1

    Geometry (in Angstrom), charge = 0, multiplicity = 1:

       Center              X                  Y                   Z               Mass
    ------------   -----------------  -----------------  -----------------  -----------------
         O           -2.189524342760     1.860036115008     0.003244363688    15.994914619570
         O           -3.724476342760     0.442712115008    -0.867181636312    15.994914619570
         N           -2.748824342760    -1.676659884992     0.531662363688    14.003074004430
         N            2.016572657240     0.318982115008    -0.252651636312    14.003074004430
         N            3.934968657240     1.283677115008     0.651252363688    14.003074004430
         N            4.053156657240    -0.921424884992    -0.115914636312    14.003074004430
         C           -0.656653342760    -0.398500884992     0.736368363688    12.000000000000
         C           -0.162267342760    -0.693835884992    -0.674186636312    12.000000000000
         C           -2.185671342760    -0.364495884992     0.840432363688    12.000000000000
         C            1.346960657240    -0.892837884992    -0.710191636312    12.000000000000
         C           -2.788992342760     0.646364115008    -0.110846636312    12.000000000000
         C            3.269095657240     0.219217115008     0.024027363688    12.000000000000
         H           -0.237751342760     0.549836115008     1.082983363688     1.007825032230
         H           -0.299437342760    -1.179665884992     1.421668363688     1.007825032230
         H           -0.668346342760    -1.586773884992    -1.056113636312     1.007825032230
         H           -0.414564342760     0.144737115008    -1.334205636312     1.007825032230
         H           -2.450267342760     0.002050115008     1.849463363688     1.007825032230
         H            1.618438657240    -1.758520884992    -0.083047636312     1.007825032230
         H            1.650599657240    -1.141138884992    -1.741976636312     1.007825032230
         H           -3.726935342760    -1.574439884992     0.266578363688     1.007825032230
         H           -2.709621342760    -2.265141884992     1.361176363688     1.007825032230
         H           -2.659341342760     2.441909115008    -0.629733636312     1.007825032230
         H            3.299224657240     2.073811115008     0.718207363688     1.007825032230
         H            4.783182157240     1.575432315008     0.135463063688     1.007825032230
         H            5.044492657240    -0.813411884992     0.055320363688     1.007825032230
         H            3.834784657240    -1.513379884992    -0.906713636312     1.007825032230

  Basis Set: AUG-CC-PVTZ
    Blend: AUG-CC-PVTZ
  Basis Set: (AUG-CC-PVTZ AUX)
    Blend: AUG-CC-PVTZ-JKFIT
	 Reference Energy          =    -603.1250795635966142 [Eh]
	 Singles Energy            =      -0.0000000000000000 [Eh]
	 Same-Spin Energy          =      -0.6203633049718713 [Eh]
	 Opposite-Spin Energy      =      -1.9541601647003242 [Eh]
	 Correlation Energy        =      -2.5745234696721955 [Eh]
	 Total Energy              =    -605.6996030332687724 [Eh]

	 ================> DF-SCS-MP2 Energies <==================
	-----------------------------------------------------------
	 SCS Same-Spin Scale       =       0.3333333333333333 [-]
	 SCS Opposite-Spin Scale   =       1.2000000000000000 [-]
	 SCS Same-Spin Energy      =      -0.2067877683239571 [Eh]
	 SCS Opposite-Spin Energy  =      -2.3449921976403889 [Eh]
	 SCS Correlation Energy    =      -2.5517799659643461 [Eh]
	 SCS Total Energy          =    -605.6768595295609430 [Eh]
	-----------------------------------------------------------

  Dipole Moment: [D]
     X:     3.3593      Y:     0.2848      Z:     0.2896     Total:     3.3838

*** Psi4 exiting successfully. Buy a developer a beer!
