                               Psi4 1.3.2 release

  ==> Input File <==

--------------------------------------------------------------------------
#psi4
#
memory 32 gb

molecule  {
0 1
  O       -2.2266400     1.8867650    -0.0032170
  O       -3.7615920     0.4694410    -0.8736430
  N       -2.7859400    -1.6499310     0.5252010
  N        1.9794570     0.3457110    -0.2591130
  N        3.8978530     1.3104060     0.6447910
  N        4.0814570    -0.8122911    -0.3491582
  C       -0.6937690    -0.3717720     0.7299070
  C       -0.1993830    -0.6671070    -0.6806480
  C       -2.2227870    -0.3377670     0.8339710
  C        1.3098450    -0.8661090    -0.7166530
  C       -2.8261080     0.6730930    -0.1173080
  C        3.2319800     0.2459460     0.0175660
  H       -0.2748670     0.5765650     1.0765220
  H       -0.3365530    -1.1529370     1.4152070
  H       -0.7054620    -1.5600450    -1.0625750
  H       -0.4516800     0.1714660    -1.3406670
  H       -2.4873830     0.0287790     1.8430020
  H        1.5813230    -1.7317920    -0.0895090
  H        1.6134840    -1.1144100    -1.7484380
  H       -3.7640510    -1.5477110     0.2601170
  H       -2.7467370    -2.2384130     1.3547150
  H       -2.6964570     2.4686380    -0.6361950
  H        3.2621090     2.1005400     0.7117460
  H        4.7565350     1.5848730     0.1747350
  H        5.0073770    -0.7866830     0.0488590
  H        3.7976690    -1.4866510    -0.9131750
units angstrom
no_reorient  #important for SAPT in psi4, default
symmetry c1  #important for SAPT in psi4, default
}

set PROPERTIES_ORIGIN ["COM"]
properties('MP2/aug-cc-pvtz', properties = ['dipole'])
--------------------------------------------------------------------------

    Molecular point group: c1
  Charge       = 0
  Multiplicity = 1
  Basis Set: AUG-CC-PVTZ
    Blend: AUG-CC-PVTZ
  Basis Set: (AUG-CC-PVTZ AUX)
    Blend: AUG-CC-PVTZ-JKFIT

    Orbital Energies [Eh]
    ---------------------

    Doubly Occupied:

       1A    -20.609889     2A    -20.547134     3A    -15.574682
       4A    -15.571806     5A    -15.539725     6A    -15.513074
       7A    -11.382437     8A    -11.345039     9A    -11.270964
      10A    -11.239182    11A    -11.212576    12A    -11.201984
      13A     -1.455547    14A     -1.352302    15A     -1.293963
      16A     -1.189641    17A     -1.173279    18A     -1.157969
      19A     -1.047156    20A     -0.974460    21A     -0.892986
      22A     -0.825449    23A     -0.793052    24A     -0.766904
      25A     -0.732406    26A     -0.703363    27A     -0.701161
      28A     -0.690591    29A     -0.656808    30A     -0.636177
      31A     -0.632777    32A     -0.618041    33A     -0.613336
      34A     -0.594970    35A     -0.570704    36A     -0.553837
      37A     -0.541987    38A     -0.522060    39A     -0.490955
      40A     -0.477156    41A     -0.470427    42A     -0.467186
      43A     -0.440385    44A     -0.430490    45A     -0.397771
      46A     -0.391022    47A     -0.345068

  @DF-RHF Final Energy:  -603.11931285839989

   => Energetics <=

    Nuclear Repulsion Energy =            725.3749113096994279
    One-Electron Energy =               -2263.7686951457421856
    Two-Electron Energy =                 935.2744709776428635
    Total Energy =                       -603.1193128583998941
  Basis Set: (AUG-CC-PVTZ AUX)
    Blend: AUG-CC-PVTZ-RI
    Molecular point group: c1

    Geometry (in Angstrom), charge = 0, multiplicity = 1:

       Center              X                  Y                   Z               Mass
    ------------   -----------------  -----------------  -----------------  -----------------
         O           -2.194846073779     1.853508704209     0.021218785864    15.994914619570
         O           -3.729798073779     0.436184704209    -0.849207214136    15.994914619570
         N           -2.754146073779    -1.683187295791     0.549636785864    14.003074004430
         N            2.011250926221     0.312454704209    -0.234677214136    14.003074004430
         N            3.929646926221     1.277149704209     0.669226785864    14.003074004430
         N            4.113250926221    -0.845547395791    -0.324722414136    14.003074004430
         C           -0.661975073779    -0.405028295791     0.754342785864    12.000000000000
         C           -0.167589073779    -0.700363295791    -0.656212214136    12.000000000000
         C           -2.190993073779    -0.371023295791     0.858406785864    12.000000000000
         C            1.341638926221    -0.899365295791    -0.692217214136    12.000000000000
         C           -2.794314073779     0.639836704209    -0.092872214136    12.000000000000
         C            3.263773926221     0.212689704209     0.042001785864    12.000000000000
         H           -0.243073073779     0.543308704209     1.100957785864     1.007825032230
         H           -0.304759073779    -1.186193295791     1.439642785864     1.007825032230
         H           -0.673668073779    -1.593301295791    -1.038139214136     1.007825032230
         H           -0.419886073779     0.138209704209    -1.316231214136     1.007825032230
         H           -2.455589073779    -0.004477295791     1.867437785864     1.007825032230
         H            1.613116926221    -1.765048295791    -0.065073214136     1.007825032230
         H            1.645277926221    -1.147666295791    -1.724002214136     1.007825032230
         H           -3.732257073779    -1.580967295791     0.284552785864     1.007825032230
         H           -2.714943073779    -2.271669295791     1.379150785864     1.007825032230
         H           -2.664663073779     2.435381704209    -0.611759214136     1.007825032230
         H            3.293902926221     2.067283704209     0.736181785864     1.007825032230
         H            4.788328926221     1.551616704209     0.199170785864     1.007825032230
         H            5.039170926221    -0.819939295791     0.073294785864     1.007825032230
         H            3.829462926221    -1.519907295791    -0.888739214136     1.007825032230

  Basis Set: AUG-CC-PVTZ
    Blend: AUG-CC-PVTZ
  Basis Set: (AUG-CC-PVTZ AUX)
    Blend: AUG-CC-PVTZ-JKFIT
	 Reference Energy          =    -603.1193128583998941 [Eh]
	 Singles Energy            =      -0.0000000000000000 [Eh]
	 Same-Spin Energy          =      -0.6197728144510930 [Eh]
	 Opposite-Spin Energy      =      -1.9524372339560483 [Eh]
	 Correlation Energy        =      -2.5722100484071415 [Eh]
	 Total Energy              =    -605.6915229068069948 [Eh]

	 ================> DF-SCS-MP2 Energies <==================
	-----------------------------------------------------------
	 SCS Same-Spin Scale       =       0.3333333333333333 [-]
	 SCS Opposite-Spin Scale   =       1.2000000000000000 [-]
	 SCS Same-Spin Energy      =      -0.2065909381503643 [Eh]
	 SCS Opposite-Spin Energy  =      -2.3429246807472577 [Eh]
	 SCS Correlation Energy    =      -2.5495156188976220 [Eh]
	 SCS Total Energy          =    -605.6688284772975521 [Eh]
	-----------------------------------------------------------

  Dipole Moment: [D]
     X:     3.2824      Y:     0.0175      Z:     0.8371     Total:     3.3875

*** Psi4 exiting successfully. Buy a developer a beer!
