                               Psi4 1.3.2 release

  ==> Input File <==

--------------------------------------------------------------------------
#psi4
#
memory 32 gb

molecule  {
0 1
  O       -2.2266400     1.8867650    -0.0032170
  O       -3.7615920     0.4694410    -0.8736430
  N       -2.7859400    -1.6499310     0.5252010
  N        1.9794570     0.3457110    -0.2591130
  N        3.8978530     1.3104060     0.6447910
  N        4.0160410    -0.8946960    -0.1223760
  C       -0.6937690    -0.3717720     0.7299070
  C       -0.1993830    -0.6671070    -0.6806480
  C       -2.2227870    -0.3377670     0.8339710
  C        1.3098450    -0.8661090    -0.7166530
  C       -2.8261080     0.6730930    -0.1173080
  C        3.2319800     0.2459460     0.0175660
  H       -0.2748670     0.5765650     1.0765220
  H       -0.3365530    -1.1529370     1.4152070
  H       -0.7054620    -1.5600450    -1.0625750
  H       -0.4516800     0.1714660    -1.3406670
  H       -2.4873830     0.0287790     1.8430020
  H        1.5813230    -1.7317920    -0.0895090
  H        1.6134840    -1.1144100    -1.7484380
  H       -3.7640510    -1.5477110     0.2601170
  H       -2.7467370    -2.2384130     1.3547150
  H       -2.6964570     2.4686380    -0.6361950
  H        3.2621090     2.1005400     0.7117460
  H        4.7565350     1.5848730     0.1747350
  H        5.0073770    -0.7866830     0.0488590
  H        3.8617885    -1.3811794    -1.0705422
units angstrom
no_reorient  #important for SAPT in psi4, default
symmetry c1  #important for SAPT in psi4, default
}

set PROPERTIES_ORIGIN ["COM"]
properties('MP2/aug-cc-pvtz', properties = ['dipole'])
--------------------------------------------------------------------------

    Molecular point group: c1
  Charge       = 0
  Multiplicity = 1
  Basis Set: AUG-CC-PVTZ
    Blend: AUG-CC-PVTZ
  Basis Set: (AUG-CC-PVTZ AUX)
    Blend: AUG-CC-PVTZ-JKFIT

    Orbital Energies [Eh]
    ---------------------

    Doubly Occupied:

       1A    -20.609851     2A    -20.547015     3A    -15.589162
       4A    -15.571892     5A    -15.539370     6A    -15.517565
       7A    -11.382305     8A    -11.341029     9A    -11.270741
      10A    -11.237940    11A    -11.212394    12A    -11.201436
      13A     -1.455479    14A     -1.352212    15A     -1.294599
      16A     -1.189320    17A     -1.163918    18A     -1.157327
      19A     -1.046865    20A     -0.974054    21A     -0.892259
      22A     -0.819782    23A     -0.780388    24A     -0.763473
      25A     -0.710000    26A     -0.702825    27A     -0.700012
      28A     -0.689331    29A     -0.655441    30A     -0.638228
      31A     -0.630736    32A     -0.617622    33A     -0.602263
      34A     -0.590378    35A     -0.568913    36A     -0.549610
      37A     -0.540035    38A     -0.520736    39A     -0.491411
      40A     -0.477065    41A     -0.469713    42A     -0.467816
      43A     -0.441529    44A     -0.440145    45A     -0.398747
      46A     -0.391103    47A     -0.348675

  @DF-RHF Final Energy:  -603.11988737420018

   => Energetics <=

    Nuclear Repulsion Energy =            725.4225005094591552
    One-Electron Energy =               -2263.9793535451153730
    Two-Electron Energy =                 935.4369656614561563
    Total Energy =                       -603.1198873742001751
  Basis Set: (AUG-CC-PVTZ AUX)
    Blend: AUG-CC-PVTZ-RI
    Molecular point group: c1

    Geometry (in Angstrom), charge = 0, multiplicity = 1:

       Center              X                  Y                   Z               Mass
    ------------   -----------------  -----------------  -----------------  -----------------
         O           -2.189956086658     1.859525675731     0.003890543437    15.994914619570
         O           -3.724908086658     0.442201675731    -0.866535456563    15.994914619570
         N           -2.749256086658    -1.677170324269     0.532308543437    14.003074004430
         N            2.016140913342     0.318471675731    -0.252005456563    14.003074004430
         N            3.934536913342     1.283166675731     0.651898543437    14.003074004430
         N            4.052724913342    -0.921935324269    -0.115268456563    14.003074004430
         C           -0.657085086658    -0.399011324269     0.737014543437    12.000000000000
         C           -0.162699086658    -0.694346324269    -0.673540456563    12.000000000000
         C           -2.186103086658    -0.365006324269     0.841078543437    12.000000000000
         C            1.346528913342    -0.893348324269    -0.709545456563    12.000000000000
         C           -2.789424086658     0.645853675731    -0.110200456563    12.000000000000
         C            3.268663913342     0.218706675731     0.024673543437    12.000000000000
         H           -0.238183086658     0.549325675731     1.083629543437     1.007825032230
         H           -0.299869086658    -1.180176324269     1.422314543437     1.007825032230
         H           -0.668778086658    -1.587284324269    -1.055467456563     1.007825032230
         H           -0.414996086658     0.144226675731    -1.333559456563     1.007825032230
         H           -2.450699086658     0.001539675731     1.850109543437     1.007825032230
         H            1.618006913342    -1.759031324269    -0.082401456563     1.007825032230
         H            1.650167913342    -1.141649324269    -1.741330456563     1.007825032230
         H           -3.727367086658    -1.574950324269     0.267224543437     1.007825032230
         H           -2.710053086658    -2.265652324269     1.361822543437     1.007825032230
         H           -2.659773086658     2.441398675731    -0.629087456563     1.007825032230
         H            3.298792913342     2.073300675731     0.718853543437     1.007825032230
         H            4.793218913342     1.557633675731     0.181842543437     1.007825032230
         H            5.044060913342    -0.813922324269     0.055966543437     1.007825032230
         H            3.898472413342    -1.408418724269    -1.063434656563     1.007825032230

  Basis Set: AUG-CC-PVTZ
    Blend: AUG-CC-PVTZ
  Basis Set: (AUG-CC-PVTZ AUX)
    Blend: AUG-CC-PVTZ-JKFIT
	 Reference Energy          =    -603.1198873742001751 [Eh]
	 Singles Energy            =      -0.0000000000000000 [Eh]
	 Same-Spin Energy          =      -0.6206447450899516 [Eh]
	 Opposite-Spin Energy      =      -1.9551141016784062 [Eh]
	 Correlation Energy        =      -2.5757588467683576 [Eh]
	 Total Energy              =    -605.6956462209685697 [Eh]

	 ================> DF-SCS-MP2 Energies <==================
	-----------------------------------------------------------
	 SCS Same-Spin Scale       =       0.3333333333333333 [-]
	 SCS Opposite-Spin Scale   =       1.2000000000000000 [-]
	 SCS Same-Spin Energy      =      -0.2068815816966505 [Eh]
	 SCS Opposite-Spin Energy  =      -2.3461369220140873 [Eh]
	 SCS Correlation Energy    =      -2.5530185037107378 [Eh]
	 SCS Total Energy          =    -605.6729058779109209 [Eh]
	-----------------------------------------------------------

  Dipole Moment: [D]
     X:     3.4450      Y:     0.4742      Z:     0.2159     Total:     3.4842

*** Psi4 exiting successfully. Buy a developer a beer!
