                               Psi4 1.3.2 release

  ==> Input File <==

--------------------------------------------------------------------------
#psi4
#
memory 32 gb

molecule  {
0 1
  O       -2.2266400     1.8867650    -0.0032170
  O       -3.7615920     0.4694410    -0.8736430
  N       -2.7859400    -1.6499310     0.5252010
  N        1.9794570     0.3457110    -0.2591130
  N        3.8978530     1.3104060     0.6447910
  N        4.0160410    -0.8946960    -0.1223760
  C       -0.6937690    -0.3717720     0.7299070
  C       -0.1993830    -0.6671070    -0.6806480
  C       -2.2227870    -0.3377670     0.8339710
  C        1.3098450    -0.8661090    -0.7166530
  C       -2.8261080     0.6730930    -0.1173080
  C        3.2319800     0.2459460     0.0175660
  H       -0.2748670     0.5765650     1.0765220
  H       -0.3365530    -1.1529370     1.4152070
  H       -0.7054620    -1.5600450    -1.0625750
  H       -0.4516800     0.1714660    -1.3406670
  H       -2.4873830     0.0287790     1.8430020
  H        1.5813230    -1.7317920    -0.0895090
  H        1.6134840    -1.1144100    -1.7484380
  H       -3.7640510    -1.5477110     0.2601170
  H       -2.7467370    -2.2384130     1.3547150
  H       -2.6964570     2.4686380    -0.6361950
  H        3.2621090     2.1005400     0.7117460
  H        4.7565350     1.5848730     0.1747350
  H        5.0073770    -0.7866830     0.0488590
  H        3.8778183    -1.3548115    -1.1098840
units angstrom
no_reorient  #important for SAPT in psi4, default
symmetry c1  #important for SAPT in psi4, default
}

set PROPERTIES_ORIGIN ["COM"]
properties('MP2/aug-cc-pvtz', properties = ['dipole'])
--------------------------------------------------------------------------

    Molecular point group: c1
  Charge       = 0
  Multiplicity = 1
  Basis Set: AUG-CC-PVTZ
    Blend: AUG-CC-PVTZ
  Basis Set: (AUG-CC-PVTZ AUX)
    Blend: AUG-CC-PVTZ-JKFIT

    Orbital Energies [Eh]
    ---------------------

    Doubly Occupied:

       1A    -20.609860     2A    -20.547013     3A    -15.590973
       4A    -15.571963     5A    -15.539346     6A    -15.518113
       7A    -11.382302     8A    -11.340906     9A    -11.270728
      10A    -11.237799    11A    -11.212384    12A    -11.201361
      13A     -1.455484    14A     -1.352213    15A     -1.294362
      16A     -1.189299    17A     -1.163115    18A     -1.156793
      19A     -1.046842    20A     -0.974012    21A     -0.892175
      22A     -0.819406    23A     -0.779495    24A     -0.763039
      25A     -0.707766    26A     -0.702833    27A     -0.699705
      28A     -0.689187    29A     -0.655353    30A     -0.638181
      31A     -0.630243    32A     -0.617605    33A     -0.601082
      34A     -0.588921    35A     -0.568783    36A     -0.549234
      37A     -0.539620    38A     -0.520413    39A     -0.491374
      40A     -0.477041    41A     -0.469668    42A     -0.467842
      43A     -0.442266    44A     -0.440149    45A     -0.398955
      46A     -0.391115    47A     -0.349100

  @DF-RHF Final Energy:  -603.11675578073198

   => Energetics <=

    Nuclear Repulsion Energy =            725.3232589755822346
    One-Electron Energy =               -2263.7891938280799877
    Two-Electron Energy =                 935.3491790717658887
    Total Energy =                       -603.1167557807319781
  Basis Set: (AUG-CC-PVTZ AUX)
    Blend: AUG-CC-PVTZ-RI
    Molecular point group: c1

    Geometry (in Angstrom), charge = 0, multiplicity = 1:

       Center              X                  Y                   Z               Mass
    ------------   -----------------  -----------------  -----------------  -----------------
         O           -2.190048873277     1.859373048231     0.004118268836    15.994914619570
         O           -3.725000873277     0.442049048231    -0.866307731164    15.994914619570
         N           -2.749348873277    -1.677322951769     0.532536268836    14.003074004430
         N            2.016048126723     0.318319048231    -0.251777731164    14.003074004430
         N            3.934444126723     1.283014048231     0.652126268836    14.003074004430
         N            4.052632126723    -0.922087951769    -0.115040731164    14.003074004430
         C           -0.657177873277    -0.399163951769     0.737242268836    12.000000000000
         C           -0.162791873277    -0.694498951769    -0.673312731164    12.000000000000
         C           -2.186195873277    -0.365158951769     0.841306268836    12.000000000000
         C            1.346436126723    -0.893500951769    -0.709317731164    12.000000000000
         C           -2.789516873277     0.645701048231    -0.109972731164    12.000000000000
         C            3.268571126723     0.218554048231     0.024901268836    12.000000000000
         H           -0.238275873277     0.549173048231     1.083857268836     1.007825032230
         H           -0.299961873277    -1.180328951769     1.422542268836     1.007825032230
         H           -0.668870873277    -1.587436951769    -1.055239731164     1.007825032230
         H           -0.415088873277     0.144074048231    -1.333331731164     1.007825032230
         H           -2.450791873277     0.001387048231     1.850337268836     1.007825032230
         H            1.617914126723    -1.759183951769    -0.082173731164     1.007825032230
         H            1.650075126723    -1.141801951769    -1.741102731164     1.007825032230
         H           -3.727459873277    -1.575102951769     0.267452268836     1.007825032230
         H           -2.710145873277    -2.265804951769     1.362050268836     1.007825032230
         H           -2.659865873277     2.441246048231    -0.628859731164     1.007825032230
         H            3.298700126723     2.073148048231     0.719081268836     1.007825032230
         H            4.793126126723     1.557481048231     0.182070268836     1.007825032230
         H            5.043968126723    -0.814074951769     0.056194268836     1.007825032230
         H            3.914409426723    -1.382203451769    -1.102548731164     1.007825032230

  Basis Set: AUG-CC-PVTZ
    Blend: AUG-CC-PVTZ
  Basis Set: (AUG-CC-PVTZ AUX)
    Blend: AUG-CC-PVTZ-JKFIT
	 Reference Energy          =    -603.1167557807319781 [Eh]
	 Singles Energy            =      -0.0000000000000000 [Eh]
	 Same-Spin Energy          =      -0.6207712225053347 [Eh]
	 Opposite-Spin Energy      =      -1.9555651787980333 [Eh]
	 Correlation Energy        =      -2.5763364013033678 [Eh]
	 Total Energy              =    -605.6930921820353433 [Eh]

	 ================> DF-SCS-MP2 Energies <==================
	-----------------------------------------------------------
	 SCS Same-Spin Scale       =       0.3333333333333333 [-]
	 SCS Opposite-Spin Scale   =       1.2000000000000000 [-]
	 SCS Same-Spin Energy      =      -0.2069237408351116 [Eh]
	 SCS Opposite-Spin Energy  =      -2.3466782145576399 [Eh]
	 SCS Correlation Energy    =      -2.5536019553927516 [Eh]
	 SCS Total Energy          =    -605.6703577361247426 [Eh]
	-----------------------------------------------------------

  Dipole Moment: [D]
     X:     3.4505      Y:     0.5210      Z:     0.1913     Total:     3.4949

*** Psi4 exiting successfully. Buy a developer a beer!
