                               Psi4 1.3.2 release

  ==> Input File <==

--------------------------------------------------------------------------
#psi4
#
memory 32 gb

molecule  {
0 1
  O       -2.2266400     1.8867650    -0.0032170
  O       -3.7615920     0.4694410    -0.8736430
  N       -2.7859400    -1.6499310     0.5252010
  N        1.9794570     0.3457110    -0.2591130
  N        3.8978530     1.3104060     0.6447910
  N        4.0160410    -0.8946960    -0.1223760
  C       -0.6937690    -0.3717720     0.7299070
  C       -0.1993830    -0.6671070    -0.6806480
  C       -2.2227870    -0.3377670     0.8339710
  C        1.3098450    -0.8661090    -0.7166530
  C       -2.8261080     0.6730930    -0.1173080
  C        3.2319800     0.2459460     0.0175660
  H       -0.2748670     0.5765650     1.0765220
  H       -0.3365530    -1.1529370     1.4152070
  H       -0.7054620    -1.5600450    -1.0625750
  H       -0.4516800     0.1714660    -1.3406670
  H       -2.4873830     0.0287790     1.8430020
  H        1.5813230    -1.7317920    -0.0895090
  H        1.6134840    -1.1144100    -1.7484380
  H       -3.7640510    -1.5477110     0.2601170
  H       -2.7467370    -2.2384130     1.3547150
  H       -2.6964570     2.4686380    -0.6361950
  H        3.2621090     2.1005400     0.7117460
  H        4.7565350     1.5848730     0.1747350
  H        5.0073770    -0.7866830     0.0488590
  H        3.8938482    -1.3284436    -1.1492258
units angstrom
no_reorient  #important for SAPT in psi4, default
symmetry c1  #important for SAPT in psi4, default
}

set PROPERTIES_ORIGIN ["COM"]
properties('MP2/aug-cc-pvtz', properties = ['dipole'])
--------------------------------------------------------------------------

    Molecular point group: c1
  Charge       = 0
  Multiplicity = 1
  Basis Set: AUG-CC-PVTZ
    Blend: AUG-CC-PVTZ
  Basis Set: (AUG-CC-PVTZ AUX)
    Blend: AUG-CC-PVTZ-JKFIT

    Orbital Energies [Eh]
    ---------------------

    Doubly Occupied:

       1A    -20.609868     2A    -20.547010     3A    -15.592910
       4A    -15.572042     5A    -15.539323     6A    -15.518651
       7A    -11.382300     8A    -11.340800     9A    -11.270716
      10A    -11.237656    11A    -11.212374    12A    -11.201286
      13A     -1.455488    14A     -1.352214    15A     -1.294121
      16A     -1.189279    17A     -1.162510    18A     -1.156020
      19A     -1.046818    20A     -0.973970    21A     -0.892094
      22A     -0.819068    23A     -0.778701    24A     -0.762596
      25A     -0.705823    26A     -0.702843    27A     -0.699216
      28A     -0.689018    29A     -0.655269    30A     -0.638124
      31A     -0.629672    32A     -0.617588    33A     -0.600040
      34A     -0.587061    35A     -0.568630    36A     -0.548841
      37A     -0.539119    38A     -0.520039    39A     -0.491334
      40A     -0.477018    41A     -0.469624    42A     -0.467868
      43A     -0.442993    44A     -0.440145    45A     -0.399166
      46A     -0.391124    47A     -0.349507

  @DF-RHF Final Energy:  -603.11290264806200

   => Energetics <=

    Nuclear Repulsion Energy =            725.2187378669187865
    One-Electron Energy =               -2263.5875282671922832
    Two-Electron Energy =                 935.2558877522116063
    Total Energy =                       -603.1129026480620041
  Basis Set: (AUG-CC-PVTZ AUX)
    Blend: AUG-CC-PVTZ-RI
    Molecular point group: c1

    Geometry (in Angstrom), charge = 0, multiplicity = 1:

       Center              X                  Y                   Z               Mass
    ------------   -----------------  -----------------  -----------------  -----------------
         O           -2.190141660474     1.859220420732     0.004345994235    15.994914619570
         O           -3.725093660474     0.441896420732    -0.866080005765    15.994914619570
         N           -2.749441660474    -1.677475579268     0.532763994235    14.003074004430
         N            2.015955339526     0.318166420732    -0.251550005765    14.003074004430
         N            3.934351339526     1.282861420732     0.652353994235    14.003074004430
         N            4.052539339526    -0.922240579268    -0.114813005765    14.003074004430
         C           -0.657270660474    -0.399316579268     0.737469994235    12.000000000000
         C           -0.162884660474    -0.694651579268    -0.673085005765    12.000000000000
         C           -2.186288660474    -0.365311579268     0.841533994235    12.000000000000
         C            1.346343339526    -0.893653579268    -0.709090005765    12.000000000000
         C           -2.789609660474     0.645548420732    -0.109745005765    12.000000000000
         C            3.268478339526     0.218401420732     0.025128994235    12.000000000000
         H           -0.238368660474     0.549020420732     1.084084994235     1.007825032230
         H           -0.300054660474    -1.180481579268     1.422769994235     1.007825032230
         H           -0.668963660474    -1.587589579268    -1.055012005765     1.007825032230
         H           -0.415181660474     0.143921420732    -1.333104005765     1.007825032230
         H           -2.450884660474     0.001234420732     1.850564994235     1.007825032230
         H            1.617821339526    -1.759336579268    -0.081946005765     1.007825032230
         H            1.649982339526    -1.141954579268    -1.740875005765     1.007825032230
         H           -3.727552660474    -1.575255579268     0.267679994235     1.007825032230
         H           -2.710238660474    -2.265957579268     1.362277994235     1.007825032230
         H           -2.659958660474     2.441093420732    -0.628632005765     1.007825032230
         H            3.298607339526     2.072995420732     0.719308994235     1.007825032230
         H            4.793033339526     1.557328420732     0.182297994235     1.007825032230
         H            5.043875339526    -0.814227579268     0.056421994235     1.007825032230
         H            3.930346539526    -1.355988179268    -1.141662805765     1.007825032230

  Basis Set: AUG-CC-PVTZ
    Blend: AUG-CC-PVTZ
  Basis Set: (AUG-CC-PVTZ AUX)
    Blend: AUG-CC-PVTZ-JKFIT
	 Reference Energy          =    -603.1129026480620041 [Eh]
	 Singles Energy            =      -0.0000000000000000 [Eh]
	 Same-Spin Energy          =      -0.6209079465628528 [Eh]
	 Opposite-Spin Energy      =      -1.9560646135650614 [Eh]
	 Correlation Energy        =      -2.5769725601279143 [Eh]
	 Total Energy              =    -605.6898752081899602 [Eh]

	 ================> DF-SCS-MP2 Energies <==================
	-----------------------------------------------------------
	 SCS Same-Spin Scale       =       0.3333333333333333 [-]
	 SCS Opposite-Spin Scale   =       1.2000000000000000 [-]
	 SCS Same-Spin Energy      =      -0.2069693155209509 [Eh]
	 SCS Opposite-Spin Energy  =      -2.3472775362780736 [Eh]
	 SCS Correlation Energy    =      -2.5542468517990247 [Eh]
	 SCS Total Energy          =    -605.6671494998610115 [Eh]
	-----------------------------------------------------------

  Dipole Moment: [D]
     X:     3.4555      Y:     0.5677      Z:     0.1697     Total:     3.5059

*** Psi4 exiting successfully. Buy a developer a beer!
