                               Psi4 1.3.2 release

  ==> Input File <==

--------------------------------------------------------------------------
#psi4
#
memory 32 gb

molecule  {
0 1
  O       -2.2266400     1.8867650    -0.0032170
  O       -3.7615920     0.4694410    -0.8736430
  N       -2.7859400    -1.6499310     0.5252010
  N        1.9794570     0.3457110    -0.2591130
  N        3.8978530     1.3104060     0.6447910
  N        4.0160410    -0.8946960    -0.1223760
  C       -0.6937690    -0.3717720     0.7299070
  C       -0.1993830    -0.6671070    -0.6806480
  C       -2.3527610    -0.2844228     0.9763126
  C        1.3098450    -0.8661090    -0.7166530
  C       -2.8261080     0.6730930    -0.1173080
  C        3.2319800     0.2459460     0.0175660
  H       -0.2748670     0.5765650     1.0765220
  H       -0.3365530    -1.1529370     1.4152070
  H       -0.7054620    -1.5600450    -1.0625750
  H       -0.4516800     0.1714660    -1.3406670
  H       -2.4873830     0.0287790     1.8430020
  H        1.5813230    -1.7317920    -0.0895090
  H        1.6134840    -1.1144100    -1.7484380
  H       -3.7640510    -1.5477110     0.2601170
  H       -2.7467370    -2.2384130     1.3547150
  H       -2.6964570     2.4686380    -0.6361950
  H        3.2621090     2.1005400     0.7117460
  H        4.7565350     1.5848730     0.1747350
  H        5.0073770    -0.7866830     0.0488590
  H        3.7976690    -1.4866510    -0.9131750
units angstrom
no_reorient  #important for SAPT in psi4, default
symmetry c1  #important for SAPT in psi4, default
}

set PROPERTIES_ORIGIN ["COM"]
properties('MP2/aug-cc-pvtz', properties = ['dipole'])
--------------------------------------------------------------------------

    Molecular point group: c1
  Charge       = 0
  Multiplicity = 1
  Basis Set: AUG-CC-PVTZ
    Blend: AUG-CC-PVTZ
  Basis Set: (AUG-CC-PVTZ AUX)
    Blend: AUG-CC-PVTZ-JKFIT

    Orbital Energies [Eh]
    ---------------------

    Doubly Occupied:

       1A    -20.608826     2A    -20.546227     3A    -15.583054
       4A    -15.571134     5A    -15.544488     6A    -15.514706
       7A    -11.383196     8A    -11.340957     9A    -11.263424
      10A    -11.239120    11A    -11.218176    12A    -11.202576
      13A     -1.454198    14A     -1.351162    15A     -1.294729
      16A     -1.179681    17A     -1.167141    18A     -1.157325
      19A     -1.036597    20A     -0.974876    21A     -0.889409
      22A     -0.820995    23A     -0.792805    24A     -0.765363
      25A     -0.718567    26A     -0.713585    27A     -0.699431
      28A     -0.695253    29A     -0.653742    30A     -0.637221
      31A     -0.629410    32A     -0.616988    33A     -0.605266
      34A     -0.597303    35A     -0.564902    36A     -0.545787
      37A     -0.534330    38A     -0.517611    39A     -0.490149
      40A     -0.476001    41A     -0.469425    42A     -0.454275
      43A     -0.439480    44A     -0.434859    45A     -0.397421
      46A     -0.394623    47A     -0.346380

  @DF-RHF Final Energy:  -603.08111611502034

   => Energetics <=

    Nuclear Repulsion Energy =            723.0857624836419291
    One-Electron Energy =               -2259.2694044965937792
    Two-Electron Energy =                 933.1025258979315140
    Total Energy =                       -603.0811161150203361
  Basis Set: (AUG-CC-PVTZ AUX)
    Blend: AUG-CC-PVTZ-RI
    Molecular point group: c1

    Geometry (in Angstrom), charge = 0, multiplicity = 1:

       Center              X                  Y                   Z               Mass
    ------------   -----------------  -----------------  -----------------  -----------------
         O           -2.180626963665     1.856459635046    -0.006830723795    15.994914619570
         O           -3.715578963665     0.439135635046    -0.877256723795    15.994914619570
         N           -2.739926963665    -1.680236364954     0.521587276205    14.003074004430
         N            2.025470036335     0.315405635046    -0.262726723795    14.003074004430
         N            3.943866036335     1.280100635046     0.641177276205    14.003074004430
         N            4.062054036335    -0.925001364954    -0.125989723795    14.003074004430
         C           -0.647755963665    -0.402077364954     0.726293276205    12.000000000000
         C           -0.153369963665    -0.697412364954    -0.684261723795    12.000000000000
         C           -2.306747963665    -0.314728164954     0.972698876205    12.000000000000
         C            1.355858036335    -0.896414364954    -0.720266723795    12.000000000000
         C           -2.780094963665     0.642787635046    -0.120921723795    12.000000000000
         C            3.277993036335     0.215640635046     0.013952276205    12.000000000000
         H           -0.228853963665     0.546259635046     1.072908276205     1.007825032230
         H           -0.290539963665    -1.183242364954     1.411593276205     1.007825032230
         H           -0.659448963665    -1.590350364954    -1.066188723795     1.007825032230
         H           -0.405666963665     0.141160635046    -1.344280723795     1.007825032230
         H           -2.441369963665    -0.001526364954     1.839388276205     1.007825032230
         H            1.627336036335    -1.762097364954    -0.093122723795     1.007825032230
         H            1.659497036335    -1.144715364954    -1.752051723795     1.007825032230
         H           -3.718037963665    -1.578016364954     0.256503276205     1.007825032230
         H           -2.700723963665    -2.268718364954     1.351101276205     1.007825032230
         H           -2.650443963665     2.438332635046    -0.639808723795     1.007825032230
         H            3.308122036335     2.070234635046     0.708132276205     1.007825032230
         H            4.802548036335     1.554567635046     0.171121276205     1.007825032230
         H            5.053390036335    -0.816988364954     0.045245276205     1.007825032230
         H            3.843682036335    -1.516956364954    -0.916788723795     1.007825032230

  Basis Set: AUG-CC-PVTZ
    Blend: AUG-CC-PVTZ
  Basis Set: (AUG-CC-PVTZ AUX)
    Blend: AUG-CC-PVTZ-JKFIT
	 Reference Energy          =    -603.0811161150203361 [Eh]
	 Singles Energy            =      -0.0000000000000000 [Eh]
	 Same-Spin Energy          =      -0.6205885287406515 [Eh]
	 Opposite-Spin Energy      =      -1.9564576946474017 [Eh]
	 Correlation Energy        =      -2.5770462233880531 [Eh]
	 Total Energy              =    -605.6581623384083741 [Eh]

	 ================> DF-SCS-MP2 Energies <==================
	-----------------------------------------------------------
	 SCS Same-Spin Scale       =       0.3333333333333333 [-]
	 SCS Opposite-Spin Scale   =       1.2000000000000000 [-]
	 SCS Same-Spin Energy      =      -0.2068628429135505 [Eh]
	 SCS Opposite-Spin Energy  =      -2.3477492335768821 [Eh]
	 SCS Correlation Energy    =      -2.5546120764904328 [Eh]
	 SCS Total Energy          =    -605.6357281915107933 [Eh]
	-----------------------------------------------------------

  Dipole Moment: [D]
     X:     3.2945      Y:     0.2863      Z:     0.4348     Total:     3.3354

*** Psi4 exiting successfully. Buy a developer a beer!
