                               Psi4 1.3.2 release

  ==> Input File <==

--------------------------------------------------------------------------
#psi4
#
memory 32 gb

molecule  {
0 1
  O       -2.2266400     1.8867650    -0.0032170
  O       -3.7615920     0.4694410    -0.8736430
  N       -2.7859400    -1.6499310     0.5252010
  N        1.9794570     0.3457110    -0.2591130
  N        3.8978530     1.3104060     0.6447910
  N        4.0160410    -0.8946960    -0.1223760
  C       -0.6937690    -0.3717720     0.7299070
  C       -0.1993830    -0.6671070    -0.6806480
  C       -2.2227870    -0.3377670     0.8339710
  C        1.3098450    -0.8661090    -0.7166530
  C       -2.8261080     0.6730930    -0.1173080
  C        3.2319800     0.2459460     0.0175660
  H       -0.2748670     0.5765650     1.0765220
  H       -0.3365530    -1.1529370     1.4152070
  H       -0.7054620    -1.5600450    -1.0625750
  H       -0.4516800     0.1714660    -1.3406670
  H       -2.4873830     0.0287790     1.8430020
  H        1.5813230    -1.7317920    -0.0895090
  H        1.6134840    -1.1144100    -1.7484380
  H       -3.7640510    -1.5477110     0.2601170
  H       -2.7467370    -2.2384130     1.3547150
  H       -2.6964570     2.4686380    -0.6361950
  H        3.2621090     2.1005400     0.7117460
  H        4.7251296     1.6367375     0.0375352
  H        5.0073770    -0.7866830     0.0488590
  H        3.7976690    -1.4866510    -0.9131750
units angstrom
no_reorient  #important for SAPT in psi4, default
symmetry c1  #important for SAPT in psi4, default
}

set PROPERTIES_ORIGIN ["COM"]
properties('MP2/aug-cc-pvtz', properties = ['dipole'])
--------------------------------------------------------------------------

    Molecular point group: c1
  Charge       = 0
  Multiplicity = 1
  Basis Set: AUG-CC-PVTZ
    Blend: AUG-CC-PVTZ
  Basis Set: (AUG-CC-PVTZ AUX)
    Blend: AUG-CC-PVTZ-JKFIT

    Orbital Energies [Eh]
    ---------------------

    Doubly Occupied:

       1A    -20.610185     2A    -20.547379     3A    -15.583380
       4A    -15.577664     5A    -15.539818     6A    -15.517371
       7A    -11.382677     8A    -11.341098     9A    -11.271195
      10A    -11.239140    11A    -11.212972    12A    -11.202336
      13A     -1.455826    14A     -1.352563    15A     -1.294753
      16A     -1.189769    17A     -1.165131    18A     -1.156671
      19A     -1.047210    20A     -0.974310    21A     -0.892434
      22A     -0.820586    23A     -0.784646    24A     -0.765256
      25A     -0.719033    26A     -0.702273    27A     -0.696055
      28A     -0.681057    29A     -0.656168    30A     -0.635146
      31A     -0.631021    32A     -0.618013    33A     -0.607756
      34A     -0.591930    35A     -0.569706    36A     -0.549893
      37A     -0.542218    38A     -0.519749    39A     -0.492130
      40A     -0.477601    41A     -0.470090    42A     -0.468558
      43A     -0.441284    44A     -0.440554    45A     -0.398783
      46A     -0.391557    47A     -0.349064

  @DF-RHF Final Energy:  -603.12096778802265

   => Energetics <=

    Nuclear Repulsion Energy =            725.5422062488667052
    One-Electron Energy =               -2264.1783341561522320
    Two-Electron Energy =                 935.5151601192628732
    Total Energy =                       -603.1209677880226536
  Basis Set: (AUG-CC-PVTZ AUX)
    Blend: AUG-CC-PVTZ-RI
    Molecular point group: c1

    Geometry (in Angstrom), charge = 0, multiplicity = 1:

       Center              X                  Y                   Z               Mass
    ------------   -----------------  -----------------  -----------------  -----------------
         O           -2.189403151968     1.859835974147     0.003773806805    15.994914619570
         O           -3.724355151968     0.442511974147    -0.866652193195    15.994914619570
         N           -2.748703151968    -1.676860025853     0.532191806805    14.003074004430
         N            2.016693848032     0.318781974147    -0.252122193195    14.003074004430
         N            3.935089848032     1.283476974147     0.651781806805    14.003074004430
         N            4.053277848032    -0.921625025853    -0.115385193195    14.003074004430
         C           -0.656532151968    -0.398701025853     0.736897806805    12.000000000000
         C           -0.162146151968    -0.694036025853    -0.673657193195    12.000000000000
         C           -2.185550151968    -0.364696025853     0.840961806805    12.000000000000
         C            1.347081848032    -0.893038025853    -0.709662193195    12.000000000000
         C           -2.788871151968     0.646163974147    -0.110317193195    12.000000000000
         C            3.269216848032     0.219016974147     0.024556806805    12.000000000000
         H           -0.237630151968     0.549635974147     1.083512806805     1.007825032230
         H           -0.299316151968    -1.179866025853     1.422197806805     1.007825032230
         H           -0.668225151968    -1.586974025853    -1.055584193195     1.007825032230
         H           -0.414443151968     0.144536974147    -1.333676193195     1.007825032230
         H           -2.450146151968     0.001849974147     1.849992806805     1.007825032230
         H            1.618559848032    -1.758721025853    -0.082518193195     1.007825032230
         H            1.650720848032    -1.141339025853    -1.741447193195     1.007825032230
         H           -3.726814151968    -1.574640025853     0.267107806805     1.007825032230
         H           -2.709500151968    -2.265342025853     1.361705806805     1.007825032230
         H           -2.659220151968     2.441708974147    -0.629204193195     1.007825032230
         H            3.299345848032     2.073610974147     0.718736806805     1.007825032230
         H            4.762366448032     1.609808474147     0.044526006805     1.007825032230
         H            5.044613848032    -0.813612025853     0.055849806805     1.007825032230
         H            3.834905848032    -1.513580025853    -0.906184193195     1.007825032230

  Basis Set: AUG-CC-PVTZ
    Blend: AUG-CC-PVTZ
  Basis Set: (AUG-CC-PVTZ AUX)
    Blend: AUG-CC-PVTZ-JKFIT
	 Reference Energy          =    -603.1209677880226536 [Eh]
	 Singles Energy            =      -0.0000000000000000 [Eh]
	 Same-Spin Energy          =      -0.6205810506565159 [Eh]
	 Opposite-Spin Energy      =      -1.9550297845669184 [Eh]
	 Correlation Energy        =      -2.5756108352234346 [Eh]
	 Total Energy              =    -605.6965786232460687 [Eh]

	 ================> DF-SCS-MP2 Energies <==================
	-----------------------------------------------------------
	 SCS Same-Spin Scale       =       0.3333333333333333 [-]
	 SCS Opposite-Spin Scale   =       1.2000000000000000 [-]
	 SCS Same-Spin Energy      =      -0.2068603502188386 [Eh]
	 SCS Opposite-Spin Energy  =      -2.3460357414803021 [Eh]
	 SCS Correlation Energy    =      -2.5528960916991408 [Eh]
	 SCS Total Energy          =    -605.6738638797218073 [Eh]
	-----------------------------------------------------------

  Dipole Moment: [D]
     X:     3.2424      Y:     0.2747      Z:     0.1937     Total:     3.2598

*** Psi4 exiting successfully. Buy a developer a beer!
