                               Psi4 1.3.2 release

  ==> Input File <==

--------------------------------------------------------------------------
#psi4
#
memory 32 gb

molecule  {
0 1
  O       -2.2266400     1.8867650    -0.0032170
  O       -3.7615920     0.4694410    -0.8736430
  N       -2.7859400    -1.6499310     0.5252010
  N        1.9794570     0.3457110    -0.2591130
  N        3.8978530     1.3104060     0.6447910
  N        4.0160410    -0.8946960    -0.1223760
  C       -0.6937690    -0.3717720     0.7299070
  C       -0.1993830    -0.6671070    -0.6806480
  C       -2.2227870    -0.3377670     0.8339710
  C        1.3098450    -0.8661090    -0.7166530
  C       -2.8261080     0.6730930    -0.1173080
  C        3.2319800     0.2459460     0.0175660
  H       -0.2748670     0.5765650     1.0765220
  H       -0.3365530    -1.1529370     1.4152070
  H       -0.7054620    -1.5600450    -1.0625750
  H       -0.4516800     0.1714660    -1.3406670
  H       -2.4873830     0.0287790     1.8430020
  H        1.5813230    -1.7317920    -0.0895090
  H        1.6134840    -1.1144100    -1.7484380
  H       -3.7640510    -1.5477110     0.2601170
  H       -2.7467370    -2.2384130     1.3547150
  H       -2.6964570     2.4686380    -0.6361950
  H        3.2621090     2.1005400     0.7117460
  H        4.6937243     1.6886020    -0.0996646
  H        5.0073770    -0.7866830     0.0488590
  H        3.7976690    -1.4866510    -0.9131750
units angstrom
no_reorient  #important for SAPT in psi4, default
symmetry c1  #important for SAPT in psi4, default
}

set PROPERTIES_ORIGIN ["COM"]
properties('MP2/aug-cc-pvtz', properties = ['dipole'])
--------------------------------------------------------------------------

    Molecular point group: c1
  Charge       = 0
  Multiplicity = 1
  Basis Set: AUG-CC-PVTZ
    Blend: AUG-CC-PVTZ
  Basis Set: (AUG-CC-PVTZ AUX)
    Blend: AUG-CC-PVTZ-JKFIT

    Orbital Energies [Eh]
    ---------------------

    Doubly Occupied:

       1A    -20.610551     2A    -20.547731     3A    -15.585113
       4A    -15.583141     5A    -15.540164     6A    -15.519203
       7A    -11.383036     8A    -11.340941     9A    -11.271598
      10A    -11.239832    11A    -11.213504    12A    -11.202947
      13A     -1.456188    14A     -1.352917    15A     -1.294197
      16A     -1.190133    17A     -1.163701    18A     -1.154037
      19A     -1.047458    20A     -0.974424    21A     -0.892355
      22A     -0.819847    23A     -0.784824    24A     -0.765661
      25A     -0.718923    26A     -0.702564    27A     -0.695413
      28A     -0.671237    29A     -0.656537    30A     -0.633907
      31A     -0.625054    32A     -0.618263    33A     -0.608031
      34A     -0.589327    35A     -0.570113    36A     -0.548918
      37A     -0.543072    38A     -0.517446    39A     -0.492495
      40A     -0.478041    41A     -0.470549    42A     -0.468953
      43A     -0.443760    44A     -0.440994    45A     -0.399674
      46A     -0.392086    47A     -0.350742

  @DF-RHF Final Energy:  -603.10894665970739

   => Energetics <=

    Nuclear Repulsion Energy =            725.2911270700884643
    One-Electron Energy =               -2263.6609434973865973
    Two-Electron Energy =                 935.2608697675908616
    Total Energy =                       -603.1089466597073852
  Basis Set: (AUG-CC-PVTZ AUX)
    Blend: AUG-CC-PVTZ-RI
    Molecular point group: c1

    Geometry (in Angstrom), charge = 0, multiplicity = 1:

       Center              X                  Y                   Z               Mass
    ------------   -----------------  -----------------  -----------------  -----------------
         O           -2.189221366069     1.859535762567     0.004567971770    15.994914619570
         O           -3.724173366069     0.442211762567    -0.865858028230    15.994914619570
         N           -2.748521366069    -1.677160237433     0.532985971770    14.003074004430
         N            2.016875633931     0.318481762567    -0.251328028230    14.003074004430
         N            3.935271633931     1.283176762567     0.652575971770    14.003074004430
         N            4.053459633931    -0.921925237433    -0.114591028230    14.003074004430
         C           -0.656350366069    -0.399001237433     0.737691971770    12.000000000000
         C           -0.161964366069    -0.694336237433    -0.672863028230    12.000000000000
         C           -2.185368366069    -0.364996237433     0.841755971770    12.000000000000
         C            1.347263633931    -0.893338237433    -0.708868028230    12.000000000000
         C           -2.788689366069     0.645863762567    -0.109523028230    12.000000000000
         C            3.269398633931     0.218716762567     0.025350971770    12.000000000000
         H           -0.237448366069     0.549335762567     1.084306971770     1.007825032230
         H           -0.299134366069    -1.180166237433     1.422991971770     1.007825032230
         H           -0.668043366069    -1.587274237433    -1.054790028230     1.007825032230
         H           -0.414261366069     0.144236762567    -1.332882028230     1.007825032230
         H           -2.449964366069     0.001549762567     1.850786971770     1.007825032230
         H            1.618741633931    -1.759021237433    -0.081724028230     1.007825032230
         H            1.650902633931    -1.141639237433    -1.740653028230     1.007825032230
         H           -3.726632366069    -1.574940237433     0.267901971770     1.007825032230
         H           -2.709318366069    -2.265642237433     1.362499971770     1.007825032230
         H           -2.659038366069     2.441408762567    -0.628410028230     1.007825032230
         H            3.299527633931     2.073310762567     0.719530971770     1.007825032230
         H            4.731142933931     1.661372762567    -0.091879628230     1.007825032230
         H            5.044795633931    -0.813912237433     0.056643971770     1.007825032230
         H            3.835087633931    -1.513880237433    -0.905390028230     1.007825032230

  Basis Set: AUG-CC-PVTZ
    Blend: AUG-CC-PVTZ
  Basis Set: (AUG-CC-PVTZ AUX)
    Blend: AUG-CC-PVTZ-JKFIT
	 Reference Energy          =    -603.1089466597073852 [Eh]
	 Singles Energy            =      -0.0000000000000000 [Eh]
	 Same-Spin Energy          =      -0.6209772104604072 [Eh]
	 Opposite-Spin Energy      =      -1.9566874437018389 [Eh]
	 Correlation Energy        =      -2.5776646541622461 [Eh]
	 Total Energy              =    -605.6866113138696619 [Eh]

	 ================> DF-SCS-MP2 Energies <==================
	-----------------------------------------------------------
	 SCS Same-Spin Scale       =       0.3333333333333333 [-]
	 SCS Opposite-Spin Scale   =       1.2000000000000000 [-]
	 SCS Same-Spin Energy      =      -0.2069924034868024 [Eh]
	 SCS Opposite-Spin Energy  =      -2.3480249324422067 [Eh]
	 SCS Correlation Energy    =      -2.5550173359290089 [Eh]
	 SCS Total Energy          =    -605.6639639956364363 [Eh]
	-----------------------------------------------------------

  Dipole Moment: [D]
     X:     3.0630      Y:     0.2517      Z:     0.0774     Total:     3.0743

*** Psi4 exiting successfully. Buy a developer a beer!
