                               Psi4 1.3.2 release

  ==> Input File <==

--------------------------------------------------------------------------
#psi4
#
memory 32 gb

molecule  {
0 1
  O       -2.2266400     1.8867650    -0.0032170
  O       -3.7615920     0.4694410    -0.8736430
  N       -2.7859400    -1.6499310     0.5252010
  N        1.9794570     0.3457110    -0.2591130
  N        3.8978530     1.3104060     0.6447910
  N        4.0160410    -0.8946960    -0.1223760
  C       -0.6937690    -0.3717720     0.7299070
  C       -0.1993830    -0.6671070    -0.6806480
  C       -2.3202675    -0.2977588     0.9407272
  C        1.3098450    -0.8661090    -0.7166530
  C       -2.8261080     0.6730930    -0.1173080
  C        3.2319800     0.2459460     0.0175660
  H       -0.2748670     0.5765650     1.0765220
  H       -0.3365530    -1.1529370     1.4152070
  H       -0.7054620    -1.5600450    -1.0625750
  H       -0.4516800     0.1714660    -1.3406670
  H       -2.4873830     0.0287790     1.8430020
  H        1.5813230    -1.7317920    -0.0895090
  H        1.6134840    -1.1144100    -1.7484380
  H       -3.7640510    -1.5477110     0.2601170
  H       -2.7467370    -2.2384130     1.3547150
  H       -2.6964570     2.4686380    -0.6361950
  H        3.2621090     2.1005400     0.7117460
  H        4.7565350     1.5848730     0.1747350
  H        5.0073770    -0.7866830     0.0488590
  H        3.7976690    -1.4866510    -0.9131750
units angstrom
no_reorient  #important for SAPT in psi4, default
symmetry c1  #important for SAPT in psi4, default
}

set PROPERTIES_ORIGIN ["COM"]
properties('MP2/aug-cc-pvtz', properties = ['dipole'])
--------------------------------------------------------------------------

    Molecular point group: c1
  Charge       = 0
  Multiplicity = 1
  Basis Set: AUG-CC-PVTZ
    Blend: AUG-CC-PVTZ
  Basis Set: (AUG-CC-PVTZ AUX)
    Blend: AUG-CC-PVTZ-JKFIT

    Orbital Energies [Eh]
    ---------------------

    Doubly Occupied:

       1A    -20.609190     2A    -20.546504     3A    -15.583102
       4A    -15.571209     5A    -15.542836     6A    -15.514781
       7A    -11.382543     8A    -11.341043     9A    -11.264645
      10A    -11.238847    11A    -11.216559    12A    -11.202191
      13A     -1.454624    14A     -1.351495    15A     -1.294791
      16A     -1.182375    17A     -1.167203    18A     -1.157373
      19A     -1.038475    20A     -0.974180    21A     -0.889976
      22A     -0.820244    23A     -0.789848    24A     -0.764958
      25A     -0.718606    26A     -0.709438    27A     -0.699997
      28A     -0.694528    29A     -0.655521    30A     -0.637419
      31A     -0.629744    32A     -0.617166    33A     -0.605185
      34A     -0.596344    35A     -0.566278    36A     -0.547317
      37A     -0.535927    38A     -0.518252    39A     -0.490750
      40A     -0.476254    41A     -0.469555    42A     -0.456895
      43A     -0.439451    44A     -0.435726    45A     -0.399413
      46A     -0.394941    47A     -0.346439

  @DF-RHF Final Energy:  -603.10173971026131

   => Energetics <=

    Nuclear Repulsion Energy =            723.7726655643763252
    One-Electron Energy =               -2260.6685323064302793
    Two-Electron Energy =                 933.7941270317925273
    Total Energy =                       -603.1017397102613131
  Basis Set: (AUG-CC-PVTZ AUX)
    Blend: AUG-CC-PVTZ-RI
    Molecular point group: c1

    Geometry (in Angstrom), charge = 0, multiplicity = 1:

       Center              X                  Y                   Z               Mass
    ------------   -----------------  -----------------  -----------------  -----------------
         O           -2.182866457360     1.857378769271    -0.004378132386    15.994914619570
         O           -3.717818457360     0.440054769271    -0.874804132386    15.994914619570
         N           -2.742166457360    -1.679317230729     0.524039867614    14.003074004430
         N            2.023230542640     0.316324769271    -0.260274132386    14.003074004430
         N            3.941626542640     1.281019769271     0.643629867614    14.003074004430
         N            4.059814542640    -0.924082230729    -0.123537132386    14.003074004430
         C           -0.649995457360    -0.401158230729     0.728745867614    12.000000000000
         C           -0.155609457360    -0.696493230729    -0.681809132386    12.000000000000
         C           -2.276493957360    -0.327145030729     0.939566067614    12.000000000000
         C            1.353618542640    -0.895495230729    -0.717814132386    12.000000000000
         C           -2.782334457360     0.643706769271    -0.118469132386    12.000000000000
         C            3.275753542640     0.216559769271     0.016404867614    12.000000000000
         H           -0.231093457360     0.547178769271     1.075360867614     1.007825032230
         H           -0.292779457360    -1.182323230729     1.414045867614     1.007825032230
         H           -0.661688457360    -1.589431230729    -1.063736132386     1.007825032230
         H           -0.407906457360     0.142079769271    -1.341828132386     1.007825032230
         H           -2.443609457360    -0.000607230729     1.841840867614     1.007825032230
         H            1.625096542640    -1.761178230729    -0.090670132386     1.007825032230
         H            1.657257542640    -1.143796230729    -1.749599132386     1.007825032230
         H           -3.720277457360    -1.577097230729     0.258955867614     1.007825032230
         H           -2.702963457360    -2.267799230729     1.353553867614     1.007825032230
         H           -2.652683457360     2.439251769271    -0.637356132386     1.007825032230
         H            3.305882542640     2.071153769271     0.710584867614     1.007825032230
         H            4.800308542640     1.555486769271     0.173573867614     1.007825032230
         H            5.051150542640    -0.816069230729     0.047697867614     1.007825032230
         H            3.841442542640    -1.516037230729    -0.914336132386     1.007825032230

  Basis Set: AUG-CC-PVTZ
    Blend: AUG-CC-PVTZ
  Basis Set: (AUG-CC-PVTZ AUX)
    Blend: AUG-CC-PVTZ-JKFIT
	 Reference Energy          =    -603.1017397102613131 [Eh]
	 Singles Energy            =      -0.0000000000000000 [Eh]
	 Same-Spin Energy          =      -0.6203047380572595 [Eh]
	 Opposite-Spin Energy      =      -1.9552575395205087 [Eh]
	 Correlation Energy        =      -2.5755622775777685 [Eh]
	 Total Energy              =    -605.6773019878390869 [Eh]

	 ================> DF-SCS-MP2 Energies <==================
	-----------------------------------------------------------
	 SCS Same-Spin Scale       =       0.3333333333333333 [-]
	 SCS Opposite-Spin Scale   =       1.2000000000000000 [-]
	 SCS Same-Spin Energy      =      -0.2067682460190865 [Eh]
	 SCS Opposite-Spin Energy  =      -2.3463090474246102 [Eh]
	 SCS Correlation Energy    =      -2.5530772934436969 [Eh]
	 SCS Total Energy          =    -605.6548170037050340 [Eh]
	-----------------------------------------------------------

  Dipole Moment: [D]
     X:     3.3103      Y:     0.2968      Z:     0.4241     Total:     3.3505

*** Psi4 exiting successfully. Buy a developer a beer!
