                               Psi4 1.3.2 release

  ==> Input File <==

--------------------------------------------------------------------------
#psi4
#
memory 32 gb

molecule  {
0 1
  O       -2.2266400     1.8867650    -0.0032170
  O       -3.7615920     0.4694410    -0.8736430
  N       -2.7859400    -1.6499310     0.5252010
  N        1.9794570     0.3457110    -0.2591130
  N        3.8978530     1.3104060     0.6447910
  N        4.0945402    -0.7958101    -0.3945147
  C       -0.6937690    -0.3717720     0.7299070
  C       -0.1993830    -0.6671070    -0.6806480
  C       -2.2227870    -0.3377670     0.8339710
  C        1.3098450    -0.8661090    -0.7166530
  C       -2.8261080     0.6730930    -0.1173080
  C        3.2319800     0.2459460     0.0175660
  H       -0.2748670     0.5765650     1.0765220
  H       -0.3365530    -1.1529370     1.4152070
  H       -0.7054620    -1.5600450    -1.0625750
  H       -0.4516800     0.1714660    -1.3406670
  H       -2.4873830     0.0287790     1.8430020
  H        1.5813230    -1.7317920    -0.0895090
  H        1.6134840    -1.1144100    -1.7484380
  H       -3.7640510    -1.5477110     0.2601170
  H       -2.7467370    -2.2384130     1.3547150
  H       -2.6964570     2.4686380    -0.6361950
  H        3.2621090     2.1005400     0.7117460
  H        4.7565350     1.5848730     0.1747350
  H        5.0073770    -0.7866830     0.0488590
  H        3.7976690    -1.4866510    -0.9131750
units angstrom
no_reorient  #important for SAPT in psi4, default
symmetry c1  #important for SAPT in psi4, default
}

set PROPERTIES_ORIGIN ["COM"]
properties('MP2/aug-cc-pvtz', properties = ['dipole'])
--------------------------------------------------------------------------

    Molecular point group: c1
  Charge       = 0
  Multiplicity = 1
  Basis Set: AUG-CC-PVTZ
    Blend: AUG-CC-PVTZ
  Basis Set: (AUG-CC-PVTZ AUX)
    Blend: AUG-CC-PVTZ-JKFIT

    Orbital Energies [Eh]
    ---------------------

    Doubly Occupied:

       1A    -20.610071     2A    -20.547317     3A    -15.574316
       4A    -15.572055     5A    -15.539939     6A    -15.513921
       7A    -11.382626     8A    -11.345833     9A    -11.271195
      10A    -11.239739    11A    -11.212875    12A    -11.202351
      13A     -1.455731    14A     -1.352483    15A     -1.292989
      16A     -1.189864    17A     -1.173456    18A     -1.158274
      19A     -1.047481    20A     -0.974771    21A     -0.893291
      22A     -0.825805    23A     -0.793671    24A     -0.767270
      25A     -0.730463    26A     -0.702973    27A     -0.701203
      28A     -0.690900    29A     -0.657050    30A     -0.636738
      31A     -0.631495    32A     -0.618234    33A     -0.613453
      34A     -0.595362    35A     -0.571162    36A     -0.554353
      37A     -0.542361    38A     -0.522302    39A     -0.491057
      40A     -0.477365    41A     -0.470817    42A     -0.467394
      43A     -0.440608    44A     -0.430168    45A     -0.398081
      46A     -0.391276    47A     -0.345853

  @DF-RHF Final Energy:  -603.11605193441687

   => Energetics <=

    Nuclear Repulsion Energy =            725.1452638411639100
    One-Electron Energy =               -2263.2866497384197828
    Two-Electron Energy =                 935.0253339628391132
    Total Energy =                       -603.1160519344168733
  Basis Set: (AUG-CC-PVTZ AUX)
    Blend: AUG-CC-PVTZ-RI
    Molecular point group: c1

    Geometry (in Angstrom), charge = 0, multiplicity = 1:

       Center              X                  Y                   Z               Mass
    ------------   -----------------  -----------------  -----------------  -----------------
         O           -2.195898300846     1.852183206296     0.024866619494    15.994914619570
         O           -3.730850300846     0.434859206296    -0.845559380506    15.994914619570
         N           -2.755198300846    -1.684512793704     0.553284619494    14.003074004430
         N            2.010198699154     0.311129206296    -0.231029380506    14.003074004430
         N            3.928594699154     1.275824206296     0.672874619494    14.003074004430
         N            4.125281899154    -0.830391893704    -0.366431080506    14.003074004430
         C           -0.663027300846    -0.406353793704     0.757990619494    12.000000000000
         C           -0.168641300846    -0.701688793704    -0.652564380506    12.000000000000
         C           -2.192045300846    -0.372348793704     0.862054619494    12.000000000000
         C            1.340586699154    -0.900690793704    -0.688569380506    12.000000000000
         C           -2.795366300846     0.638511206296    -0.089224380506    12.000000000000
         C            3.262721699154     0.211364206296     0.045649619494    12.000000000000
         H           -0.244125300846     0.541983206296     1.104605619494     1.007825032230
         H           -0.305811300846    -1.187518793704     1.443290619494     1.007825032230
         H           -0.674720300846    -1.594626793704    -1.034491380506     1.007825032230
         H           -0.420938300846     0.136884206296    -1.312583380506     1.007825032230
         H           -2.456641300846    -0.005802793704     1.871085619494     1.007825032230
         H            1.612064699154    -1.766373793704    -0.061425380506     1.007825032230
         H            1.644225699154    -1.148991793704    -1.720354380506     1.007825032230
         H           -3.733309300846    -1.582292793704     0.288200619494     1.007825032230
         H           -2.715995300846    -2.272994793704     1.382798619494     1.007825032230
         H           -2.665715300846     2.434056206296    -0.608111380506     1.007825032230
         H            3.292850699154     2.065958206296     0.739829619494     1.007825032230
         H            4.787276699154     1.550291206296     0.202818619494     1.007825032230
         H            5.038118699154    -0.821264793704     0.076942619494     1.007825032230
         H            3.828410699154    -1.521232793704    -0.885091380506     1.007825032230

  Basis Set: AUG-CC-PVTZ
    Blend: AUG-CC-PVTZ
  Basis Set: (AUG-CC-PVTZ AUX)
    Blend: AUG-CC-PVTZ-JKFIT
	 Reference Energy          =    -603.1160519344168733 [Eh]
	 Singles Energy            =      -0.0000000000000000 [Eh]
	 Same-Spin Energy          =      -0.6197467499494398 [Eh]
	 Opposite-Spin Energy      =      -1.9526127840273149 [Eh]
	 Correlation Energy        =      -2.5723595339767549 [Eh]
	 Total Energy              =    -605.6884114683936104 [Eh]

	 ================> DF-SCS-MP2 Energies <==================
	-----------------------------------------------------------
	 SCS Same-Spin Scale       =       0.3333333333333333 [-]
	 SCS Opposite-Spin Scale   =       1.2000000000000000 [-]
	 SCS Same-Spin Energy      =      -0.2065822499831466 [Eh]
	 SCS Opposite-Spin Energy  =      -2.3431353408327777 [Eh]
	 SCS Correlation Energy    =      -2.5497175908159244 [Eh]
	 SCS Total Energy          =    -605.6657695252328040 [Eh]
	-----------------------------------------------------------

  Dipole Moment: [D]
     X:     3.2003      Y:    -0.0165      Z:     0.9503     Total:     3.3384

*** Psi4 exiting successfully. Buy a developer a beer!
