                               Psi4 1.3.2 release

  ==> Input File <==

--------------------------------------------------------------------------
#psi4
#
memory 32 gb

molecule  {
0 1
  O        3.0005300    -1.5493530     0.0754490
  N        0.8317470    -1.1153310    -0.4215630
  C        0.2218810     2.0525347    -0.2244207
  C        1.6857700     1.6448450    -0.3508570
  C       -0.7674710     0.7851500    -0.1025020
  C        2.1481850     0.6250380     0.6971500
  C       -0.4596220    -0.5879500    -0.1790540
  C        2.0510250    -0.7686880     0.1361100
  C       -2.1103850     1.1321340     0.1249900
  C       -1.4919760    -1.5397800    -0.0852490
  C       -3.1313420     0.1920050     0.2149350
  C       -2.8150140    -1.1632860     0.1069400
  H       -0.1141940     2.5504580    -1.1051150
  H        0.0480080     2.5950730     0.6372840
  H        1.9308140     1.2745600    -1.3520490
  H        2.2359360     2.5841340    -0.2253410
  H        1.5370720     0.7103830     1.6057590
  H        3.1934550     0.7649280     0.9813470
  H        0.8461440    -2.0798130    -0.7458600
  H       -2.3558010     2.1909910     0.2008090
  H       -1.2325710    -2.5958500    -0.1409630
  H       -4.1571650     0.5114050     0.3790120
  H       -3.5892060    -1.9233590     0.1747080
units angstrom
no_reorient  #important for SAPT in psi4, default
symmetry c1  #important for SAPT in psi4, default
}

set PROPERTIES_ORIGIN ["COM"]
properties('MP2/aug-cc-pvtz', properties = ['dipole'])
--------------------------------------------------------------------------

    Molecular point group: c1
  Charge       = 0
  Multiplicity = 1
  Basis Set: AUG-CC-PVTZ
    Blend: AUG-CC-PVTZ
  Basis Set: (AUG-CC-PVTZ AUX)
    Blend: AUG-CC-PVTZ-JKFIT

    Orbital Energies [Eh]
    ---------------------

    Doubly Occupied:

       1A    -20.525621     2A    -15.595474     3A    -11.356886
       4A    -11.297172     5A    -11.256385     6A    -11.245784
       7A    -11.243888     8A    -11.243819     9A    -11.243672
      10A    -11.243552    11A    -11.241882    12A    -11.238724
      13A     -1.379967    14A     -1.251820    15A     -1.148530
      16A     -1.099186    17A     -1.033667    18A     -1.015193
      19A     -0.961651    20A     -0.876585    21A     -0.840347
      22A     -0.812716    23A     -0.765276    24A     -0.721814
      25A     -0.682375    26A     -0.667163    27A     -0.645156
      28A     -0.627788    29A     -0.616786    30A     -0.608911
      31A     -0.600533    32A     -0.574840    33A     -0.561996
      34A     -0.542733    35A     -0.518223    36A     -0.511476
      37A     -0.506016    38A     -0.496528    39A     -0.463170
      40A     -0.434565    41A     -0.426539    42A     -0.341808
      43A     -0.315893

  @DF-RHF Final Energy:  -514.58547866556671

   => Energetics <=

    Nuclear Repulsion Energy =            673.2992349531325544
    One-Electron Energy =               -2034.2052061938456973
    Two-Electron Energy =                 846.3204925751464316
    Total Energy =                       -514.5854786655667112
  Basis Set: (AUG-CC-PVTZ AUX)
    Blend: AUG-CC-PVTZ-RI
    Molecular point group: c1

    Geometry (in Angstrom), charge = 0, multiplicity = 1:

       Center              X                  Y                   Z               Mass
    ------------   -----------------  -----------------  -----------------  -----------------
         O            2.988471886640    -1.516442372659     0.076858660925    15.994914619570
         N            0.819688886640    -1.082420372659    -0.420153339075    14.003074004430
         C            0.209822886640     2.085445327341    -0.223011039075    12.000000000000
         C            1.673711886640     1.677755627341    -0.349447339075    12.000000000000
         C           -0.779529113360     0.818060627341    -0.101092339075    12.000000000000
         C            2.136126886640     0.657948627341     0.698559660925    12.000000000000
         C           -0.471680113360    -0.555039372659    -0.177644339075    12.000000000000
         C            2.038966886640    -0.735777372659     0.137519660925    12.000000000000
         C           -2.122443113360     1.165044627341     0.126399660925    12.000000000000
         C           -1.504034113360    -1.506869372659    -0.083839339075    12.000000000000
         C           -3.143400113360     0.224915627341     0.216344660925    12.000000000000
         C           -2.827072113360    -1.130375372659     0.108349660925    12.000000000000
         H           -0.126252113360     2.583368627341    -1.103705339075     1.007825032230
         H            0.035949886640     2.627983627341     0.638693660925     1.007825032230
         H            1.918755886640     1.307470627341    -1.350639339075     1.007825032230
         H            2.223877886640     2.617044627341    -0.223931339075     1.007825032230
         H            1.525013886640     0.743293627341     1.607168660925     1.007825032230
         H            3.181396886640     0.797838627341     0.982756660925     1.007825032230
         H            0.834085886640    -2.046902372659    -0.744450339075     1.007825032230
         H           -2.367859113360     2.223901627341     0.202218660925     1.007825032230
         H           -1.244629113360    -2.562939372659    -0.139553339075     1.007825032230
         H           -4.169223113360     0.544315627341     0.380421660925     1.007825032230
         H           -3.601264113360    -1.890448372659     0.176117660925     1.007825032230

  Basis Set: AUG-CC-PVTZ
    Blend: AUG-CC-PVTZ
  Basis Set: (AUG-CC-PVTZ AUX)
    Blend: AUG-CC-PVTZ-JKFIT
	 Reference Energy          =    -514.5854786655667112 [Eh]
	 Singles Energy            =      -0.0000000000000000 [Eh]
	 Same-Spin Energy          =      -0.5574391804673502 [Eh]
	 Opposite-Spin Energy      =      -1.7427594016818087 [Eh]
	 Correlation Energy        =      -2.3001985821491591 [Eh]
	 Total Energy              =    -516.8856772477158756 [Eh]

	 ================> DF-SCS-MP2 Energies <==================
	-----------------------------------------------------------
	 SCS Same-Spin Scale       =       0.3333333333333333 [-]
	 SCS Opposite-Spin Scale   =       1.2000000000000000 [-]
	 SCS Same-Spin Energy      =      -0.1858130601557834 [Eh]
	 SCS Opposite-Spin Energy  =      -2.0913112820181703 [Eh]
	 SCS Correlation Energy    =      -2.2771243421739538 [Eh]
	 SCS Total Energy          =    -516.8626030077406313 [Eh]
	-----------------------------------------------------------

  Dipole Moment: [D]
     X:    -2.7258      Y:     2.0929      Z:     0.0476     Total:     3.4369

*** Psi4 exiting successfully. Buy a developer a beer!
