                               Psi4 1.3.2 release

  ==> Input File <==

--------------------------------------------------------------------------
#psi4
#
memory 32 gb

molecule  {
0 1
  O        3.0005300    -1.5493530     0.0754490
  N        0.8317470    -1.1153310    -0.4215630
  C        0.1960040     1.9504030    -0.2395030
  C        1.6857700     1.6448450    -0.3508570
  C       -0.7674710     0.7851500    -0.1025020
  C        2.1481850     0.6250380     0.6971500
  C       -0.6030568    -0.6134735    -0.1559365
  C        2.0510250    -0.7686880     0.1361100
  C       -2.1103850     1.1321340     0.1249900
  C       -1.4919760    -1.5397800    -0.0852490
  C       -3.1313420     0.1920050     0.2149350
  C       -2.8150140    -1.1632860     0.1069400
  H       -0.1141940     2.5504580    -1.1051150
  H        0.0480080     2.5950730     0.6372840
  H        1.9308140     1.2745600    -1.3520490
  H        2.2359360     2.5841340    -0.2253410
  H        1.5370720     0.7103830     1.6057590
  H        3.1934550     0.7649280     0.9813470
  H        0.8461440    -2.0798130    -0.7458600
  H       -2.3558010     2.1909910     0.2008090
  H       -1.2325710    -2.5958500    -0.1409630
  H       -4.1571650     0.5114050     0.3790120
  H       -3.5892060    -1.9233590     0.1747080
units angstrom
no_reorient  #important for SAPT in psi4, default
symmetry c1  #important for SAPT in psi4, default
}

set PROPERTIES_ORIGIN ["COM"]
properties('MP2/aug-cc-pvtz', properties = ['dipole'])
--------------------------------------------------------------------------

    Molecular point group: c1
  Charge       = 0
  Multiplicity = 1
  Basis Set: AUG-CC-PVTZ
    Blend: AUG-CC-PVTZ
  Basis Set: (AUG-CC-PVTZ AUX)
    Blend: AUG-CC-PVTZ-JKFIT

    Orbital Energies [Eh]
    ---------------------

    Doubly Occupied:

       1A    -20.516649     2A    -15.583164     3A    -11.348655
       4A    -11.293141     5A    -11.261081     6A    -11.250907
       7A    -11.250191     8A    -11.247553     9A    -11.243973
      10A    -11.241012    11A    -11.238644    12A    -11.236380
      13A     -1.369703    14A     -1.228613    15A     -1.159378
      16A     -1.103850    17A     -1.041575    18A     -1.030982
      19A     -0.958750    20A     -0.877093    21A     -0.840972
      22A     -0.805680    23A     -0.765943    24A     -0.713035
      25A     -0.676654    26A     -0.658369    27A     -0.648363
      28A     -0.634897    29A     -0.609581    30A     -0.607842
      31A     -0.597502    32A     -0.571607    33A     -0.561965
      34A     -0.543256    35A     -0.517190    36A     -0.508622
      37A     -0.500732    38A     -0.496675    39A     -0.483185
      40A     -0.422824    41A     -0.416524    42A     -0.351232
      43A     -0.326999

  @DF-RHF Final Energy:  -514.56923766878572

   => Energetics <=

    Nuclear Repulsion Energy =            674.7946446364801432
    One-Electron Energy =               -2037.2458719811206720
    Two-Electron Energy =                 847.8819896758548111
    Total Energy =                       -514.5692376687857177
  Basis Set: (AUG-CC-PVTZ AUX)
    Blend: AUG-CC-PVTZ-RI
    Molecular point group: c1

    Geometry (in Angstrom), charge = 0, multiplicity = 1:

       Center              X                  Y                   Z               Mass
    ------------   -----------------  -----------------  -----------------  -----------------
         O            3.001084814014    -1.506932664733     0.076260076573    15.994914619570
         N            0.832301814014    -1.072910664733    -0.420751923427    14.003074004430
         C            0.196558814014     1.992823335267    -0.238691923427    12.000000000000
         C            1.686324814014     1.687265335267    -0.350045923427    12.000000000000
         C           -0.766916185986     0.827570335267    -0.101690923427    12.000000000000
         C            2.148739814014     0.667458335267     0.697961076573    12.000000000000
         C           -0.602501985986    -0.571053164733    -0.155125423427    12.000000000000
         C            2.051579814014    -0.726267664733     0.136921076573    12.000000000000
         C           -2.109830185986     1.174554335267     0.125801076573    12.000000000000
         C           -1.491421185986    -1.497359664733    -0.084437923427    12.000000000000
         C           -3.130787185986     0.234425335267     0.215746076573    12.000000000000
         C           -2.814459185986    -1.120865664733     0.107751076573    12.000000000000
         H           -0.113639185986     2.592878335267    -1.104303923427     1.007825032230
         H            0.048562814014     2.637493335267     0.638095076573     1.007825032230
         H            1.931368814014     1.316980335267    -1.351237923427     1.007825032230
         H            2.236490814014     2.626554335267    -0.224529923427     1.007825032230
         H            1.537626814014     0.752803335267     1.606570076573     1.007825032230
         H            3.194009814014     0.807348335267     0.982158076573     1.007825032230
         H            0.846698814014    -2.037392664733    -0.745048923427     1.007825032230
         H           -2.355246185986     2.233411335267     0.201620076573     1.007825032230
         H           -1.232016185986    -2.553429664733    -0.140151923427     1.007825032230
         H           -4.156610185986     0.553825335267     0.379823076573     1.007825032230
         H           -3.588651185986    -1.880938664733     0.175519076573     1.007825032230

  Basis Set: AUG-CC-PVTZ
    Blend: AUG-CC-PVTZ
  Basis Set: (AUG-CC-PVTZ AUX)
    Blend: AUG-CC-PVTZ-JKFIT
	 Reference Energy          =    -514.5692376687857177 [Eh]
	 Singles Energy            =      -0.0000000000000000 [Eh]
	 Same-Spin Energy          =      -0.5575401810322131 [Eh]
	 Opposite-Spin Energy      =      -1.7432982557669867 [Eh]
	 Correlation Energy        =      -2.3008384367992001 [Eh]
	 Total Energy              =    -516.8700761055848716 [Eh]

	 ================> DF-SCS-MP2 Energies <==================
	-----------------------------------------------------------
	 SCS Same-Spin Scale       =       0.3333333333333333 [-]
	 SCS Opposite-Spin Scale   =       1.2000000000000000 [-]
	 SCS Same-Spin Energy      =      -0.1858467270107377 [Eh]
	 SCS Opposite-Spin Energy  =      -2.0919579069203840 [Eh]
	 SCS Correlation Energy    =      -2.2778046339311215 [Eh]
	 SCS Total Energy          =    -516.8470423027168863 [Eh]
	-----------------------------------------------------------

  Dipole Moment: [D]
     X:    -3.4186      Y:     2.2339      Z:     0.1092     Total:     4.0852

*** Psi4 exiting successfully. Buy a developer a beer!
