                               Psi4 1.3.2 release

  ==> Input File <==

--------------------------------------------------------------------------
#psi4
#
memory 32 gb

molecule  {
0 1
  O        3.0005300    -1.5493530     0.0754490
  N        0.8317470    -1.1153310    -0.4215630
  C        0.1960040     1.9504030    -0.2395030
  C        1.6857700     1.6448450    -0.3508570
  C       -0.7674710     0.7851500    -0.1025020
  C        2.1481850     0.6250380     0.6971500
  C       -0.4377774    -0.6853836    -0.1844860
  C        2.0510250    -0.7686880     0.1361100
  C       -2.1103850     1.1321340     0.1249900
  C       -1.4919760    -1.5397800    -0.0852490
  C       -3.1313420     0.1920050     0.2149350
  C       -2.8150140    -1.1632860     0.1069400
  H       -0.1141940     2.5504580    -1.1051150
  H        0.0480080     2.5950730     0.6372840
  H        1.9308140     1.2745600    -1.3520490
  H        2.2359360     2.5841340    -0.2253410
  H        1.5370720     0.7103830     1.6057590
  H        3.1934550     0.7649280     0.9813470
  H        0.8461440    -2.0798130    -0.7458600
  H       -2.3558010     2.1909910     0.2008090
  H       -1.2325710    -2.5958500    -0.1409630
  H       -4.1571650     0.5114050     0.3790120
  H       -3.5892060    -1.9233590     0.1747080
units angstrom
no_reorient  #important for SAPT in psi4, default
symmetry c1  #important for SAPT in psi4, default
}

set PROPERTIES_ORIGIN ["COM"]
properties('MP2/aug-cc-pvtz', properties = ['dipole'])
--------------------------------------------------------------------------

    Molecular point group: c1
  Charge       = 0
  Multiplicity = 1
  Basis Set: AUG-CC-PVTZ
    Blend: AUG-CC-PVTZ
  Basis Set: (AUG-CC-PVTZ AUX)
    Blend: AUG-CC-PVTZ-JKFIT

    Orbital Energies [Eh]
    ---------------------

    Doubly Occupied:

       1A    -20.531612     2A    -15.599838     3A    -11.363216
       4A    -11.298767     5A    -11.261610     6A    -11.245031
       7A    -11.244589     8A    -11.244279     9A    -11.242953
      10A    -11.241657    11A    -11.237309    12A    -11.236778
      13A     -1.386429    14A     -1.269395    15A     -1.146377
      16A     -1.103462    17A     -1.034000    18A     -1.021199
      19A     -0.952899    20A     -0.886856    21A     -0.837625
      22A     -0.807886    23A     -0.772717    24A     -0.726904
      25A     -0.684963    26A     -0.670067    27A     -0.648035
      28A     -0.626672    29A     -0.612508    30A     -0.605650
      31A     -0.602508    32A     -0.576137    33A     -0.565492
      34A     -0.544378    35A     -0.516016    36A     -0.509450
      37A     -0.498847    38A     -0.486855    39A     -0.480495
      40A     -0.440715    41A     -0.431502    42A     -0.341491
      43A     -0.305239

  @DF-RHF Final Energy:  -514.58146409420647

   => Energetics <=

    Nuclear Repulsion Energy =            674.6467458405351181
    One-Electron Energy =               -2036.7756074275594074
    Two-Electron Energy =                 847.5473974928179359
    Total Energy =                       -514.5814640942064671
  Basis Set: (AUG-CC-PVTZ AUX)
    Blend: AUG-CC-PVTZ-RI
    Molecular point group: c1

    Geometry (in Angstrom), charge = 0, multiplicity = 1:

       Center              X                  Y                   Z               Mass
    ------------   -----------------  -----------------  -----------------  -----------------
         O            2.988772281346    -1.501575702793     0.078386879135    15.994914619570
         N            0.819989281346    -1.067553702793    -0.418625120865    14.003074004430
         C            0.184246281346     1.998180297207    -0.236565120865    12.000000000000
         C            1.674012281346     1.692622297207    -0.347919120865    12.000000000000
         C           -0.779228718654     0.832927297207    -0.099564120865    12.000000000000
         C            2.136427281346     0.672815297207     0.700087879135    12.000000000000
         C           -0.449535118654    -0.637606302793    -0.181548120865    12.000000000000
         C            2.039267281346    -0.720910702793     0.139047879135    12.000000000000
         C           -2.122142718654     1.179911297207     0.127927879135    12.000000000000
         C           -1.503733718654    -1.492002702793    -0.082311120865    12.000000000000
         C           -3.143099718654     0.239782297207     0.217872879135    12.000000000000
         C           -2.826771718654    -1.115508702793     0.109877879135    12.000000000000
         H           -0.125951718654     2.598235297207    -1.102177120865     1.007825032230
         H            0.036250281346     2.642850297207     0.640221879135     1.007825032230
         H            1.919056281346     1.322337297207    -1.349111120865     1.007825032230
         H            2.224178281346     2.631911297207    -0.222403120865     1.007825032230
         H            1.525314281346     0.758160297207     1.608696879135     1.007825032230
         H            3.181697281346     0.812705297207     0.984284879135     1.007825032230
         H            0.834386281346    -2.032035702793    -0.742922120865     1.007825032230
         H           -2.367558718654     2.238768297207     0.203746879135     1.007825032230
         H           -1.244328718654    -2.548072702793    -0.138025120865     1.007825032230
         H           -4.168922718654     0.559182297207     0.381949879135     1.007825032230
         H           -3.600963718654    -1.875581702793     0.177645879135     1.007825032230

  Basis Set: AUG-CC-PVTZ
    Blend: AUG-CC-PVTZ
  Basis Set: (AUG-CC-PVTZ AUX)
    Blend: AUG-CC-PVTZ-JKFIT
	 Reference Energy          =    -514.5814640942064671 [Eh]
	 Singles Energy            =      -0.0000000000000000 [Eh]
	 Same-Spin Energy          =      -0.5585291379111810 [Eh]
	 Opposite-Spin Energy      =      -1.7442878971974296 [Eh]
	 Correlation Energy        =      -2.3028170351086104 [Eh]
	 Total Energy              =    -516.8842811293151271 [Eh]

	 ================> DF-SCS-MP2 Energies <==================
	-----------------------------------------------------------
	 SCS Same-Spin Scale       =       0.3333333333333333 [-]
	 SCS Opposite-Spin Scale   =       1.2000000000000000 [-]
	 SCS Same-Spin Energy      =      -0.1861763793037270 [Eh]
	 SCS Opposite-Spin Energy  =      -2.0931454766369155 [Eh]
	 SCS Correlation Energy    =      -2.2793218559406423 [Eh]
	 SCS Total Energy          =    -516.8607859501471467 [Eh]
	-----------------------------------------------------------

  Dipole Moment: [D]
     X:    -2.3727      Y:     1.9828      Z:     0.0318     Total:     3.0923

*** Psi4 exiting successfully. Buy a developer a beer!
