                               Psi4 1.3.2 release

  ==> Input File <==

--------------------------------------------------------------------------
#psi4
#
memory 32 gb

molecule  {
0 1
  O        3.0005300    -1.5493530     0.0754490
  N        0.8317470    -1.1153310    -0.4215630
  C        0.1960040     1.9504030    -0.2395030
  C        1.6857700     1.6448450    -0.3508570
  C       -0.7674710     0.7851500    -0.1025020
  C        2.1481850     0.6250380     0.6971500
  C       -0.4945500    -0.6521471    -0.2455736
  C        2.0510250    -0.7686880     0.1361100
  C       -2.1103850     1.1321340     0.1249900
  C       -1.4919760    -1.5397800    -0.0852490
  C       -3.1313420     0.1920050     0.2149350
  C       -2.8150140    -1.1632860     0.1069400
  H       -0.1141940     2.5504580    -1.1051150
  H        0.0480080     2.5950730     0.6372840
  H        1.9308140     1.2745600    -1.3520490
  H        2.2359360     2.5841340    -0.2253410
  H        1.5370720     0.7103830     1.6057590
  H        3.1934550     0.7649280     0.9813470
  H        0.8461440    -2.0798130    -0.7458600
  H       -2.3558010     2.1909910     0.2008090
  H       -1.2325710    -2.5958500    -0.1409630
  H       -4.1571650     0.5114050     0.3790120
  H       -3.5892060    -1.9233590     0.1747080
units angstrom
no_reorient  #important for SAPT in psi4, default
symmetry c1  #important for SAPT in psi4, default
}

set PROPERTIES_ORIGIN ["COM"]
properties('MP2/aug-cc-pvtz', properties = ['dipole'])
--------------------------------------------------------------------------

    Molecular point group: c1
  Charge       = 0
  Multiplicity = 1
  Basis Set: AUG-CC-PVTZ
    Blend: AUG-CC-PVTZ
  Basis Set: (AUG-CC-PVTZ AUX)
    Blend: AUG-CC-PVTZ-JKFIT

    Orbital Energies [Eh]
    ---------------------

    Doubly Occupied:

       1A    -20.526113     2A    -15.595007     3A    -11.359151
       4A    -11.297062     5A    -11.261143     6A    -11.246317
       7A    -11.246171     8A    -11.243786     9A    -11.242960
      10A    -11.242231    11A    -11.240006    12A    -11.237861
      13A     -1.380283    14A     -1.252668    15A     -1.151195
      16A     -1.103135    17A     -1.036155    18A     -1.023963
      19A     -0.954820    20A     -0.883081    21A     -0.837170
      22A     -0.808116    23A     -0.771124    24A     -0.720303
      25A     -0.681449    26A     -0.668331    27A     -0.646346
      28A     -0.628562    29A     -0.612202    30A     -0.606267
      31A     -0.601629    32A     -0.575237    33A     -0.564479
      34A     -0.542545    35A     -0.515361    36A     -0.510419
      37A     -0.499178    38A     -0.490014    39A     -0.484673
      40A     -0.435052    41A     -0.426860    42A     -0.343362
      43A     -0.313266

  @DF-RHF Final Energy:  -514.58622112735861

   => Energetics <=

    Nuclear Repulsion Energy =            674.5082033112121280
    One-Electron Energy =               -2036.5787397365429570
    Two-Electron Energy =                 847.4843152979722163
    Total Energy =                       -514.5862211273586126
  Basis Set: (AUG-CC-PVTZ AUX)
    Blend: AUG-CC-PVTZ-RI
    Molecular point group: c1

    Geometry (in Angstrom), charge = 0, multiplicity = 1:

       Center              X                  Y                   Z               Mass
    ------------   -----------------  -----------------  -----------------  -----------------
         O            2.993001571216    -1.504051664661     0.082937616073    15.994914619570
         N            0.824218571216    -1.070029664661    -0.414074383927    14.003074004430
         C            0.188475571216     1.995704335339    -0.232014383927    12.000000000000
         C            1.678241571216     1.690146335339    -0.343368383927    12.000000000000
         C           -0.774999428784     0.830451335339    -0.095013383927    12.000000000000
         C            2.140656571216     0.670339335339     0.704638616073    12.000000000000
         C           -0.502078428784    -0.606845764661    -0.238084983927    12.000000000000
         C            2.043496571216    -0.723386664661     0.143598616073    12.000000000000
         C           -2.117913428784     1.177435335339     0.132478616073    12.000000000000
         C           -1.499504428784    -1.494478664661    -0.077760383927    12.000000000000
         C           -3.138870428784     0.237306335339     0.222423616073    12.000000000000
         C           -2.822542428784    -1.117984664661     0.114428616073    12.000000000000
         H           -0.121722428784     2.595759335339    -1.097626383927     1.007825032230
         H            0.040479571216     2.640374335339     0.644772616073     1.007825032230
         H            1.923285571216     1.319861335339    -1.344560383927     1.007825032230
         H            2.228407571216     2.629435335339    -0.217852383927     1.007825032230
         H            1.529543571216     0.755684335339     1.613247616073     1.007825032230
         H            3.185926571216     0.810229335339     0.988835616073     1.007825032230
         H            0.838615571216    -2.034511664661    -0.738371383927     1.007825032230
         H           -2.363329428784     2.236292335339     0.208297616073     1.007825032230
         H           -1.240099428784    -2.550548664661    -0.133474383927     1.007825032230
         H           -4.164693428784     0.556706335339     0.386500616073     1.007825032230
         H           -3.596734428784    -1.878057664661     0.182196616073     1.007825032230

  Basis Set: AUG-CC-PVTZ
    Blend: AUG-CC-PVTZ
  Basis Set: (AUG-CC-PVTZ AUX)
    Blend: AUG-CC-PVTZ-JKFIT
	 Reference Energy          =    -514.5862211273586126 [Eh]
	 Singles Energy            =      -0.0000000000000000 [Eh]
	 Same-Spin Energy          =      -0.5580202536053503 [Eh]
	 Opposite-Spin Energy      =      -1.7435489851086068 [Eh]
	 Correlation Energy        =      -2.3015692387139572 [Eh]
	 Total Energy              =    -516.8877903660725224 [Eh]

	 ================> DF-SCS-MP2 Energies <==================
	-----------------------------------------------------------
	 SCS Same-Spin Scale       =       0.3333333333333333 [-]
	 SCS Opposite-Spin Scale   =       1.2000000000000000 [-]
	 SCS Same-Spin Energy      =      -0.1860067512017834 [Eh]
	 SCS Opposite-Spin Energy  =      -2.0922587821303282 [Eh]
	 SCS Correlation Energy    =      -2.2782655333321116 [Eh]
	 SCS Total Energy          =    -516.8644866606907726 [Eh]
	-----------------------------------------------------------

  Dipole Moment: [D]
     X:    -2.7482      Y:     2.0790      Z:     0.0418     Total:     3.4462

*** Psi4 exiting successfully. Buy a developer a beer!
