                               Psi4 1.4a3.dev225

  ==> Input File <==

--------------------------------------------------------------------------
#psi4
#
memory 32 gb

molecule  {
0 1
  O        3.0005300    -1.5493530     0.0754490
  N        0.8317470    -1.1153310    -0.4215630
  C        0.1960040     1.9504030    -0.2395030
  C        1.6662302     1.6488527    -0.3493965
  C       -0.7674710     0.7851500    -0.1025020
  C        2.1481850     0.6250380     0.6971500
  C       -0.4596220    -0.5879500    -0.1790540
  C        2.0510250    -0.7686880     0.1361100
  C       -2.1103850     1.1321340     0.1249900
  C       -1.4919760    -1.5397800    -0.0852490
  C       -3.1313420     0.1920050     0.2149350
  C       -2.8150140    -1.1632860     0.1069400
  H       -0.1141940     2.5504580    -1.1051150
  H        0.0480080     2.5950730     0.6372840
  H        1.9308140     1.2745600    -1.3520490
  H        2.2359360     2.5841340    -0.2253410
  H        1.5370720     0.7103830     1.6057590
  H        3.1934550     0.7649280     0.9813470
  H        0.8461440    -2.0798130    -0.7458600
  H       -2.3558010     2.1909910     0.2008090
  H       -1.2325710    -2.5958500    -0.1409630
  H       -4.1571650     0.5114050     0.3790120
  H       -3.5892060    -1.9233590     0.1747080
units angstrom
no_reorient  #important for SAPT in psi4, default
symmetry c1  #important for SAPT in psi4, default
}

set PROPERTIES_ORIGIN ["COM"]
properties('MP2/aug-cc-pvtz', properties = ['dipole'])
--------------------------------------------------------------------------

    Molecular point group: c1
  Charge       = 0
  Multiplicity = 1
  Basis Set: AUG-CC-PVTZ
    Blend: AUG-CC-PVTZ
  Basis Set: (AUG-CC-PVTZ AUX)
    Blend: AUG-CC-PVTZ-JKFIT

    Orbital Energies [Eh]
    ---------------------

    Doubly Occupied:

       1A    -20.525553     2A    -15.596035     3A    -11.356851
       4A    -11.297447     5A    -11.255278     6A    -11.246582
       7A    -11.245159     8A    -11.244526     9A    -11.244390
      10A    -11.243239    11A    -11.242643    12A    -11.239931
      13A     -1.379981    14A     -1.253024    15A     -1.151749
      16A     -1.103142    17A     -1.038388    18A     -1.016329
      19A     -0.958961    20A     -0.879797    21A     -0.842932
      22A     -0.808004    23A     -0.765732    24A     -0.721747
      25A     -0.681739    26A     -0.671279    27A     -0.646012
      28A     -0.629143    29A     -0.612416    30A     -0.602909
      31A     -0.601213    32A     -0.579353    33A     -0.564212
      34A     -0.541325    35A     -0.518041    36A     -0.509336
      37A     -0.500444    38A     -0.491443    39A     -0.482080
      40A     -0.435230    41A     -0.425811    42A     -0.340660
      43A     -0.316056

  @DF-RHF Final Energy:  -514.59385750874708

   => Energetics <=

    Nuclear Repulsion Energy =            675.2445283543094092
    One-Electron Energy =               -2038.0645326117582954
    Two-Electron Energy =                 848.2261467487019218
    Total Energy =                       -514.5938575087470781
  Basis Set: (AUG-CC-PVTZ AUX)
    Blend: AUG-CC-PVTZ-RI
    Molecular point group: c1

    Geometry (in Angstrom), charge = 0, multiplicity = 1:

       Center              X                  Y                   Z               Mass
    ------------   -----------------  -----------------  -----------------  -----------------
         O            2.991855223182    -1.509132599297     0.077873420523    15.994914619570
         N            0.823072223182    -1.075110599297    -0.419138579477    14.003074004430
         C            0.187329223182     1.990623400703    -0.237078579477    12.000000000000
         C            1.657555423182     1.689073100703    -0.346972079477    12.000000000000
         C           -0.776145776818     0.825370400703    -0.100077579477    12.000000000000
         C            2.139510223182     0.665258400703     0.699574420523    12.000000000000
         C           -0.468296776818    -0.547729599297    -0.176629579477    12.000000000000
         C            2.042350223182    -0.728467599297     0.138534420523    12.000000000000
         C           -2.119059776818     1.172354400703     0.127414420523    12.000000000000
         C           -1.500650776818    -1.499559599297    -0.082824579477    12.000000000000
         C           -3.140016776818     0.232225400703     0.217359420523    12.000000000000
         C           -2.823688776818    -1.123065599297     0.109364420523    12.000000000000
         H           -0.122868776818     2.590678400703    -1.102690579477     1.007825032230
         H            0.039333223182     2.635293400703     0.639708420523     1.007825032230
         H            1.922139223182     1.314780400703    -1.349624579477     1.007825032230
         H            2.227261223182     2.624354400703    -0.222916579477     1.007825032230
         H            1.528397223182     0.750603400703     1.608183420523     1.007825032230
         H            3.184780223182     0.805148400703     0.983771420523     1.007825032230
         H            0.837469223182    -2.039592599297    -0.743435579477     1.007825032230
         H           -2.364475776818     2.231211400703     0.203233420523     1.007825032230
         H           -1.241245776818    -2.555629599297    -0.138538579477     1.007825032230
         H           -4.165839776818     0.551625400703     0.381436420523     1.007825032230
         H           -3.597880776818    -1.883138599297     0.177132420523     1.007825032230

  Basis Set: AUG-CC-PVTZ
    Blend: AUG-CC-PVTZ
  Basis Set: (AUG-CC-PVTZ AUX)
    Blend: AUG-CC-PVTZ-JKFIT
	 Reference Energy          =    -514.5938575087470781 [Eh]
	 Singles Energy            =      -0.0000000000000000 [Eh]
	 Same-Spin Energy          =      -0.5579745653182803 [Eh]
	 Opposite-Spin Energy      =      -1.7431350654647242 [Eh]
	 Correlation Energy        =      -2.3011096307830043 [Eh]
	 Total Energy              =    -516.8949671395300811 [Eh]

	 ================> DF-SCS-MP2 Energies <==================
	-----------------------------------------------------------
	 SCS Same-Spin Scale       =       0.3333333333333333 [-]
	 SCS Opposite-Spin Scale   =       1.2000000000000000 [-]
	 SCS Same-Spin Energy      =      -0.1859915217727601 [Eh]
	 SCS Opposite-Spin Energy  =      -2.0917620785576689 [Eh]
	 SCS Correlation Energy    =      -2.2777536003304291 [Eh]
	 SCS Total Energy          =    -516.8716111090775485 [Eh]
	-----------------------------------------------------------

  Dipole Moment: [D]
     X:    -2.7509      Y:     2.0650      Z:     0.0357     Total:     3.4399

*** Psi4 exiting successfully. Buy a developer a beer!
