                               Psi4 1.3.2 release

  ==> Input File <==

--------------------------------------------------------------------------
#psi4
#
memory 32 gb

molecule  {
0 1
  O        2.9472722    -1.6066440     0.0399426
  N        0.8317470    -1.1153310    -0.4215630
  C        0.1960040     1.9504030    -0.2395030
  C        1.6857700     1.6448450    -0.3508570
  C       -0.7674710     0.7851500    -0.1025020
  C        2.1481850     0.6250380     0.6971500
  C       -0.4596220    -0.5879500    -0.1790540
  C        2.0510250    -0.7686880     0.1361100
  C       -2.1103850     1.1321340     0.1249900
  C       -1.4919760    -1.5397800    -0.0852490
  C       -3.1313420     0.1920050     0.2149350
  C       -2.8150140    -1.1632860     0.1069400
  H       -0.1141940     2.5504580    -1.1051150
  H        0.0480080     2.5950730     0.6372840
  H        1.9308140     1.2745600    -1.3520490
  H        2.2359360     2.5841340    -0.2253410
  H        1.5370720     0.7103830     1.6057590
  H        3.1934550     0.7649280     0.9813470
  H        0.8461440    -2.0798130    -0.7458600
  H       -2.3558010     2.1909910     0.2008090
  H       -1.2325710    -2.5958500    -0.1409630
  H       -4.1571650     0.5114050     0.3790120
  H       -3.5892060    -1.9233590     0.1747080
units angstrom
no_reorient  #important for SAPT in psi4, default
symmetry c1  #important for SAPT in psi4, default
}

set PROPERTIES_ORIGIN ["COM"]
properties('MP2/aug-cc-pvtz', properties = ['dipole'])
--------------------------------------------------------------------------

    Molecular point group: c1
  Charge       = 0
  Multiplicity = 1
  Basis Set: AUG-CC-PVTZ
    Blend: AUG-CC-PVTZ
  Basis Set: (AUG-CC-PVTZ AUX)
    Blend: AUG-CC-PVTZ-JKFIT

    Orbital Energies [Eh]
    ---------------------

    Doubly Occupied:

       1A    -20.524938     2A    -15.591823     3A    -11.357418
       4A    -11.295345     5A    -11.254062     6A    -11.247291
       7A    -11.245520     8A    -11.245475     9A    -11.244310
      10A    -11.244169    11A    -11.243013    12A    -11.238731
      13A     -1.381897    14A     -1.248717    15A     -1.149906
      16A     -1.103313    17A     -1.039566    18A     -1.014567
      19A     -0.958308    20A     -0.880192    21A     -0.841556
      22A     -0.808691    23A     -0.765246    24A     -0.720793
      25A     -0.681797    26A     -0.670066    27A     -0.646178
      28A     -0.628335    29A     -0.611239    30A     -0.603202
      31A     -0.601055    32A     -0.579374    33A     -0.564062
      34A     -0.542546    35A     -0.516955    36A     -0.511766
      37A     -0.498300    38A     -0.492354    39A     -0.483504
      40A     -0.433044    41A     -0.427908    42A     -0.339759
      43A     -0.313989

  @DF-RHF Final Energy:  -514.59294869710550

   => Energetics <=

    Nuclear Repulsion Energy =            675.3164514863809700
    One-Electron Energy =               -2038.2382417520968829
    Two-Electron Energy =                 848.3288415686105282
    Total Energy =                       -514.5929486971054985
  Basis Set: (AUG-CC-PVTZ AUX)
    Blend: AUG-CC-PVTZ-RI
    Molecular point group: c1

    Geometry (in Angstrom), charge = 0, multiplicity = 1:

       Center              X                  Y                   Z               Mass
    ------------   -----------------  -----------------  -----------------  -----------------
         O            2.942430057824    -1.560436308999     0.046001444823    15.994914619570
         N            0.826904857824    -1.069123308999    -0.415504155177    14.003074004430
         C            0.191161857824     1.996610691001    -0.233444155177    12.000000000000
         C            1.680927857824     1.691052691001    -0.344798155177    12.000000000000
         C           -0.772313142176     0.831357691001    -0.096443155177    12.000000000000
         C            2.143342857824     0.671245691001     0.703208844823    12.000000000000
         C           -0.464464142176    -0.541742308999    -0.172995155177    12.000000000000
         C            2.046182857824    -0.722480308999     0.142168844823    12.000000000000
         C           -2.115227142176     1.178341691001     0.131048844823    12.000000000000
         C           -1.496818142176    -1.493572308999    -0.079190155177    12.000000000000
         C           -3.136184142176     0.238212691001     0.220993844823    12.000000000000
         C           -2.819856142176    -1.117078308999     0.112998844823    12.000000000000
         H           -0.119036142176     2.596665691001    -1.099056155177     1.007825032230
         H            0.043165857824     2.641280691001     0.643342844823     1.007825032230
         H            1.925971857824     1.320767691001    -1.345990155177     1.007825032230
         H            2.231093857824     2.630341691001    -0.219282155177     1.007825032230
         H            1.532229857824     0.756590691001     1.611817844823     1.007825032230
         H            3.188612857824     0.811135691001     0.987405844823     1.007825032230
         H            0.841301857824    -2.033605308999    -0.739801155177     1.007825032230
         H           -2.360643142176     2.237198691001     0.206867844823     1.007825032230
         H           -1.237413142176    -2.549642308999    -0.134904155177     1.007825032230
         H           -4.162007142176     0.557612691001     0.385070844823     1.007825032230
         H           -3.594048142176    -1.877151308999     0.180766844823     1.007825032230

  Basis Set: AUG-CC-PVTZ
    Blend: AUG-CC-PVTZ
  Basis Set: (AUG-CC-PVTZ AUX)
    Blend: AUG-CC-PVTZ-JKFIT
	 Reference Energy          =    -514.5929486971054985 [Eh]
	 Singles Energy            =      -0.0000000000000000 [Eh]
	 Same-Spin Energy          =      -0.5579436966111582 [Eh]
	 Opposite-Spin Energy      =      -1.7430628127925885 [Eh]
	 Correlation Energy        =      -2.3010065094037468 [Eh]
	 Total Energy              =    -516.8939552065091902 [Eh]

	 ================> DF-SCS-MP2 Energies <==================
	-----------------------------------------------------------
	 SCS Same-Spin Scale       =       0.3333333333333333 [-]
	 SCS Opposite-Spin Scale   =       1.2000000000000000 [-]
	 SCS Same-Spin Energy      =      -0.1859812322037194 [Eh]
	 SCS Opposite-Spin Energy  =      -2.0916753753511061 [Eh]
	 SCS Correlation Energy    =      -2.2776566075548255 [Eh]
	 SCS Total Energy          =    -516.8706053046603301 [Eh]
	-----------------------------------------------------------

  Dipole Moment: [D]
     X:    -2.5579      Y:     2.2116      Z:     0.1167     Total:     3.3834

*** Psi4 exiting successfully. Buy a developer a beer!
