                               Psi4 1.4a3.dev225

  ==> Input File <==

--------------------------------------------------------------------------
#psi4
#
memory 32 gb

molecule  {
0 1
  O        3.0005300    -1.5493530     0.0754490
  N        0.8317470    -1.1153310    -0.4215630
  C        0.1960040     1.9504030    -0.2395030
  C        1.6857700     1.6448450    -0.3508570
  C       -0.7674710     0.7851500    -0.1025020
  C        2.1481850     0.6250380     0.6971500
  C       -0.4596220    -0.5879500    -0.1790540
  C        2.0510250    -0.7686880     0.1361100
  C       -2.1294937     1.1370713     0.1282271
  C       -1.4919760    -1.5397800    -0.0852490
  C       -3.1313420     0.1920050     0.2149350
  C       -2.8150140    -1.1632860     0.1069400
  H       -0.1141940     2.5504580    -1.1051150
  H        0.0480080     2.5950730     0.6372840
  H        1.9308140     1.2745600    -1.3520490
  H        2.2359360     2.5841340    -0.2253410
  H        1.5370720     0.7103830     1.6057590
  H        3.1934550     0.7649280     0.9813470
  H        0.8461440    -2.0798130    -0.7458600
  H       -2.3558010     2.1909910     0.2008090
  H       -1.2325710    -2.5958500    -0.1409630
  H       -4.1571650     0.5114050     0.3790120
  H       -3.5892060    -1.9233590     0.1747080
units angstrom
no_reorient  #important for SAPT in psi4, default
symmetry c1  #important for SAPT in psi4, default
}

set PROPERTIES_ORIGIN ["COM"]
properties('MP2/aug-cc-pvtz', properties = ['dipole'])
--------------------------------------------------------------------------

    Molecular point group: c1
  Charge       = 0
  Multiplicity = 1
  Basis Set: AUG-CC-PVTZ
    Blend: AUG-CC-PVTZ
  Basis Set: (AUG-CC-PVTZ AUX)
    Blend: AUG-CC-PVTZ-JKFIT

    Orbital Energies [Eh]
    ---------------------

    Doubly Occupied:

       1A    -20.525482     2A    -15.595927     3A    -11.356850
       4A    -11.296878     5A    -11.256953     6A    -11.246650
       7A    -11.245151     8A    -11.245088     9A    -11.244908
      10A    -11.242817    11A    -11.242150    12A    -11.239010
      13A     -1.379930    14A     -1.252730    15A     -1.150534
      16A     -1.101633    17A     -1.037673    18A     -1.017605
      19A     -0.956539    20A     -0.880938    21A     -0.842949
      22A     -0.808156    23A     -0.765069    24A     -0.722397
      25A     -0.681469    26A     -0.670939    27A     -0.646707
      28A     -0.628490    29A     -0.611336    30A     -0.603866
      31A     -0.601345    32A     -0.578534    33A     -0.564344
      34A     -0.542005    35A     -0.517689    36A     -0.510641
      37A     -0.497604    38A     -0.491968    39A     -0.482965
      40A     -0.435704    41A     -0.425781    42A     -0.339119
      43A     -0.316648

  @DF-RHF Final Energy:  -514.59393264834966

   => Energetics <=

    Nuclear Repulsion Energy =            674.7591572345893383
    One-Electron Energy =               -2037.1038405290273658
    Two-Electron Energy =                 847.7507506460883633
    Total Energy =                       -514.5939326483496643
  Basis Set: (AUG-CC-PVTZ AUX)
    Blend: AUG-CC-PVTZ-RI
    Molecular point group: c1

    Geometry (in Angstrom), charge = 0, multiplicity = 1:

       Center              X                  Y                   Z               Mass
    ------------   -----------------  -----------------  -----------------  -----------------
         O            2.991823108274    -1.509201850095     0.077741072235    15.994914619570
         N            0.823040108274    -1.075179850095    -0.419270927765    14.003074004430
         C            0.187297108274     1.990554149905    -0.237210927765    12.000000000000
         C            1.677063108274     1.684996149905    -0.348564927765    12.000000000000
         C           -0.776177891726     0.825301149905    -0.100209927765    12.000000000000
         C            2.139478108274     0.665189149905     0.699442072235    12.000000000000
         C           -0.468328891726    -0.547798850095    -0.176761927765    12.000000000000
         C            2.042318108274    -0.728536850095     0.138402072235    12.000000000000
         C           -2.138200591726     1.177222449905     0.130519172235    12.000000000000
         C           -1.500682891726    -1.499628850095    -0.082956927765    12.000000000000
         C           -3.140048891726     0.232156149905     0.217227072235    12.000000000000
         C           -2.823720891726    -1.123134850095     0.109232072235    12.000000000000
         H           -0.122900891726     2.590609149905    -1.102822927765     1.007825032230
         H            0.039301108274     2.635224149905     0.639576072235     1.007825032230
         H            1.922107108274     1.314711149905    -1.349756927765     1.007825032230
         H            2.227229108274     2.624285149905    -0.223048927765     1.007825032230
         H            1.528365108274     0.750534149905     1.608051072235     1.007825032230
         H            3.184748108274     0.805079149905     0.983639072235     1.007825032230
         H            0.837437108274    -2.039661850095    -0.743567927765     1.007825032230
         H           -2.364507891726     2.231142149905     0.203101072235     1.007825032230
         H           -1.241277891726    -2.555698850095    -0.138670927765     1.007825032230
         H           -4.165871891726     0.551556149905     0.381304072235     1.007825032230
         H           -3.597912891726    -1.883207850095     0.177000072235     1.007825032230

  Basis Set: AUG-CC-PVTZ
    Blend: AUG-CC-PVTZ
  Basis Set: (AUG-CC-PVTZ AUX)
    Blend: AUG-CC-PVTZ-JKFIT
	 Reference Energy          =    -514.5939326483496643 [Eh]
	 Singles Energy            =      -0.0000000000000000 [Eh]
	 Same-Spin Energy          =      -0.5577935991764691 [Eh]
	 Opposite-Spin Energy      =      -1.7430343652166365 [Eh]
	 Correlation Energy        =      -2.3008279643931058 [Eh]
	 Total Energy              =    -516.8947606127427434 [Eh]

	 ================> DF-SCS-MP2 Energies <==================
	-----------------------------------------------------------
	 SCS Same-Spin Scale       =       0.3333333333333333 [-]
	 SCS Opposite-Spin Scale   =       1.2000000000000000 [-]
	 SCS Same-Spin Energy      =      -0.1859311997254897 [Eh]
	 SCS Opposite-Spin Energy  =      -2.0916412382599638 [Eh]
	 SCS Correlation Energy    =      -2.2775724379854534 [Eh]
	 SCS Total Energy          =    -516.8715050863351053 [Eh]
	-----------------------------------------------------------

  Dipole Moment: [D]
     X:    -2.7446      Y:     2.0690      Z:     0.0345     Total:     3.4373

*** Psi4 exiting successfully. Buy a developer a beer!
