                               Psi4 1.3.2 release

  ==> Input File <==

--------------------------------------------------------------------------
#psi4
#
memory 32 gb

molecule  {
0 1
  O        3.0005300    -1.5493530     0.0754490
  N        0.8317470    -1.1153310    -0.4215630
  C        0.1960040     1.9504030    -0.2395030
  C        1.6857700     1.6448450    -0.3508570
  C       -0.7674710     0.7851500    -0.1025020
  C        2.1481850     0.6250380     0.6971500
  C       -0.3195600    -0.5473826    -0.2013328
  C        2.0510250    -0.7686880     0.1361100
  C       -2.1103850     1.1321340     0.1249900
  C       -1.4919760    -1.5397800    -0.0852490
  C       -3.1313420     0.1920050     0.2149350
  C       -2.8150140    -1.1632860     0.1069400
  H       -0.1141940     2.5504580    -1.1051150
  H        0.0480080     2.5950730     0.6372840
  H        1.9308140     1.2745600    -1.3520490
  H        2.2359360     2.5841340    -0.2253410
  H        1.5370720     0.7103830     1.6057590
  H        3.1934550     0.7649280     0.9813470
  H        0.8461440    -2.0798130    -0.7458600
  H       -2.3558010     2.1909910     0.2008090
  H       -1.2325710    -2.5958500    -0.1409630
  H       -4.1571650     0.5114050     0.3790120
  H       -3.5892060    -1.9233590     0.1747080
units angstrom
no_reorient  #important for SAPT in psi4, default
symmetry c1  #important for SAPT in psi4, default
}

set PROPERTIES_ORIGIN ["COM"]
properties('MP2/aug-cc-pvtz', properties = ['dipole'])
--------------------------------------------------------------------------

    Molecular point group: c1
  Charge       = 0
  Multiplicity = 1
  Basis Set: AUG-CC-PVTZ
    Blend: AUG-CC-PVTZ
  Basis Set: (AUG-CC-PVTZ AUX)
    Blend: AUG-CC-PVTZ-JKFIT

    Orbital Energies [Eh]
    ---------------------

    Doubly Occupied:

       1A    -20.534824     2A    -15.607432     3A    -11.364371
       4A    -11.303884     5A    -11.250432     6A    -11.250074
       7A    -11.246822     8A    -11.243571     9A    -11.243315
      10A    -11.242897    11A    -11.238508    12A    -11.234843
      13A     -1.392272    14A     -1.289905    15A     -1.143099
      16A     -1.101256    17A     -1.038999    18A     -1.001226
      19A     -0.955016    20A     -0.889265    21A     -0.847407
      22A     -0.814776    23A     -0.763660    24A     -0.738665
      25A     -0.688111    26A     -0.676265    27A     -0.648734
      28A     -0.626855    29A     -0.613870    30A     -0.606339
      31A     -0.591336    32A     -0.580505    33A     -0.567857
      34A     -0.544078    35A     -0.521327    36A     -0.509580
      37A     -0.497380    38A     -0.488066    39A     -0.468985
      40A     -0.441627    41A     -0.433069    42A     -0.337038
      43A     -0.299011

  @DF-RHF Final Energy:  -514.56681164115196

   => Energetics <=

    Nuclear Repulsion Energy =            675.7695836592858996
    One-Electron Energy =               -2038.9196879553371673
    Two-Electron Energy =                 848.5832926548993100
    Total Energy =                       -514.5668116411519577
  Basis Set: (AUG-CC-PVTZ AUX)
    Blend: AUG-CC-PVTZ-RI
    Molecular point group: c1

    Geometry (in Angstrom), charge = 0, multiplicity = 1:

       Center              X                  Y                   Z               Mass
    ------------   -----------------  -----------------  -----------------  -----------------
         O            2.979965644830    -1.511856123829     0.079641885962    15.994914619570
         N            0.811182644830    -1.077834123829    -0.417370114038    14.003074004430
         C            0.175439644830     1.987899876171    -0.235310114038    12.000000000000
         C            1.665205644830     1.682341876171    -0.346664114038    12.000000000000
         C           -0.788035355170     0.822646876171    -0.098309114038    12.000000000000
         C            2.127620644830     0.662534876171     0.701342885962    12.000000000000
         C           -0.340124355170    -0.509885723829    -0.197139914038    12.000000000000
         C            2.030460644830    -0.731191123829     0.140302885962    12.000000000000
         C           -2.130949355170     1.169630876171     0.129182885962    12.000000000000
         C           -1.512540355170    -1.502283123829    -0.081056114038    12.000000000000
         C           -3.151906355170     0.229501876171     0.219127885962    12.000000000000
         C           -2.835578355170    -1.125789123829     0.111132885962    12.000000000000
         H           -0.134758355170     2.587954876171    -1.100922114038     1.007825032230
         H            0.027443644830     2.632569876171     0.641476885962     1.007825032230
         H            1.910249644830     1.312056876171    -1.347856114038     1.007825032230
         H            2.215371644830     2.621630876171    -0.221148114038     1.007825032230
         H            1.516507644830     0.747879876171     1.609951885962     1.007825032230
         H            3.172890644830     0.802424876171     0.985539885962     1.007825032230
         H            0.825579644830    -2.042316123829    -0.741667114038     1.007825032230
         H           -2.376365355170     2.228487876171     0.205001885962     1.007825032230
         H           -1.253135355170    -2.558353123829    -0.136770114038     1.007825032230
         H           -4.177729355170     0.548901876171     0.383204885962     1.007825032230
         H           -3.609770355170    -1.885862123829     0.178900885962     1.007825032230

  Basis Set: AUG-CC-PVTZ
    Blend: AUG-CC-PVTZ
  Basis Set: (AUG-CC-PVTZ AUX)
    Blend: AUG-CC-PVTZ-JKFIT
	 Reference Energy          =    -514.5668116411519577 [Eh]
	 Singles Energy            =      -0.0000000000000000 [Eh]
	 Same-Spin Energy          =      -0.5594275884932278 [Eh]
	 Opposite-Spin Energy      =      -1.7459496182588996 [Eh]
	 Correlation Energy        =      -2.3053772067521274 [Eh]
	 Total Energy              =    -516.8721888479041127 [Eh]

	 ================> DF-SCS-MP2 Energies <==================
	-----------------------------------------------------------
	 SCS Same-Spin Scale       =       0.3333333333333333 [-]
	 SCS Opposite-Spin Scale   =       1.2000000000000000 [-]
	 SCS Same-Spin Energy      =      -0.1864758628310759 [Eh]
	 SCS Opposite-Spin Energy  =      -2.0951395419106795 [Eh]
	 SCS Correlation Energy    =      -2.2816154047417556 [Eh]
	 SCS Total Energy          =    -516.8484270458936862 [Eh]
	-----------------------------------------------------------

  Dipole Moment: [D]
     X:    -2.0650      Y:     1.8604      Z:    -0.0475     Total:     2.7799

*** Psi4 exiting successfully. Buy a developer a beer!
