                               Psi4 1.3.2 release

  ==> Input File <==

--------------------------------------------------------------------------
#psi4
#
memory 32 gb

molecule  {
0 1
  O        3.0005300    -1.5493530     0.0754490
  N        0.8317470    -1.1153310    -0.4215630
  C        0.1960040     1.9504030    -0.2395030
  C        1.6857700     1.6448450    -0.3508570
  C       -0.7674710     0.7851500    -0.1025020
  C        2.1481850     0.6250380     0.6971500
  C       -0.5128041    -0.7198852    -0.2206149
  C        2.0510250    -0.7686880     0.1361100
  C       -2.1103850     1.1321340     0.1249900
  C       -1.4919760    -1.5397800    -0.0852490
  C       -3.1313420     0.1920050     0.2149350
  C       -2.8150140    -1.1632860     0.1069400
  H       -0.1141940     2.5504580    -1.1051150
  H        0.0480080     2.5950730     0.6372840
  H        1.9308140     1.2745600    -1.3520490
  H        2.2359360     2.5841340    -0.2253410
  H        1.5370720     0.7103830     1.6057590
  H        3.1934550     0.7649280     0.9813470
  H        0.8461440    -2.0798130    -0.7458600
  H       -2.3558010     2.1909910     0.2008090
  H       -1.2325710    -2.5958500    -0.1409630
  H       -4.1571650     0.5114050     0.3790120
  H       -3.5892060    -1.9233590     0.1747080
units angstrom
no_reorient  #important for SAPT in psi4, default
symmetry c1  #important for SAPT in psi4, default
}

set PROPERTIES_ORIGIN ["COM"]
properties('MP2/aug-cc-pvtz', properties = ['dipole'])
--------------------------------------------------------------------------

    Molecular point group: c1
  Charge       = 0
  Multiplicity = 1
  Basis Set: AUG-CC-PVTZ
    Blend: AUG-CC-PVTZ
  Basis Set: (AUG-CC-PVTZ AUX)
    Blend: AUG-CC-PVTZ-JKFIT

    Orbital Energies [Eh]
    ---------------------

    Doubly Occupied:

       1A    -20.527331     2A    -15.594465     3A    -11.360569
       4A    -11.294705     5A    -11.265390     6A    -11.246912
       7A    -11.245916     8A    -11.243181     9A    -11.242247
      10A    -11.242042    11A    -11.240108    12A    -11.230073
      13A     -1.381133    14A     -1.253366    15A     -1.151992
      16A     -1.104521    17A     -1.037097    18A     -1.028668
      19A     -0.953027    20A     -0.884434    21A     -0.832004
      22A     -0.806320    23A     -0.776873    24A     -0.719358
      25A     -0.681897    26A     -0.668007    27A     -0.647033
      28A     -0.628177    29A     -0.611722    30A     -0.607844
      31A     -0.601539    32A     -0.572614    33A     -0.564089
      34A     -0.543875    35A     -0.515255    36A     -0.509781
      37A     -0.500659    38A     -0.485861    39A     -0.481936
      40A     -0.435903    41A     -0.427577    42A     -0.349451
      43A     -0.309539

  @DF-RHF Final Energy:  -514.56786825805113

   => Energetics <=

    Nuclear Repulsion Energy =            674.2586487641250415
    One-Electron Energy =               -2036.0440528290951079
    Two-Electron Energy =                 847.2175358069188178
    Total Energy =                       -514.5678682580511349
  Basis Set: (AUG-CC-PVTZ AUX)
    Blend: AUG-CC-PVTZ-RI
    Molecular point group: c1

    Geometry (in Angstrom), charge = 0, multiplicity = 1:

       Center              X                  Y                   Z               Mass
    ------------   -----------------  -----------------  -----------------  -----------------
         O            2.994361415229    -1.499005496965     0.081078311108    15.994914619570
         N            0.825578415229    -1.064983496965    -0.415933688892    14.003074004430
         C            0.189835415229     2.000750503035    -0.233873688892    12.000000000000
         C            1.679601415229     1.695192503035    -0.345227688892    12.000000000000
         C           -0.773639584771     0.835497503035    -0.096872688892    12.000000000000
         C            2.142016415229     0.675385503035     0.702779311108    12.000000000000
         C           -0.518972684771    -0.669537696965    -0.214985588892    12.000000000000
         C            2.044856415229    -0.718340496965     0.141739311108    12.000000000000
         C           -2.116553584771     1.182481503035     0.130619311108    12.000000000000
         C           -1.498144584771    -1.489432496965    -0.079619688892    12.000000000000
         C           -3.137510584771     0.242352503035     0.220564311108    12.000000000000
         C           -2.821182584771    -1.112938496965     0.112569311108    12.000000000000
         H           -0.120362584771     2.600805503035    -1.099485688892     1.007825032230
         H            0.041839415229     2.645420503035     0.642913311108     1.007825032230
         H            1.924645415229     1.324907503035    -1.346419688892     1.007825032230
         H            2.229767415229     2.634481503035    -0.219711688892     1.007825032230
         H            1.530903415229     0.760730503035     1.611388311108     1.007825032230
         H            3.187286415229     0.815275503035     0.986976311108     1.007825032230
         H            0.839975415229    -2.029465496965    -0.740230688892     1.007825032230
         H           -2.361969584771     2.241338503035     0.206438311108     1.007825032230
         H           -1.238739584771    -2.545502496965    -0.135333688892     1.007825032230
         H           -4.163333584771     0.561752503035     0.384641311108     1.007825032230
         H           -3.595374584771    -1.873011496965     0.180337311108     1.007825032230

  Basis Set: AUG-CC-PVTZ
    Blend: AUG-CC-PVTZ
  Basis Set: (AUG-CC-PVTZ AUX)
    Blend: AUG-CC-PVTZ-JKFIT
	 Reference Energy          =    -514.5678682580511349 [Eh]
	 Singles Energy            =      -0.0000000000000000 [Eh]
	 Same-Spin Energy          =      -0.5576857081233603 [Eh]
	 Opposite-Spin Energy      =      -1.7441318907117882 [Eh]
	 Correlation Energy        =      -2.3018175988351484 [Eh]
	 Total Energy              =    -516.8696858568862353 [Eh]

	 ================> DF-SCS-MP2 Energies <==================
	-----------------------------------------------------------
	 SCS Same-Spin Scale       =       0.3333333333333333 [-]
	 SCS Opposite-Spin Scale   =       1.2000000000000000 [-]
	 SCS Same-Spin Energy      =      -0.1858952360411201 [Eh]
	 SCS Opposite-Spin Energy  =      -2.0929582688541459 [Eh]
	 SCS Correlation Energy    =      -2.2788535048952658 [Eh]
	 SCS Total Energy          =    -516.8467217629463448 [Eh]
	-----------------------------------------------------------

  Dipole Moment: [D]
     X:    -2.7120      Y:     2.0611      Z:     0.0666     Total:     3.4070

*** Psi4 exiting successfully. Buy a developer a beer!
