                               Psi4 1.4a3.dev225

  ==> Input File <==

--------------------------------------------------------------------------
#psi4
#
memory 32 gb

molecule  {
0 1
  O        3.0005300    -1.5493530     0.0754490
  N        0.8317470    -1.1153310    -0.4215630
  C        0.1960040     1.9504030    -0.2395030
  C        1.6857700     1.6448450    -0.3508570
  C       -0.7801635     0.7697993    -0.1006972
  C        2.1481850     0.6250380     0.6971500
  C       -0.4596220    -0.5879500    -0.1790540
  C        2.0510250    -0.7686880     0.1361100
  C       -2.1103850     1.1321340     0.1249900
  C       -1.4919760    -1.5397800    -0.0852490
  C       -3.1313420     0.1920050     0.2149350
  C       -2.8150140    -1.1632860     0.1069400
  H       -0.1141940     2.5504580    -1.1051150
  H        0.0480080     2.5950730     0.6372840
  H        1.9308140     1.2745600    -1.3520490
  H        2.2359360     2.5841340    -0.2253410
  H        1.5370720     0.7103830     1.6057590
  H        3.1934550     0.7649280     0.9813470
  H        0.8461440    -2.0798130    -0.7458600
  H       -2.3558010     2.1909910     0.2008090
  H       -1.2325710    -2.5958500    -0.1409630
  H       -4.1571650     0.5114050     0.3790120
  H       -3.5892060    -1.9233590     0.1747080
units angstrom
no_reorient  #important for SAPT in psi4, default
symmetry c1  #important for SAPT in psi4, default
}

set PROPERTIES_ORIGIN ["COM"]
properties('MP2/aug-cc-pvtz', properties = ['dipole'])
--------------------------------------------------------------------------

    Molecular point group: c1
  Charge       = 0
  Multiplicity = 1
  Basis Set: AUG-CC-PVTZ
    Blend: AUG-CC-PVTZ
  Basis Set: (AUG-CC-PVTZ AUX)
    Blend: AUG-CC-PVTZ-JKFIT

    Orbital Energies [Eh]
    ---------------------

    Doubly Occupied:

       1A    -20.525685     2A    -15.596448     3A    -11.357015
       4A    -11.295970     5A    -11.253821     6A    -11.246308
       7A    -11.245520     8A    -11.244489     9A    -11.244253
      10A    -11.242698    11A    -11.241855    12A    -11.239898
      13A     -1.380127    14A     -1.253393    15A     -1.152865
      16A     -1.100299    17A     -1.038457    18A     -1.016944
      19A     -0.957407    20A     -0.879084    21A     -0.844061
      22A     -0.808969    23A     -0.765814    24A     -0.722494
      25A     -0.681426    26A     -0.670424    27A     -0.645269
      28A     -0.629957    29A     -0.611150    30A     -0.603475
      31A     -0.600557    32A     -0.577996    33A     -0.564567
      34A     -0.542176    35A     -0.518522    36A     -0.510521
      37A     -0.498882    38A     -0.491983    39A     -0.479554
      40A     -0.435460    41A     -0.425962    42A     -0.341620
      43A     -0.317151

  @DF-RHF Final Energy:  -514.59450823822010

   => Energetics <=

    Nuclear Repulsion Energy =            675.1630350695968446
    One-Electron Energy =               -2037.9140372896686131
    Two-Electron Energy =                 848.1564939818516677
    Total Energy =                       -514.5945082382201008
  Basis Set: (AUG-CC-PVTZ AUX)
    Blend: AUG-CC-PVTZ-RI
    Molecular point group: c1

    Geometry (in Angstrom), charge = 0, multiplicity = 1:

       Center              X                  Y                   Z               Mass
    ------------   -----------------  -----------------  -----------------  -----------------
         O            2.991345131756    -1.507690490163     0.077847771803    15.994914619570
         N            0.822562131756    -1.073668490163    -0.419164228197    14.003074004430
         C            0.186819131756     1.992065509837    -0.237104228197    12.000000000000
         C            1.676585131756     1.686507509837    -0.348458228197    12.000000000000
         C           -0.789348368244     0.811461809837    -0.098298428197    12.000000000000
         C            2.139000131756     0.666700509837     0.699548771803    12.000000000000
         C           -0.468806868244    -0.546287490163    -0.176655228197    12.000000000000
         C            2.041840131756    -0.727025490163     0.138508771803    12.000000000000
         C           -2.119569868244     1.173796509837     0.127388771803    12.000000000000
         C           -1.501160868244    -1.498117490163    -0.082850228197    12.000000000000
         C           -3.140526868244     0.233667509837     0.217333771803    12.000000000000
         C           -2.824198868244    -1.121623490163     0.109338771803    12.000000000000
         H           -0.123378868244     2.592120509837    -1.102716228197     1.007825032230
         H            0.038823131756     2.636735509837     0.639682771803     1.007825032230
         H            1.921629131756     1.316222509837    -1.349650228197     1.007825032230
         H            2.226751131756     2.625796509837    -0.222942228197     1.007825032230
         H            1.527887131756     0.752045509837     1.608157771803     1.007825032230
         H            3.184270131756     0.806590509837     0.983745771803     1.007825032230
         H            0.836959131756    -2.038150490163    -0.743461228197     1.007825032230
         H           -2.364985868244     2.232653509837     0.203207771803     1.007825032230
         H           -1.241755868244    -2.554187490163    -0.138564228197     1.007825032230
         H           -4.166349868244     0.553067509837     0.381410771803     1.007825032230
         H           -3.598390868244    -1.881696490163     0.177106771803     1.007825032230

  Basis Set: AUG-CC-PVTZ
    Blend: AUG-CC-PVTZ
  Basis Set: (AUG-CC-PVTZ AUX)
    Blend: AUG-CC-PVTZ-JKFIT
	 Reference Energy          =    -514.5945082382201008 [Eh]
	 Singles Energy            =      -0.0000000000000000 [Eh]
	 Same-Spin Energy          =      -0.5576790876556390 [Eh]
	 Opposite-Spin Energy      =      -1.7427564625192391 [Eh]
	 Correlation Energy        =      -2.3004355501748783 [Eh]
	 Total Energy              =    -516.8949437883949258 [Eh]

	 ================> DF-SCS-MP2 Energies <==================
	-----------------------------------------------------------
	 SCS Same-Spin Scale       =       0.3333333333333333 [-]
	 SCS Opposite-Spin Scale   =       1.2000000000000000 [-]
	 SCS Same-Spin Energy      =      -0.1858930292185463 [Eh]
	 SCS Opposite-Spin Energy  =      -2.0913077550230867 [Eh]
	 SCS Correlation Energy    =      -2.2772007842416331 [Eh]
	 SCS Total Energy          =    -516.8717090224616868 [Eh]
	-----------------------------------------------------------

  Dipole Moment: [D]
     X:    -2.7573      Y:     2.0494      Z:     0.0384     Total:     3.4357

*** Psi4 exiting successfully. Buy a developer a beer!
