                               Psi4 1.3.2 release

  ==> Input File <==

--------------------------------------------------------------------------
#psi4
#
memory 32 gb

molecule  {
0 1
  O        3.0005300    -1.5493530     0.0754490
  N        0.8001441    -1.0267788    -0.3991333
  C        0.1960040     1.9504030    -0.2395030
  C        1.6857700     1.6448450    -0.3508570
  C       -0.7674710     0.7851500    -0.1025020
  C        2.1481850     0.6250380     0.6971500
  C       -0.4596220    -0.5879500    -0.1790540
  C        2.0510250    -0.7686880     0.1361100
  C       -2.1103850     1.1321340     0.1249900
  C       -1.4919760    -1.5397800    -0.0852490
  C       -3.1313420     0.1920050     0.2149350
  C       -2.8150140    -1.1632860     0.1069400
  H       -0.1141940     2.5504580    -1.1051150
  H        0.0480080     2.5950730     0.6372840
  H        1.9308140     1.2745600    -1.3520490
  H        2.2359360     2.5841340    -0.2253410
  H        1.5370720     0.7103830     1.6057590
  H        3.1934550     0.7649280     0.9813470
  H        0.8461440    -2.0798130    -0.7458600
  H       -2.3558010     2.1909910     0.2008090
  H       -1.2325710    -2.5958500    -0.1409630
  H       -4.1571650     0.5114050     0.3790120
  H       -3.5892060    -1.9233590     0.1747080
units angstrom
no_reorient  #important for SAPT in psi4, default
symmetry c1  #important for SAPT in psi4, default
}

set PROPERTIES_ORIGIN ["COM"]
properties('MP2/aug-cc-pvtz', properties = ['dipole'])
--------------------------------------------------------------------------

    Molecular point group: c1
  Charge       = 0
  Multiplicity = 1
  Basis Set: AUG-CC-PVTZ
    Blend: AUG-CC-PVTZ
  Basis Set: (AUG-CC-PVTZ AUX)
    Blend: AUG-CC-PVTZ-JKFIT

    Orbital Energies [Eh]
    ---------------------

    Doubly Occupied:

       1A    -20.533531     2A    -15.604101     3A    -11.362703
       4A    -11.294478     5A    -11.250832     6A    -11.245778
       7A    -11.243900     8A    -11.243253     9A    -11.243017
      10A    -11.241518    11A    -11.240266    12A    -11.237309
      13A     -1.383849    14A     -1.268711    15A     -1.149204
      16A     -1.101087    17A     -1.040096    18A     -1.015569
      19A     -0.952950    20A     -0.886903    21A     -0.845579
      22A     -0.810955    23A     -0.759143    24A     -0.719458
      25A     -0.682015    26A     -0.670741    27A     -0.645382
      28A     -0.630447    29A     -0.611431    30A     -0.604059
      31A     -0.599356    32A     -0.577177    33A     -0.559644
      34A     -0.542788    35A     -0.517914    36A     -0.510229
      37A     -0.499028    38A     -0.487017    39A     -0.482756
      40A     -0.440956    41A     -0.429827    42A     -0.339549
      43A     -0.310574

  @DF-RHF Final Energy:  -514.57782857095913

   => Energetics <=

    Nuclear Repulsion Energy =            676.6867638508580285
    One-Electron Energy =               -2040.8990191240616241
    Two-Electron Energy =                 849.6344267022443546
    Total Energy =                       -514.5778285709591273
  Basis Set: (AUG-CC-PVTZ AUX)
    Blend: AUG-CC-PVTZ-RI
    Molecular point group: c1

    Geometry (in Angstrom), charge = 0, multiplicity = 1:

       Center              X                  Y                   Z               Mass
    ------------   -----------------  -----------------  -----------------  -----------------
         O            2.993146847830    -1.516531907338     0.076032401978    15.994914619570
         N            0.792760947830    -0.993957707338    -0.398549898022    14.003074004430
         C            0.188620847830     1.983224092662    -0.238919598022    12.000000000000
         C            1.678386847830     1.677666092662    -0.350273598022    12.000000000000
         C           -0.774854152170     0.817971092662    -0.101918598022    12.000000000000
         C            2.140801847830     0.657859092662     0.697733401978    12.000000000000
         C           -0.467005152170    -0.555128907338    -0.178470598022    12.000000000000
         C            2.043641847830    -0.735866907338     0.136693401978    12.000000000000
         C           -2.117768152170     1.164955092662     0.125573401978    12.000000000000
         C           -1.499359152170    -1.506958907338    -0.084665598022    12.000000000000
         C           -3.138725152170     0.224826092662     0.215518401978    12.000000000000
         C           -2.822397152170    -1.130464907338     0.107523401978    12.000000000000
         H           -0.121577152170     2.583279092662    -1.104531598022     1.007825032230
         H            0.040624847830     2.627894092662     0.637867401978     1.007825032230
         H            1.923430847830     1.307381092662    -1.351465598022     1.007825032230
         H            2.228552847830     2.616955092662    -0.224757598022     1.007825032230
         H            1.529688847830     0.743204092662     1.606342401978     1.007825032230
         H            3.186071847830     0.797749092662     0.981930401978     1.007825032230
         H            0.838760847830    -2.046991907338    -0.745276598022     1.007825032230
         H           -2.363184152170     2.223812092662     0.201392401978     1.007825032230
         H           -1.239954152170    -2.563028907338    -0.140379598022     1.007825032230
         H           -4.164548152170     0.544226092662     0.379595401978     1.007825032230
         H           -3.596589152170    -1.890537907338     0.175291401978     1.007825032230

  Basis Set: AUG-CC-PVTZ
    Blend: AUG-CC-PVTZ
  Basis Set: (AUG-CC-PVTZ AUX)
    Blend: AUG-CC-PVTZ-JKFIT
	 Reference Energy          =    -514.5778285709591273 [Eh]
	 Singles Energy            =      -0.0000000000000000 [Eh]
	 Same-Spin Energy          =      -0.5599418534588158 [Eh]
	 Opposite-Spin Energy      =      -1.7463424885765997 [Eh]
	 Correlation Energy        =      -2.3062843420354153 [Eh]
	 Total Energy              =    -516.8841129129945102 [Eh]

	 ================> DF-SCS-MP2 Energies <==================
	-----------------------------------------------------------
	 SCS Same-Spin Scale       =       0.3333333333333333 [-]
	 SCS Opposite-Spin Scale   =       1.2000000000000000 [-]
	 SCS Same-Spin Energy      =      -0.1866472844862719 [Eh]
	 SCS Opposite-Spin Energy  =      -2.0956109862919194 [Eh]
	 SCS Correlation Energy    =      -2.2822582707781915 [Eh]
	 SCS Total Energy          =    -516.8600868417373704 [Eh]
	-----------------------------------------------------------

  Dipole Moment: [D]
     X:    -2.5342      Y:     1.9174      Z:     0.0062     Total:     3.1779

*** Psi4 exiting successfully. Buy a developer a beer!
