                               Psi4 1.3.2 release

  ==> Input File <==

--------------------------------------------------------------------------
#psi4
#
memory 32 gb

molecule  {
0 1
  O        3.0005300    -1.5493530     0.0754490
  N        0.8317470    -1.1153310    -0.4215630
  C        0.1960040     1.9504030    -0.2395030
  C        1.6857700     1.6448450    -0.3508570
  C       -0.7805082     0.7378558    -0.1020364
  C        2.1481850     0.6250380     0.6971500
  C       -0.4596220    -0.5879500    -0.1790540
  C        2.0510250    -0.7686880     0.1361100
  C       -2.1103850     1.1321340     0.1249900
  C       -1.4919760    -1.5397800    -0.0852490
  C       -3.1313420     0.1920050     0.2149350
  C       -2.8150140    -1.1632860     0.1069400
  H       -0.1141940     2.5504580    -1.1051150
  H        0.0480080     2.5950730     0.6372840
  H        1.9308140     1.2745600    -1.3520490
  H        2.2359360     2.5841340    -0.2253410
  H        1.5370720     0.7103830     1.6057590
  H        3.1934550     0.7649280     0.9813470
  H        0.8461440    -2.0798130    -0.7458600
  H       -2.3558010     2.1909910     0.2008090
  H       -1.2325710    -2.5958500    -0.1409630
  H       -4.1571650     0.5114050     0.3790120
  H       -3.5892060    -1.9233590     0.1747080
units angstrom
no_reorient  #important for SAPT in psi4, default
symmetry c1  #important for SAPT in psi4, default
}

set PROPERTIES_ORIGIN ["COM"]
properties('MP2/aug-cc-pvtz', properties = ['dipole'])
--------------------------------------------------------------------------

    Molecular point group: c1
  Charge       = 0
  Multiplicity = 1
  Basis Set: AUG-CC-PVTZ
    Blend: AUG-CC-PVTZ
  Basis Set: (AUG-CC-PVTZ AUX)
    Blend: AUG-CC-PVTZ-JKFIT

    Orbital Energies [Eh]
    ---------------------

    Doubly Occupied:

       1A    -20.525373     2A    -15.595987     3A    -11.356760
       4A    -11.292358     5A    -11.251928     6A    -11.246472
       7A    -11.246455     8A    -11.245487     9A    -11.244892
      10A    -11.242217    11A    -11.241008    12A    -11.240234
      13A     -1.379859    14A     -1.254124    15A     -1.153836
      16A     -1.098466    17A     -1.038064    18A     -1.017597
      19A     -0.958039    20A     -0.876929    21A     -0.846959
      22A     -0.808968    23A     -0.764851    24A     -0.723305
      25A     -0.680976    26A     -0.670205    27A     -0.644192
      28A     -0.631594    29A     -0.611266    30A     -0.603353
      31A     -0.599812    32A     -0.577165    33A     -0.564228
      34A     -0.541898    35A     -0.519980    36A     -0.509960
      37A     -0.499586    38A     -0.492431    39A     -0.474311
      40A     -0.435383    41A     -0.425684    42A     -0.340990
      43A     -0.320637

  @DF-RHF Final Energy:  -514.59279147027814

   => Energetics <=

    Nuclear Repulsion Energy =            675.4414029875182450
    One-Electron Energy =               -2038.4807535706145245
    Two-Electron Energy =                 848.4465591128180222
    Total Energy =                       -514.5927914702781436
  Basis Set: (AUG-CC-PVTZ AUX)
    Blend: AUG-CC-PVTZ-RI
    Molecular point group: c1

    Geometry (in Angstrom), charge = 0, multiplicity = 1:

       Center              X                  Y                   Z               Mass
    ------------   -----------------  -----------------  -----------------  -----------------
         O            2.991370810273    -1.505310850672     0.077947535862    15.994914619570
         N            0.822587810273    -1.071288850672    -0.419064464138    14.003074004430
         C            0.186844810273     1.994445149328    -0.237004464138    12.000000000000
         C            1.676610810273     1.688887149328    -0.348358464138    12.000000000000
         C           -0.789667389727     0.781897949328    -0.099537864138    12.000000000000
         C            2.139025810273     0.669080149328     0.699648535862    12.000000000000
         C           -0.468781189727    -0.543907850672    -0.176555464138    12.000000000000
         C            2.041865810273    -0.724645850672     0.138608535862    12.000000000000
         C           -2.119544189727     1.176176149328     0.127488535862    12.000000000000
         C           -1.501135189727    -1.495737850672    -0.082750464138    12.000000000000
         C           -3.140501189727     0.236047149328     0.217433535862    12.000000000000
         C           -2.824173189727    -1.119243850672     0.109438535862    12.000000000000
         H           -0.123353189727     2.594500149328    -1.102616464138     1.007825032230
         H            0.038848810273     2.639115149328     0.639782535862     1.007825032230
         H            1.921654810273     1.318602149328    -1.349550464138     1.007825032230
         H            2.226776810273     2.628176149328    -0.222842464138     1.007825032230
         H            1.527912810273     0.754425149328     1.608257535862     1.007825032230
         H            3.184295810273     0.808970149328     0.983845535862     1.007825032230
         H            0.836984810273    -2.035770850672    -0.743361464138     1.007825032230
         H           -2.364960189727     2.235033149328     0.203307535862     1.007825032230
         H           -1.241730189727    -2.551807850672    -0.138464464138     1.007825032230
         H           -4.166324189727     0.555447149328     0.381510535862     1.007825032230
         H           -3.598365189727    -1.879316850672     0.177206535862     1.007825032230

  Basis Set: AUG-CC-PVTZ
    Blend: AUG-CC-PVTZ
  Basis Set: (AUG-CC-PVTZ AUX)
    Blend: AUG-CC-PVTZ-JKFIT
	 Reference Energy          =    -514.5927914702781436 [Eh]
	 Singles Energy            =      -0.0000000000000000 [Eh]
	 Same-Spin Energy          =      -0.5573964254044550 [Eh]
	 Opposite-Spin Energy      =      -1.7425281568605278 [Eh]
	 Correlation Energy        =      -2.2999245822649828 [Eh]
	 Total Energy              =    -516.8927160525431646 [Eh]

	 ================> DF-SCS-MP2 Energies <==================
	-----------------------------------------------------------
	 SCS Same-Spin Scale       =       0.3333333333333333 [-]
	 SCS Opposite-Spin Scale   =       1.2000000000000000 [-]
	 SCS Same-Spin Energy      =      -0.1857988084681517 [Eh]
	 SCS Opposite-Spin Energy  =      -2.0910337882326333 [Eh]
	 SCS Correlation Energy    =      -2.2768325967007850 [Eh]
	 SCS Total Energy          =    -516.8696240669788722 [Eh]
	-----------------------------------------------------------

  Dipole Moment: [D]
     X:    -2.8086      Y:     2.0434      Z:     0.0458     Total:     3.4736

*** Psi4 exiting successfully. Buy a developer a beer!
