                               Psi4 1.3.2 release

  ==> Input File <==

--------------------------------------------------------------------------
#psi4
#
memory 32 gb

molecule  {
0 1
  O        3.0005300    -1.5493530     0.0754490
  N        0.8317470    -1.1153310    -0.4215630
  C        0.2375032     2.1028865    -0.2171061
  C        1.6857700     1.6448450    -0.3508570
  C       -0.7674710     0.7851500    -0.1025020
  C        2.1481850     0.6250380     0.6971500
  C       -0.4596220    -0.5879500    -0.1790540
  C        2.0510250    -0.7686880     0.1361100
  C       -2.1103850     1.1321340     0.1249900
  C       -1.4919760    -1.5397800    -0.0852490
  C       -3.1313420     0.1920050     0.2149350
  C       -2.8150140    -1.1632860     0.1069400
  H       -0.1141940     2.5504580    -1.1051150
  H        0.0480080     2.5950730     0.6372840
  H        1.9308140     1.2745600    -1.3520490
  H        2.2359360     2.5841340    -0.2253410
  H        1.5370720     0.7103830     1.6057590
  H        3.1934550     0.7649280     0.9813470
  H        0.8461440    -2.0798130    -0.7458600
  H       -2.3558010     2.1909910     0.2008090
  H       -1.2325710    -2.5958500    -0.1409630
  H       -4.1571650     0.5114050     0.3790120
  H       -3.5892060    -1.9233590     0.1747080
units angstrom
no_reorient  #important for SAPT in psi4, default
symmetry c1  #important for SAPT in psi4, default
}

set PROPERTIES_ORIGIN ["COM"]
properties('MP2/aug-cc-pvtz', properties = ['dipole'])
--------------------------------------------------------------------------

    Molecular point group: c1
  Charge       = 0
  Multiplicity = 1
  Basis Set: AUG-CC-PVTZ
    Blend: AUG-CC-PVTZ
  Basis Set: (AUG-CC-PVTZ AUX)
    Blend: AUG-CC-PVTZ-JKFIT

    Orbital Energies [Eh]
    ---------------------

    Doubly Occupied:

       1A    -20.525664     2A    -15.595166     3A    -11.356901
       4A    -11.296906     5A    -11.256446     6A    -11.245337
       7A    -11.244340     8A    -11.244164     9A    -11.243473
      10A    -11.243211    11A    -11.242365    12A    -11.238114
      13A     -1.379965    14A     -1.251294    15A     -1.147234
      16A     -1.098487    17A     -1.031357    18A     -1.014704
      19A     -0.963992    20A     -0.875294    21A     -0.839162
      22A     -0.814954    23A     -0.764944    24A     -0.721789
      25A     -0.683240    26A     -0.665574    27A     -0.646182
      28A     -0.627186    29A     -0.621930    30A     -0.609664
      31A     -0.599825    32A     -0.573759    33A     -0.560210
      34A     -0.544041    35A     -0.519422    36A     -0.513247
      37A     -0.506114    38A     -0.497793    39A     -0.451799
      40A     -0.433814    41A     -0.426717    42A     -0.341966
      43A     -0.315587

  @DF-RHF Final Energy:  -514.57389154660154

   => Energetics <=

    Nuclear Repulsion Energy =            672.4399857007779246
    One-Electron Energy =               -2032.4810853637868604
    Two-Electron Energy =                 845.4672081164073916
    Total Energy =                       -514.5738915466015442
  Basis Set: (AUG-CC-PVTZ AUX)
    Blend: AUG-CC-PVTZ-RI
    Molecular point group: c1

    Geometry (in Angstrom), charge = 0, multiplicity = 1:

       Center              X                  Y                   Z               Mass
    ------------   -----------------  -----------------  -----------------  -----------------
         O            2.987308106715    -1.520193343333     0.076313757861    15.994914619570
         N            0.818525106715    -1.086171343333    -0.420698242139    14.003074004430
         C            0.224281306715     2.132046156667    -0.216241342139    12.000000000000
         C            1.672548106715     1.674004656667    -0.349992242139    12.000000000000
         C           -0.780692893285     0.814309656667    -0.101637242139    12.000000000000
         C            2.134963106715     0.654197656667     0.698014757861    12.000000000000
         C           -0.472843893285    -0.558790343333    -0.178189242139    12.000000000000
         C            2.037803106715    -0.739528343333     0.136974757861    12.000000000000
         C           -2.123606893285     1.161293656667     0.125854757861    12.000000000000
         C           -1.505197893285    -1.510620343333    -0.084384242139    12.000000000000
         C           -3.144563893285     0.221164656667     0.215799757861    12.000000000000
         C           -2.828235893285    -1.134126343333     0.107804757861    12.000000000000
         H           -0.127415893285     2.579617656667    -1.104250242139     1.007825032230
         H            0.034786106715     2.624232656667     0.638148757861     1.007825032230
         H            1.917592106715     1.303719656667    -1.351184242139     1.007825032230
         H            2.222714106715     2.613293656667    -0.224476242139     1.007825032230
         H            1.523850106715     0.739542656667     1.606623757861     1.007825032230
         H            3.180233106715     0.794087656667     0.982211757861     1.007825032230
         H            0.832922106715    -2.050653343333    -0.744995242139     1.007825032230
         H           -2.369022893285     2.220150656667     0.201673757861     1.007825032230
         H           -1.245792893285    -2.566690343333    -0.140098242139     1.007825032230
         H           -4.170386893285     0.540564656667     0.379876757861     1.007825032230
         H           -3.602427893285    -1.894199343333     0.175572757861     1.007825032230

  Basis Set: AUG-CC-PVTZ
    Blend: AUG-CC-PVTZ
  Basis Set: (AUG-CC-PVTZ AUX)
    Blend: AUG-CC-PVTZ-JKFIT
	 Reference Energy          =    -514.5738915466015442 [Eh]
	 Singles Energy            =      -0.0000000000000000 [Eh]
	 Same-Spin Energy          =      -0.5575359179714505 [Eh]
	 Opposite-Spin Energy      =      -1.7431870148067354 [Eh]
	 Correlation Energy        =      -2.3007229327781857 [Eh]
	 Total Energy              =    -516.8746144793797157 [Eh]

	 ================> DF-SCS-MP2 Energies <==================
	-----------------------------------------------------------
	 SCS Same-Spin Scale       =       0.3333333333333333 [-]
	 SCS Opposite-Spin Scale   =       1.2000000000000000 [-]
	 SCS Same-Spin Energy      =      -0.1858453059904835 [Eh]
	 SCS Opposite-Spin Energy  =      -2.0918244177680823 [Eh]
	 SCS Correlation Energy    =      -2.2776697237585659 [Eh]
	 SCS Total Energy          =    -516.8515612703600937 [Eh]
	-----------------------------------------------------------

  Dipole Moment: [D]
     X:    -2.7098      Y:     2.1077      Z:     0.0516     Total:     3.4333

*** Psi4 exiting successfully. Buy a developer a beer!
