                               Psi4 1.3.2 release

  ==> Input File <==

--------------------------------------------------------------------------
#psi4
#
memory 32 gb

molecule  {
0 1
  O        3.0005300    -1.5493530     0.0754490
  N        0.8317470    -1.1153310    -0.4215630
  C        0.1960040     1.9504030    -0.2395030
  C        1.6857700     1.6448450    -0.3508570
  C       -0.7936507     0.8030078    -0.1449738
  C        2.1481850     0.6250380     0.6971500
  C       -0.4596220    -0.5879500    -0.1790540
  C        2.0510250    -0.7686880     0.1361100
  C       -2.1103850     1.1321340     0.1249900
  C       -1.4919760    -1.5397800    -0.0852490
  C       -3.1313420     0.1920050     0.2149350
  C       -2.8150140    -1.1632860     0.1069400
  H       -0.1141940     2.5504580    -1.1051150
  H        0.0480080     2.5950730     0.6372840
  H        1.9308140     1.2745600    -1.3520490
  H        2.2359360     2.5841340    -0.2253410
  H        1.5370720     0.7103830     1.6057590
  H        3.1934550     0.7649280     0.9813470
  H        0.8461440    -2.0798130    -0.7458600
  H       -2.3558010     2.1909910     0.2008090
  H       -1.2325710    -2.5958500    -0.1409630
  H       -4.1571650     0.5114050     0.3790120
  H       -3.5892060    -1.9233590     0.1747080
units angstrom
no_reorient  #important for SAPT in psi4, default
symmetry c1  #important for SAPT in psi4, default
}

set PROPERTIES_ORIGIN ["COM"]
properties('MP2/aug-cc-pvtz', properties = ['dipole'])
--------------------------------------------------------------------------

    Molecular point group: c1
  Charge       = 0
  Multiplicity = 1
  Basis Set: AUG-CC-PVTZ
    Blend: AUG-CC-PVTZ
  Basis Set: (AUG-CC-PVTZ AUX)
    Blend: AUG-CC-PVTZ-JKFIT

    Orbital Energies [Eh]
    ---------------------

    Doubly Occupied:

       1A    -20.525996     2A    -15.596838     3A    -11.357209
       4A    -11.299212     5A    -11.255746     6A    -11.246031
       7A    -11.244625     8A    -11.244080     9A    -11.243306
      10A    -11.242719    11A    -11.242459    12A    -11.239693
      13A     -1.380361    14A     -1.252551    15A     -1.152534
      16A     -1.101787    17A     -1.039468    18A     -1.016360
      19A     -0.956611    20A     -0.881029    21A     -0.841110
      22A     -0.808597    23A     -0.766856    24A     -0.721816
      25A     -0.681947    26A     -0.670561    27A     -0.646571
      28A     -0.628687    29A     -0.610513    30A     -0.603782
      31A     -0.600745    32A     -0.579362    33A     -0.564382
      34A     -0.543023    35A     -0.517614    36A     -0.510876
      37A     -0.498549    38A     -0.490461    39A     -0.482845
      40A     -0.435188    41A     -0.426156    42A     -0.342950
      43A     -0.313959

  @DF-RHF Final Energy:  -514.59265203985672

   => Energetics <=

    Nuclear Repulsion Energy =            674.7757469052730812
    One-Electron Energy =               -2037.1264691769506499
    Two-Electron Energy =                 847.7580702318208523
    Total Energy =                       -514.5926520398567163
  Basis Set: (AUG-CC-PVTZ AUX)
    Blend: AUG-CC-PVTZ-RI
    Molecular point group: c1

    Geometry (in Angstrom), charge = 0, multiplicity = 1:

       Center              X                  Y                   Z               Mass
    ------------   -----------------  -----------------  -----------------  -----------------
         O            2.992349864291    -1.510164366164     0.081146168844    15.994914619570
         N            0.823566864291    -1.076142366164    -0.415865831156    14.003074004430
         C            0.187823864291     1.989591633836    -0.233805831156    12.000000000000
         C            1.677589864291     1.684033633836    -0.345159831156    12.000000000000
         C           -0.801830835709     0.842196433836    -0.139276631156    12.000000000000
         C            2.140004864291     0.664226633836     0.702847168844    12.000000000000
         C           -0.467802135709    -0.548761366164    -0.173356831156    12.000000000000
         C            2.042844864291    -0.729499366164     0.141807168844    12.000000000000
         C           -2.118565135709     1.171322633836     0.130687168844    12.000000000000
         C           -1.500156135709    -1.500591366164    -0.079551831156    12.000000000000
         C           -3.139522135709     0.231193633836     0.220632168844    12.000000000000
         C           -2.823194135709    -1.124097366164     0.112637168844    12.000000000000
         H           -0.122374135709     2.589646633836    -1.099417831156     1.007825032230
         H            0.039827864291     2.634261633836     0.642981168844     1.007825032230
         H            1.922633864291     1.313748633836    -1.346351831156     1.007825032230
         H            2.227755864291     2.623322633836    -0.219643831156     1.007825032230
         H            1.528891864291     0.749571633836     1.611456168844     1.007825032230
         H            3.185274864291     0.804116633836     0.987044168844     1.007825032230
         H            0.837963864291    -2.040624366164    -0.740162831156     1.007825032230
         H           -2.363981135709     2.230179633836     0.206506168844     1.007825032230
         H           -1.240751135709    -2.556661366164    -0.135265831156     1.007825032230
         H           -4.165345135709     0.550593633836     0.384709168844     1.007825032230
         H           -3.597386135709    -1.884170366164     0.180405168844     1.007825032230

  Basis Set: AUG-CC-PVTZ
    Blend: AUG-CC-PVTZ
  Basis Set: (AUG-CC-PVTZ AUX)
    Blend: AUG-CC-PVTZ-JKFIT
	 Reference Energy          =    -514.5926520398567163 [Eh]
	 Singles Energy            =      -0.0000000000000000 [Eh]
	 Same-Spin Energy          =      -0.5579377460308389 [Eh]
	 Opposite-Spin Energy      =      -1.7430645377063656 [Eh]
	 Correlation Energy        =      -2.3010022837372044 [Eh]
	 Total Energy              =    -516.8936543235938643 [Eh]

	 ================> DF-SCS-MP2 Energies <==================
	-----------------------------------------------------------
	 SCS Same-Spin Scale       =       0.3333333333333333 [-]
	 SCS Opposite-Spin Scale   =       1.2000000000000000 [-]
	 SCS Same-Spin Energy      =      -0.1859792486769463 [Eh]
	 SCS Opposite-Spin Energy  =      -2.0916774452476385 [Eh]
	 SCS Correlation Energy    =      -2.2776566939245848 [Eh]
	 SCS Total Energy          =    -516.8703087337812576 [Eh]
	-----------------------------------------------------------

  Dipole Moment: [D]
     X:    -2.7109      Y:     2.0571      Z:     0.0458     Total:     3.4034

*** Psi4 exiting successfully. Buy a developer a beer!
