                               Psi4 1.3.2 release

  ==> Input File <==

--------------------------------------------------------------------------
#psi4
#
memory 32 gb

molecule  {
0 1
  O        2.9492052    -1.6037698     0.0332124
  N        0.8317470    -1.1153310    -0.4215630
  C        0.1960040     1.9504030    -0.2395030
  C        1.6857700     1.6448450    -0.3508570
  C       -0.7674710     0.7851500    -0.1025020
  C        2.1481850     0.6250380     0.6971500
  C       -0.4596220    -0.5879500    -0.1790540
  C        2.0510250    -0.7686880     0.1361100
  C       -2.1103850     1.1321340     0.1249900
  C       -1.4919760    -1.5397800    -0.0852490
  C       -3.1313420     0.1920050     0.2149350
  C       -2.8150140    -1.1632860     0.1069400
  H       -0.1141940     2.5504580    -1.1051150
  H        0.0480080     2.5950730     0.6372840
  H        1.9308140     1.2745600    -1.3520490
  H        2.2359360     2.5841340    -0.2253410
  H        1.5370720     0.7103830     1.6057590
  H        3.1934550     0.7649280     0.9813470
  H        0.8461440    -2.0798130    -0.7458600
  H       -2.3558010     2.1909910     0.2008090
  H       -1.2325710    -2.5958500    -0.1409630
  H       -4.1571650     0.5114050     0.3790120
  H       -3.5892060    -1.9233590     0.1747080
units angstrom
no_reorient  #important for SAPT in psi4, default
symmetry c1  #important for SAPT in psi4, default
}

set PROPERTIES_ORIGIN ["COM"]
properties('MP2/aug-cc-pvtz', properties = ['dipole'])
--------------------------------------------------------------------------

    Molecular point group: c1
  Charge       = 0
  Multiplicity = 1
  Basis Set: AUG-CC-PVTZ
    Blend: AUG-CC-PVTZ
  Basis Set: (AUG-CC-PVTZ AUX)
    Blend: AUG-CC-PVTZ-JKFIT

    Orbital Energies [Eh]
    ---------------------

    Doubly Occupied:

       1A    -20.524890     2A    -15.591841     3A    -11.357388
       4A    -11.295320     5A    -11.254079     6A    -11.247280
       7A    -11.245527     8A    -11.245475     9A    -11.244317
      10A    -11.244179    11A    -11.243024    12A    -11.238749
      13A     -1.381880    14A     -1.248712    15A     -1.149913
      16A     -1.103303    17A     -1.039561    18A     -1.014572
      19A     -0.958306    20A     -0.880195    21A     -0.841563
      22A     -0.808681    23A     -0.765245    24A     -0.720801
      25A     -0.681783    26A     -0.670075    27A     -0.646142
      28A     -0.628322    29A     -0.611221    30A     -0.603198
      31A     -0.601059    32A     -0.579328    33A     -0.564149
      34A     -0.542513    35A     -0.516955    36A     -0.511767
      37A     -0.498278    38A     -0.492354    39A     -0.483503
      40A     -0.433014    41A     -0.427884    42A     -0.339766
      43A     -0.314019

  @DF-RHF Final Energy:  -514.59294056638259

   => Energetics <=

    Nuclear Repulsion Energy =            675.3213200639313527
    One-Electron Energy =               -2038.2482576341126332
    Two-Electron Energy =                 848.3339970037986859
    Total Energy =                       -514.5929405663825946
  Basis Set: (AUG-CC-PVTZ AUX)
    Blend: AUG-CC-PVTZ-RI
    Molecular point group: c1

    Geometry (in Angstrom), charge = 0, multiplicity = 1:

       Center              X                  Y                   Z               Mass
    ------------   -----------------  -----------------  -----------------  -----------------
         O            2.944171119719    -1.557847503981     0.039939523060    15.994914619570
         N            0.826712919719    -1.069408703981    -0.414835876940    14.003074004430
         C            0.190969919719     1.996325296019    -0.232775876940    12.000000000000
         C            1.680735919719     1.690767296019    -0.344129876940    12.000000000000
         C           -0.772505080281     0.831072296019    -0.095774876940    12.000000000000
         C            2.143150919719     0.670960296019     0.703877123060    12.000000000000
         C           -0.464656080281    -0.542027703981    -0.172326876940    12.000000000000
         C            2.045990919719    -0.722765703981     0.142837123060    12.000000000000
         C           -2.115419080281     1.178056296019     0.131717123060    12.000000000000
         C           -1.497010080281    -1.493857703981    -0.078521876940    12.000000000000
         C           -3.136376080281     0.237927296019     0.221662123060    12.000000000000
         C           -2.820048080281    -1.117363703981     0.113667123060    12.000000000000
         H           -0.119228080281     2.596380296019    -1.098387876940     1.007825032230
         H            0.042973919719     2.640995296019     0.644011123060     1.007825032230
         H            1.925779919719     1.320482296019    -1.345321876940     1.007825032230
         H            2.230901919719     2.630056296019    -0.218613876940     1.007825032230
         H            1.532037919719     0.756305296019     1.612486123060     1.007825032230
         H            3.188420919719     0.810850296019     0.988074123060     1.007825032230
         H            0.841109919719    -2.033890703981    -0.739132876940     1.007825032230
         H           -2.360835080281     2.236913296019     0.207536123060     1.007825032230
         H           -1.237605080281    -2.549927703981    -0.134235876940     1.007825032230
         H           -4.162199080281     0.557327296019     0.385739123060     1.007825032230
         H           -3.594240080281    -1.877436703981     0.181435123060     1.007825032230

  Basis Set: AUG-CC-PVTZ
    Blend: AUG-CC-PVTZ
  Basis Set: (AUG-CC-PVTZ AUX)
    Blend: AUG-CC-PVTZ-JKFIT
	 Reference Energy          =    -514.5929405663825946 [Eh]
	 Singles Energy            =      -0.0000000000000000 [Eh]
	 Same-Spin Energy          =      -0.5579479111856227 [Eh]
	 Opposite-Spin Energy      =      -1.7430690960774413 [Eh]
	 Correlation Energy        =      -2.3010170072630638 [Eh]
	 Total Energy              =    -516.8939575736457073 [Eh]

	 ================> DF-SCS-MP2 Energies <==================
	-----------------------------------------------------------
	 SCS Same-Spin Scale       =       0.3333333333333333 [-]
	 SCS Opposite-Spin Scale   =       1.2000000000000000 [-]
	 SCS Same-Spin Energy      =      -0.1859826370618742 [Eh]
	 SCS Opposite-Spin Energy  =      -2.0916829152929295 [Eh]
	 SCS Correlation Energy    =      -2.2776655523548035 [Eh]
	 SCS Total Energy          =    -516.8706061187374416 [Eh]
	-----------------------------------------------------------

  Dipole Moment: [D]
     X:    -2.5631      Y:     2.2074      Z:     0.1277     Total:     3.3850

*** Psi4 exiting successfully. Buy a developer a beer!
