                               Psi4 1.3.2 release

  ==> Input File <==

--------------------------------------------------------------------------
#psi4
#
memory 32 gb

molecule  {
0 1
  O        3.0005300    -1.5493530     0.0754490
  N        0.8317470    -1.1153310    -0.4215630
  C        0.1960040     1.9504030    -0.2395030
  C        1.6907587     1.6709335    -0.3525226
  C       -0.7674710     0.7851500    -0.1025020
  C        2.1481850     0.6250380     0.6971500
  C       -0.4596220    -0.5879500    -0.1790540
  C        2.0510250    -0.7686880     0.1361100
  C       -2.1103850     1.1321340     0.1249900
  C       -1.4919760    -1.5397800    -0.0852490
  C       -3.1313420     0.1920050     0.2149350
  C       -2.8150140    -1.1632860     0.1069400
  H       -0.1141940     2.5504580    -1.1051150
  H        0.0480080     2.5950730     0.6372840
  H        1.9308140     1.2745600    -1.3520490
  H        2.2359360     2.5841340    -0.2253410
  H        1.5370720     0.7103830     1.6057590
  H        3.1934550     0.7649280     0.9813470
  H        0.8461440    -2.0798130    -0.7458600
  H       -2.3558010     2.1909910     0.2008090
  H       -1.2325710    -2.5958500    -0.1409630
  H       -4.1571650     0.5114050     0.3790120
  H       -3.5892060    -1.9233590     0.1747080
units angstrom
no_reorient  #important for SAPT in psi4, default
symmetry c1  #important for SAPT in psi4, default
}

set PROPERTIES_ORIGIN ["COM"]
properties('MP2/aug-cc-pvtz', properties = ['dipole'])
--------------------------------------------------------------------------

    Molecular point group: c1
  Charge       = 0
  Multiplicity = 1
  Basis Set: AUG-CC-PVTZ
    Blend: AUG-CC-PVTZ
  Basis Set: (AUG-CC-PVTZ AUX)
    Blend: AUG-CC-PVTZ-JKFIT

    Orbital Energies [Eh]
    ---------------------

    Doubly Occupied:

       1A    -20.525624     2A    -15.596152     3A    -11.357092
       4A    -11.297364     5A    -11.255728     6A    -11.246545
       7A    -11.245234     8A    -11.244831     9A    -11.244481
      10A    -11.243081    11A    -11.241855    12A    -11.239952
      13A     -1.379981    14A     -1.252880    15A     -1.151591
      16A     -1.100193    17A     -1.037908    18A     -1.016214
      19A     -0.957265    20A     -0.881491    21A     -0.842910
      22A     -0.809127    23A     -0.765454    24A     -0.721456
      25A     -0.680452    26A     -0.671055    27A     -0.647786
      28A     -0.628721    29A     -0.610601    30A     -0.603158
      31A     -0.601129    32A     -0.579219    33A     -0.564561
      34A     -0.543568    35A     -0.517544    36A     -0.509327
      37A     -0.497181    38A     -0.489349    39A     -0.485682
      40A     -0.435283    41A     -0.426188    42A     -0.340617
      43A     -0.316078

  @DF-RHF Final Energy:  -514.59385500180679

   => Energetics <=

    Nuclear Repulsion Energy =            674.6344996513274737
    One-Electron Energy =               -2036.8528909650619880
    Two-Electron Energy =                 847.6245363119278409
    Total Energy =                       -514.5938550018067872
  Basis Set: (AUG-CC-PVTZ AUX)
    Blend: AUG-CC-PVTZ-RI
    Molecular point group: c1

    Geometry (in Angstrom), charge = 0, multiplicity = 1:

       Center              X                  Y                   Z               Mass
    ------------   -----------------  -----------------  -----------------  -----------------
         O            2.990027966080    -1.510777514340     0.078106300170    15.994914619570
         N            0.821244966080    -1.076755514340    -0.418905699830    14.003074004430
         C            0.185501966080     1.988978485660    -0.236845699830    12.000000000000
         C            1.680256666080     1.709508985660    -0.349865299830    12.000000000000
         C           -0.777973033920     0.823725485660    -0.099844699830    12.000000000000
         C            2.137682966080     0.663613485660     0.699807300170    12.000000000000
         C           -0.470124033920    -0.549374514340    -0.176396699830    12.000000000000
         C            2.040522966080    -0.730112514340     0.138767300170    12.000000000000
         C           -2.120887033920     1.170709485660     0.127647300170    12.000000000000
         C           -1.502478033920    -1.501204514340    -0.082591699830    12.000000000000
         C           -3.141844033920     0.230580485660     0.217592300170    12.000000000000
         C           -2.825516033920    -1.124710514340     0.109597300170    12.000000000000
         H           -0.124696033920     2.589033485660    -1.102457699830     1.007825032230
         H            0.037505966080     2.633648485660     0.639941300170     1.007825032230
         H            1.920311966080     1.313135485660    -1.349391699830     1.007825032230
         H            2.225433966080     2.622709485660    -0.222683699830     1.007825032230
         H            1.526569966080     0.748958485660     1.608416300170     1.007825032230
         H            3.182952966080     0.803503485660     0.984004300170     1.007825032230
         H            0.835641966080    -2.041237514340    -0.743202699830     1.007825032230
         H           -2.366303033920     2.229566485660     0.203466300170     1.007825032230
         H           -1.243073033920    -2.557274514340    -0.138305699830     1.007825032230
         H           -4.167667033920     0.549980485660     0.381669300170     1.007825032230
         H           -3.599708033920    -1.884783514340     0.177365300170     1.007825032230

  Basis Set: AUG-CC-PVTZ
    Blend: AUG-CC-PVTZ
  Basis Set: (AUG-CC-PVTZ AUX)
    Blend: AUG-CC-PVTZ-JKFIT
	 Reference Energy          =    -514.5938550018067872 [Eh]
	 Singles Energy            =      -0.0000000000000000 [Eh]
	 Same-Spin Energy          =      -0.5577605858198399 [Eh]
	 Opposite-Spin Energy      =      -1.7429732562551274 [Eh]
	 Correlation Energy        =      -2.3007338420749672 [Eh]
	 Total Energy              =    -516.8945888438817065 [Eh]

	 ================> DF-SCS-MP2 Energies <==================
	-----------------------------------------------------------
	 SCS Same-Spin Scale       =       0.3333333333333333 [-]
	 SCS Opposite-Spin Scale   =       1.2000000000000000 [-]
	 SCS Same-Spin Energy      =      -0.1859201952732800 [Eh]
	 SCS Opposite-Spin Energy  =      -2.0915679075061528 [Eh]
	 SCS Correlation Energy    =      -2.2774881027794329 [Eh]
	 SCS Total Energy          =    -516.8713431045862308 [Eh]
	-----------------------------------------------------------

  Dipole Moment: [D]
     X:    -2.7440      Y:     2.0719      Z:     0.0328     Total:     3.4386

*** Psi4 exiting successfully. Buy a developer a beer!
