                               Psi4 1.3.2 release

  ==> Input File <==

--------------------------------------------------------------------------
#psi4
#
memory 32 gb

molecule  {
0 1
  O        3.0005300    -1.5493530     0.0754490
  N        0.8317470    -1.1153310    -0.4215630
  C        0.1960040     1.9504030    -0.2395030
  C        1.6857700     1.6448450    -0.3508570
  C       -0.7539389     0.7767522    -0.0813255
  C        2.1481850     0.6250380     0.6971500
  C       -0.4596220    -0.5879500    -0.1790540
  C        2.0510250    -0.7686880     0.1361100
  C       -2.1103850     1.1321340     0.1249900
  C       -1.4919760    -1.5397800    -0.0852490
  C       -3.1313420     0.1920050     0.2149350
  C       -2.8150140    -1.1632860     0.1069400
  H       -0.1141940     2.5504580    -1.1051150
  H        0.0480080     2.5950730     0.6372840
  H        1.9308140     1.2745600    -1.3520490
  H        2.2359360     2.5841340    -0.2253410
  H        1.5370720     0.7103830     1.6057590
  H        3.1934550     0.7649280     0.9813470
  H        0.8461440    -2.0798130    -0.7458600
  H       -2.3558010     2.1909910     0.2008090
  H       -1.2325710    -2.5958500    -0.1409630
  H       -4.1571650     0.5114050     0.3790120
  H       -3.5892060    -1.9233590     0.1747080
units angstrom
no_reorient  #important for SAPT in psi4, default
symmetry c1  #important for SAPT in psi4, default
}

set PROPERTIES_ORIGIN ["COM"]
properties('MP2/aug-cc-pvtz', properties = ['dipole'])
--------------------------------------------------------------------------

    Molecular point group: c1
  Charge       = 0
  Multiplicity = 1
  Basis Set: AUG-CC-PVTZ
    Blend: AUG-CC-PVTZ
  Basis Set: (AUG-CC-PVTZ AUX)
    Blend: AUG-CC-PVTZ-JKFIT

    Orbital Energies [Eh]
    ---------------------

    Doubly Occupied:

       1A    -20.525457     2A    -15.595763     3A    -11.356857
       4A    -11.296473     5A    -11.255018     6A    -11.246798
       7A    -11.246445     8A    -11.245160     9A    -11.244644
      10A    -11.242712    11A    -11.241808    12A    -11.239917
      13A     -1.379926    14A     -1.253247    15A     -1.150962
      16A     -1.101829    17A     -1.038762    18A     -1.015882
      19A     -0.957412    20A     -0.880204    21A     -0.843649
      22A     -0.808715    23A     -0.764982    24A     -0.721753
      25A     -0.681545    26A     -0.671099    27A     -0.645921
      28A     -0.629063    29A     -0.611851    30A     -0.602717
      31A     -0.600976    32A     -0.578540    33A     -0.564545
      34A     -0.541612    35A     -0.517646    36A     -0.510809
      37A     -0.497978    38A     -0.493221    39A     -0.481783
      40A     -0.435340    41A     -0.425788    42A     -0.339383
      43A     -0.317025

  @DF-RHF Final Energy:  -514.59405994367762

   => Energetics <=

    Nuclear Repulsion Energy =            675.1873646127842221
    One-Electron Energy =               -2037.9604222626849150
    Two-Electron Energy =                 848.1789977062230719
    Total Energy =                       -514.5940599436776210
  Basis Set: (AUG-CC-PVTZ AUX)
    Blend: AUG-CC-PVTZ-RI
    Molecular point group: c1

    Geometry (in Angstrom), charge = 0, multiplicity = 1:

       Center              X                  Y                   Z               Mass
    ------------   -----------------  -----------------  -----------------  -----------------
         O            2.989391523235    -1.508208448290     0.076404671882    15.994914619570
         N            0.820608523235    -1.074186448290    -0.420607328118    14.003074004430
         C            0.184865523235     1.991547551710    -0.238547328118    12.000000000000
         C            1.674631523235     1.685989551710    -0.349901328118    12.000000000000
         C           -0.765077376765     0.817896751710    -0.080369828118    12.000000000000
         C            2.137046523235     0.666182551710     0.698105671882    12.000000000000
         C           -0.470760476765    -0.546805448290    -0.178098328118    12.000000000000
         C            2.039886523235    -0.727543448290     0.137065671882    12.000000000000
         C           -2.121523476765     1.173278551710     0.125945671882    12.000000000000
         C           -1.503114476765    -1.498635448290    -0.084293328118    12.000000000000
         C           -3.142480476765     0.233149551710     0.215890671882    12.000000000000
         C           -2.826152476765    -1.122141448290     0.107895671882    12.000000000000
         H           -0.125332476765     2.591602551710    -1.104159328118     1.007825032230
         H            0.036869523235     2.636217551710     0.638239671882     1.007825032230
         H            1.919675523235     1.315704551710    -1.351093328118     1.007825032230
         H            2.224797523235     2.625278551710    -0.224385328118     1.007825032230
         H            1.525933523235     0.751527551710     1.606714671882     1.007825032230
         H            3.182316523235     0.806072551710     0.982302671882     1.007825032230
         H            0.835005523235    -2.038668448290    -0.744904328118     1.007825032230
         H           -2.366939476765     2.232135551710     0.201764671882     1.007825032230
         H           -1.243709476765    -2.554705448290    -0.140007328118     1.007825032230
         H           -4.168303476765     0.552549551710     0.379967671882     1.007825032230
         H           -3.600344476765    -1.882214448290     0.175663671882     1.007825032230

  Basis Set: AUG-CC-PVTZ
    Blend: AUG-CC-PVTZ
  Basis Set: (AUG-CC-PVTZ AUX)
    Blend: AUG-CC-PVTZ-JKFIT
	 Reference Energy          =    -514.5940599436776210 [Eh]
	 Singles Energy            =      -0.0000000000000000 [Eh]
	 Same-Spin Energy          =      -0.5578643152842404 [Eh]
	 Opposite-Spin Energy      =      -1.7431394099657895 [Eh]
	 Correlation Energy        =      -2.3010037252500299 [Eh]
	 Total Energy              =    -516.8950636689276052 [Eh]

	 ================> DF-SCS-MP2 Energies <==================
	-----------------------------------------------------------
	 SCS Same-Spin Scale       =       0.3333333333333333 [-]
	 SCS Opposite-Spin Scale   =       1.2000000000000000 [-]
	 SCS Same-Spin Energy      =      -0.1859547717614135 [Eh]
	 SCS Opposite-Spin Energy  =      -2.0917672919589472 [Eh]
	 SCS Correlation Energy    =      -2.2777220637203608 [Eh]
	 SCS Total Energy          =    -516.8717820073979965 [Eh]
	-----------------------------------------------------------

  Dipole Moment: [D]
     X:    -2.7587      Y:     2.0619      Z:     0.0288     Total:     3.4442

*** Psi4 exiting successfully. Buy a developer a beer!
