                               Psi4 1.3.2 release

  ==> Input File <==

--------------------------------------------------------------------------
#psi4
#
memory 32 gb

molecule  {
0 1
  O        3.0005300    -1.5493530     0.0754490
  N        0.8122200    -1.1607283    -0.4217845
  C        0.1960040     1.9504030    -0.2395030
  C        1.6857700     1.6448450    -0.3508570
  C       -0.7674710     0.7851500    -0.1025020
  C        2.1481850     0.6250380     0.6971500
  C       -0.4596220    -0.5879500    -0.1790540
  C        2.0510250    -0.7686880     0.1361100
  C       -2.1103850     1.1321340     0.1249900
  C       -1.4919760    -1.5397800    -0.0852490
  C       -3.1313420     0.1920050     0.2149350
  C       -2.8150140    -1.1632860     0.1069400
  H       -0.1141940     2.5504580    -1.1051150
  H        0.0480080     2.5950730     0.6372840
  H        1.9308140     1.2745600    -1.3520490
  H        2.2359360     2.5841340    -0.2253410
  H        1.5370720     0.7103830     1.6057590
  H        3.1934550     0.7649280     0.9813470
  H        0.8461440    -2.0798130    -0.7458600
  H       -2.3558010     2.1909910     0.2008090
  H       -1.2325710    -2.5958500    -0.1409630
  H       -4.1571650     0.5114050     0.3790120
  H       -3.5892060    -1.9233590     0.1747080
units angstrom
no_reorient  #important for SAPT in psi4, default
symmetry c1  #important for SAPT in psi4, default
}

set PROPERTIES_ORIGIN ["COM"]
properties('MP2/aug-cc-pvtz', properties = ['dipole'])
--------------------------------------------------------------------------

    Molecular point group: c1
  Charge       = 0
  Multiplicity = 1
  Basis Set: AUG-CC-PVTZ
    Blend: AUG-CC-PVTZ
  Basis Set: (AUG-CC-PVTZ AUX)
    Blend: AUG-CC-PVTZ-JKFIT

    Orbital Energies [Eh]
    ---------------------

    Doubly Occupied:

       1A    -20.528772     2A    -15.591622     3A    -11.360482
       4A    -11.295976     5A    -11.254871     6A    -11.245465
       7A    -11.244954     8A    -11.244944     9A    -11.244523
      10A    -11.243248    11A    -11.241977    12A    -11.238468
      13A     -1.380564    14A     -1.251104    15A     -1.150054
      16A     -1.102687    17A     -1.038249    18A     -1.013627
      19A     -0.958838    20A     -0.878160    21A     -0.842075
      22A     -0.807211    23A     -0.768744    24A     -0.723447
      25A     -0.683117    26A     -0.670956    27A     -0.646565
      28A     -0.628293    29A     -0.611504    30A     -0.601765
      31A     -0.601288    32A     -0.581752    33A     -0.564877
      34A     -0.541942    35A     -0.517278    36A     -0.510424
      37A     -0.498492    38A     -0.492561    39A     -0.482547
      40A     -0.435206    41A     -0.427146    42A     -0.339488
      43A     -0.313998

  @DF-RHF Final Energy:  -514.59238172019195

   => Energetics <=

    Nuclear Repulsion Energy =            674.4452351580481491
    One-Electron Energy =               -2036.4767117704354860
    Two-Electron Energy =                 847.4390948921954987
    Total Energy =                       -514.5923817201919519
  Basis Set: (AUG-CC-PVTZ AUX)
    Blend: AUG-CC-PVTZ-RI
    Molecular point group: c1

    Geometry (in Angstrom), charge = 0, multiplicity = 1:

       Center              X                  Y                   Z               Mass
    ------------   -----------------  -----------------  -----------------  -----------------
         O            2.992097087120    -1.504887647099     0.078001475902    15.994914619570
         N            0.803787087120    -1.116262947099    -0.419232024098    14.003074004430
         C            0.187571087120     1.994868352901    -0.236950524098    12.000000000000
         C            1.677337087120     1.689310352901    -0.348304524098    12.000000000000
         C           -0.775903912880     0.829615352901    -0.099949524098    12.000000000000
         C            2.139752087120     0.669503352901     0.699702475902    12.000000000000
         C           -0.468054912880    -0.543484647099    -0.176501524098    12.000000000000
         C            2.042592087120    -0.724222647099     0.138662475902    12.000000000000
         C           -2.118817912880     1.176599352901     0.127542475902    12.000000000000
         C           -1.500408912880    -1.495314647099    -0.082696524098    12.000000000000
         C           -3.139774912880     0.236470352901     0.217487475902    12.000000000000
         C           -2.823446912880    -1.118820647099     0.109492475902    12.000000000000
         H           -0.122626912880     2.594923352901    -1.102562524098     1.007825032230
         H            0.039575087120     2.639538352901     0.639836475902     1.007825032230
         H            1.922381087120     1.319025352901    -1.349496524098     1.007825032230
         H            2.227503087120     2.628599352901    -0.222788524098     1.007825032230
         H            1.528639087120     0.754848352901     1.608311475902     1.007825032230
         H            3.185022087120     0.809393352901     0.983899475902     1.007825032230
         H            0.837711087120    -2.035347647099    -0.743307524098     1.007825032230
         H           -2.364233912880     2.235456352901     0.203361475902     1.007825032230
         H           -1.241003912880    -2.551384647099    -0.138410524098     1.007825032230
         H           -4.165597912880     0.555870352901     0.381564475902     1.007825032230
         H           -3.597638912880    -1.878893647099     0.177260475902     1.007825032230

  Basis Set: AUG-CC-PVTZ
    Blend: AUG-CC-PVTZ
  Basis Set: (AUG-CC-PVTZ AUX)
    Blend: AUG-CC-PVTZ-JKFIT
	 Reference Energy          =    -514.5923817201919519 [Eh]
	 Singles Energy            =      -0.0000000000000000 [Eh]
	 Same-Spin Energy          =      -0.5574932794223691 [Eh]
	 Opposite-Spin Energy      =      -1.7426026786743216 [Eh]
	 Correlation Energy        =      -2.3000959580966907 [Eh]
	 Total Energy              =    -516.8924776782886283 [Eh]

	 ================> DF-SCS-MP2 Energies <==================
	-----------------------------------------------------------
	 SCS Same-Spin Scale       =       0.3333333333333333 [-]
	 SCS Opposite-Spin Scale   =       1.2000000000000000 [-]
	 SCS Same-Spin Energy      =      -0.1858310931407897 [Eh]
	 SCS Opposite-Spin Energy  =      -2.0911232144091860 [Eh]
	 SCS Correlation Energy    =      -2.2769543075499756 [Eh]
	 SCS Total Energy          =    -516.8693360277419515 [Eh]
	-----------------------------------------------------------

  Dipole Moment: [D]
     X:    -2.5405      Y:     2.0960      Z:     0.0504     Total:     3.2940

*** Psi4 exiting successfully. Buy a developer a beer!
