                               Psi4 1.3.2 release

  ==> Input File <==

--------------------------------------------------------------------------
#psi4
#
memory 32 gb

molecule  {
0 1
  O        3.0005300    -1.5493530     0.0754490
  N        0.8317470    -1.1153310    -0.4215630
  C        0.1960040     1.9504030    -0.2395030
  C        1.6857700     1.6448450    -0.3508570
  C       -0.7674710     0.7851500    -0.1025020
  C        2.1481850     0.6250380     0.6971500
  C       -0.3922914    -0.4617929    -0.1401500
  C        2.0510250    -0.7686880     0.1361100
  C       -2.1103850     1.1321340     0.1249900
  C       -1.4919760    -1.5397800    -0.0852490
  C       -3.1313420     0.1920050     0.2149350
  C       -2.8150140    -1.1632860     0.1069400
  H       -0.1141940     2.5504580    -1.1051150
  H        0.0480080     2.5950730     0.6372840
  H        1.9308140     1.2745600    -1.3520490
  H        2.2359360     2.5841340    -0.2253410
  H        1.5370720     0.7103830     1.6057590
  H        3.1934550     0.7649280     0.9813470
  H        0.8461440    -2.0798130    -0.7458600
  H       -2.3558010     2.1909910     0.2008090
  H       -1.2325710    -2.5958500    -0.1409630
  H       -4.1571650     0.5114050     0.3790120
  H       -3.5892060    -1.9233590     0.1747080
units angstrom
no_reorient  #important for SAPT in psi4, default
symmetry c1  #important for SAPT in psi4, default
}

set PROPERTIES_ORIGIN ["COM"]
properties('MP2/aug-cc-pvtz', properties = ['dipole'])
--------------------------------------------------------------------------

    Molecular point group: c1
  Charge       = 0
  Multiplicity = 1
  Basis Set: AUG-CC-PVTZ
    Blend: AUG-CC-PVTZ
  Basis Set: (AUG-CC-PVTZ AUX)
    Blend: AUG-CC-PVTZ-JKFIT

    Orbital Energies [Eh]
    ---------------------

    Doubly Occupied:

       1A    -20.524078     2A    -15.598525     3A    -11.353835
       4A    -11.296017     5A    -11.255609     6A    -11.246999
       7A    -11.245641     8A    -11.242842     9A    -11.242681
      10A    -11.242236    11A    -11.241765    12A    -11.241590
      13A     -1.379263    14A     -1.253709    15A     -1.154837
      16A     -1.100119    17A     -1.047216    18A     -1.002707
      19A     -0.961438    20A     -0.875502    21A     -0.852678
      22A     -0.808771    23A     -0.760072    24A     -0.723066
      25A     -0.682736    26A     -0.679600    27A     -0.645019
      28A     -0.629199    29A     -0.610532    30A     -0.601892
      31A     -0.588321    32A     -0.583603    33A     -0.565065
      34A     -0.540664    35A     -0.525417    36A     -0.510055
      37A     -0.497961    38A     -0.489189    39A     -0.471719
      40A     -0.434274    41A     -0.423226    42A     -0.346263
      43A     -0.315196

  @DF-RHF Final Energy:  -514.57020013527870

   => Energetics <=

    Nuclear Repulsion Energy =            676.0300632593352930
    One-Electron Energy =               -2039.6182752486583922
    Two-Electron Energy =                 849.0180118540444028
    Total Energy =                       -514.5702001352786965
  Basis Set: (AUG-CC-PVTZ AUX)
    Blend: AUG-CC-PVTZ-RI
    Molecular point group: c1

    Geometry (in Angstrom), charge = 0, multiplicity = 1:

       Center              X                  Y                   Z               Mass
    ------------   -----------------  -----------------  -----------------  -----------------
         O            2.985383789732    -1.518232151194     0.075084057076    15.994914619570
         N            0.816600789732    -1.084210151194    -0.421927942924    14.003074004430
         C            0.180857789732     1.981523848806    -0.239867942924    12.000000000000
         C            1.670623789732     1.675965848806    -0.351221942924    12.000000000000
         C           -0.782617210268     0.816270848806    -0.102866942924    12.000000000000
         C            2.133038789732     0.656158848806     0.696785057076    12.000000000000
         C           -0.407437610268    -0.430672051194    -0.140514942924    12.000000000000
         C            2.035878789732    -0.737567151194     0.135745057076    12.000000000000
         C           -2.125531210268     1.163254848806     0.124625057076    12.000000000000
         C           -1.507122210268    -1.508659151194    -0.085613942924    12.000000000000
         C           -3.146488210268     0.223125848806     0.214570057076    12.000000000000
         C           -2.830160210268    -1.132165151194     0.106575057076    12.000000000000
         H           -0.129340210268     2.581578848806    -1.105479942924     1.007825032230
         H            0.032861789732     2.626193848806     0.636919057076     1.007825032230
         H            1.915667789732     1.305680848806    -1.352413942924     1.007825032230
         H            2.220789789732     2.615254848806    -0.225705942924     1.007825032230
         H            1.521925789732     0.741503848806     1.605394057076     1.007825032230
         H            3.178308789732     0.796048848806     0.980982057076     1.007825032230
         H            0.830997789732    -2.048692151194    -0.746224942924     1.007825032230
         H           -2.370947210268     2.222111848806     0.200444057076     1.007825032230
         H           -1.247717210268    -2.564729151194    -0.141327942924     1.007825032230
         H           -4.172311210268     0.542525848806     0.378647057076     1.007825032230
         H           -3.604352210268    -1.892238151194     0.174343057076     1.007825032230

  Basis Set: AUG-CC-PVTZ
    Blend: AUG-CC-PVTZ
  Basis Set: (AUG-CC-PVTZ AUX)
    Blend: AUG-CC-PVTZ-JKFIT
	 Reference Energy          =    -514.5702001352786965 [Eh]
	 Singles Energy            =      -0.0000000000000000 [Eh]
	 Same-Spin Energy          =      -0.5571162841837860 [Eh]
	 Opposite-Spin Energy      =      -1.7440976441133795 [Eh]
	 Correlation Energy        =      -2.3012139282971655 [Eh]
	 Total Energy              =    -516.8714140635759122 [Eh]

	 ================> DF-SCS-MP2 Energies <==================
	-----------------------------------------------------------
	 SCS Same-Spin Scale       =       0.3333333333333333 [-]
	 SCS Opposite-Spin Scale   =       1.2000000000000000 [-]
	 SCS Same-Spin Energy      =      -0.1857054280612620 [Eh]
	 SCS Opposite-Spin Energy  =      -2.0929171729360552 [Eh]
	 SCS Correlation Energy    =      -2.2786226009973172 [Eh]
	 SCS Total Energy          =    -516.8488227362760199 [Eh]
	-----------------------------------------------------------

  Dipole Moment: [D]
     X:    -2.7818      Y:     2.0394      Z:     0.0081     Total:     3.4493

*** Psi4 exiting successfully. Buy a developer a beer!
