                               Psi4 1.3.2 release

  ==> Input File <==

--------------------------------------------------------------------------
#psi4
#
memory 32 gb

molecule  {
0 1
  O        3.0005300    -1.5493530     0.0754490
  N        0.8317470    -1.1153310    -0.4215630
  C        0.1960040     1.9504030    -0.2395030
  C        1.5880708     1.6648836    -0.3435544
  C       -0.7674710     0.7851500    -0.1025020
  C        2.1481850     0.6250380     0.6971500
  C       -0.4596220    -0.5879500    -0.1790540
  C        2.0510250    -0.7686880     0.1361100
  C       -2.1103850     1.1321340     0.1249900
  C       -1.4919760    -1.5397800    -0.0852490
  C       -3.1313420     0.1920050     0.2149350
  C       -2.8150140    -1.1632860     0.1069400
  H       -0.1141940     2.5504580    -1.1051150
  H        0.0480080     2.5950730     0.6372840
  H        1.9308140     1.2745600    -1.3520490
  H        2.2359360     2.5841340    -0.2253410
  H        1.5370720     0.7103830     1.6057590
  H        3.1934550     0.7649280     0.9813470
  H        0.8461440    -2.0798130    -0.7458600
  H       -2.3558010     2.1909910     0.2008090
  H       -1.2325710    -2.5958500    -0.1409630
  H       -4.1571650     0.5114050     0.3790120
  H       -3.5892060    -1.9233590     0.1747080
units angstrom
no_reorient  #important for SAPT in psi4, default
symmetry c1  #important for SAPT in psi4, default
}

set PROPERTIES_ORIGIN ["COM"]
properties('MP2/aug-cc-pvtz', properties = ['dipole'])
--------------------------------------------------------------------------

    Molecular point group: c1
  Charge       = 0
  Multiplicity = 1
  Basis Set: AUG-CC-PVTZ
    Blend: AUG-CC-PVTZ
  Basis Set: (AUG-CC-PVTZ AUX)
    Blend: AUG-CC-PVTZ-JKFIT

    Orbital Energies [Eh]
    ---------------------

    Doubly Occupied:

       1A    -20.525242     2A    -15.595680     3A    -11.356402
       4A    -11.298036     5A    -11.255634     6A    -11.247054
       7A    -11.246277     8A    -11.245706     9A    -11.244834
      10A    -11.244480    11A    -11.241291    12A    -11.240237
      13A     -1.379643    14A     -1.253104    15A     -1.153018
      16A     -1.110486    17A     -1.036060    18A     -1.017344
      19A     -0.966435    20A     -0.877133    21A     -0.843358
      22A     -0.804499    23A     -0.766267    24A     -0.721674
      25A     -0.682383    26A     -0.672767    27A     -0.646377
      28A     -0.630388    29A     -0.616943    30A     -0.604685
      31A     -0.601284    32A     -0.581533    33A     -0.562991
      34A     -0.539212    35A     -0.524389    36A     -0.510300
      37A     -0.506515    38A     -0.480736    39A     -0.474024
      40A     -0.434674    41A     -0.424812    42A     -0.341075
      43A     -0.316281

  @DF-RHF Final Energy:  -514.58294445513252

   => Energetics <=

    Nuclear Repulsion Energy =            675.9953745104187419
    One-Electron Energy =               -2039.5141145074039741
    Two-Electron Energy =                 848.9357955418527126
    Total Energy =                       -514.5829444551325196
  Basis Set: (AUG-CC-PVTZ AUX)
    Blend: AUG-CC-PVTZ-RI
    Molecular point group: c1

    Geometry (in Angstrom), charge = 0, multiplicity = 1:

       Center              X                  Y                   Z               Mass
    ------------   -----------------  -----------------  -----------------  -----------------
         O            2.997677728381    -1.510326825437     0.077438211736    15.994914619570
         N            0.828894728381    -1.076304825437    -0.419573788264    14.003074004430
         C            0.193151728381     1.989429174563    -0.237513788264    12.000000000000
         C            1.585218528381     1.703909774563    -0.341565188264    12.000000000000
         C           -0.770323271619     0.824176174563    -0.100512788264    12.000000000000
         C            2.145332728381     0.664064174563     0.699139211736    12.000000000000
         C           -0.462474271619    -0.548923825437    -0.177064788264    12.000000000000
         C            2.048172728381    -0.729661825437     0.138099211736    12.000000000000
         C           -2.113237271619     1.171160174563     0.126979211736    12.000000000000
         C           -1.494828271619    -1.500753825437    -0.083259788264    12.000000000000
         C           -3.134194271619     0.231031174563     0.216924211736    12.000000000000
         C           -2.817866271619    -1.124259825437     0.108929211736    12.000000000000
         H           -0.117046271619     2.589484174563    -1.103125788264     1.007825032230
         H            0.045155728381     2.634099174563     0.639273211736     1.007825032230
         H            1.927961728381     1.313586174563    -1.350059788264     1.007825032230
         H            2.233083728381     2.623160174563    -0.223351788264     1.007825032230
         H            1.534219728381     0.749409174563     1.607748211736     1.007825032230
         H            3.190602728381     0.803954174563     0.983336211736     1.007825032230
         H            0.843291728381    -2.040786825437    -0.743870788264     1.007825032230
         H           -2.358653271619     2.230017174563     0.202798211736     1.007825032230
         H           -1.235423271619    -2.556823825437    -0.138973788264     1.007825032230
         H           -4.160017271619     0.550431174563     0.381001211736     1.007825032230
         H           -3.592058271619    -1.884332825437     0.176697211736     1.007825032230

  Basis Set: AUG-CC-PVTZ
    Blend: AUG-CC-PVTZ
  Basis Set: (AUG-CC-PVTZ AUX)
    Blend: AUG-CC-PVTZ-JKFIT
	 Reference Energy          =    -514.5829444551325196 [Eh]
	 Singles Energy            =      -0.0000000000000000 [Eh]
	 Same-Spin Energy          =      -0.5587303056549768 [Eh]
	 Opposite-Spin Energy      =      -1.7440960358759185 [Eh]
	 Correlation Energy        =      -2.3028263415308956 [Eh]
	 Total Energy              =    -516.8857707966634507 [Eh]

	 ================> DF-SCS-MP2 Energies <==================
	-----------------------------------------------------------
	 SCS Same-Spin Scale       =       0.3333333333333333 [-]
	 SCS Opposite-Spin Scale   =       1.2000000000000000 [-]
	 SCS Same-Spin Energy      =      -0.1862434352183256 [Eh]
	 SCS Opposite-Spin Energy  =      -2.0929152430511020 [Eh]
	 SCS Correlation Energy    =      -2.2791586782694275 [Eh]
	 SCS Total Energy          =    -516.8621031334020017 [Eh]
	-----------------------------------------------------------

  Dipole Moment: [D]
     X:    -2.7985      Y:     2.0755      Z:     0.0432     Total:     3.4844

*** Psi4 exiting successfully. Buy a developer a beer!
