                               Psi4 1.3.2 release

  ==> Input File <==

--------------------------------------------------------------------------
#psi4
#
memory 32 gb

molecule  {
0 1
  O        3.0005300    -1.5493530     0.0754490
  N        0.8317470    -1.1153310    -0.4215630
  C        0.1857808     1.8987475    -0.2472523
  C        1.6857700     1.6448450    -0.3508570
  C       -0.7674710     0.7851500    -0.1025020
  C        2.1481850     0.6250380     0.6971500
  C       -0.4596220    -0.5879500    -0.1790540
  C        2.0510250    -0.7686880     0.1361100
  C       -2.1103850     1.1321340     0.1249900
  C       -1.4919760    -1.5397800    -0.0852490
  C       -3.1313420     0.1920050     0.2149350
  C       -2.8150140    -1.1632860     0.1069400
  H       -0.1141940     2.5504580    -1.1051150
  H        0.0480080     2.5950730     0.6372840
  H        1.9308140     1.2745600    -1.3520490
  H        2.2359360     2.5841340    -0.2253410
  H        1.5370720     0.7103830     1.6057590
  H        3.1934550     0.7649280     0.9813470
  H        0.8461440    -2.0798130    -0.7458600
  H       -2.3558010     2.1909910     0.2008090
  H       -1.2325710    -2.5958500    -0.1409630
  H       -4.1571650     0.5114050     0.3790120
  H       -3.5892060    -1.9233590     0.1747080
units angstrom
no_reorient  #important for SAPT in psi4, default
symmetry c1  #important for SAPT in psi4, default
}

set PROPERTIES_ORIGIN ["COM"]
properties('MP2/aug-cc-pvtz', properties = ['dipole'])
--------------------------------------------------------------------------

    Molecular point group: c1
  Charge       = 0
  Multiplicity = 1
  Basis Set: AUG-CC-PVTZ
    Blend: AUG-CC-PVTZ
  Basis Set: (AUG-CC-PVTZ AUX)
    Blend: AUG-CC-PVTZ-JKFIT

    Orbital Energies [Eh]
    ---------------------

    Doubly Occupied:

       1A    -20.525700     2A    -15.596485     3A    -11.357086
       4A    -11.297207     5A    -11.254157     6A    -11.246991
       7A    -11.246726     8A    -11.245598     9A    -11.244671
      10A    -11.243270    11A    -11.242325    12A    -11.240395
      13A     -1.380181    14A     -1.253725    15A     -1.153329
      16A     -1.103747    17A     -1.041881    18A     -1.016569
      19A     -0.955105    20A     -0.883078    21A     -0.844162
      22A     -0.807247    23A     -0.765598    24A     -0.721709
      25A     -0.681713    26A     -0.673145    27A     -0.647350
      28A     -0.629629    29A     -0.610376    30A     -0.602983
      31A     -0.598382    32A     -0.581380    33A     -0.565023
      34A     -0.542386    35A     -0.517878    36A     -0.512378
      37A     -0.493154    38A     -0.489621    39A     -0.487149
      40A     -0.435577    41A     -0.425561    42A     -0.339422
      43A     -0.315674

  @DF-RHF Final Energy:  -514.59066528031440

   => Energetics <=

    Nuclear Repulsion Energy =            675.9708984496567155
    One-Electron Energy =               -2039.4916839251188776
    Two-Electron Energy =                 848.9301201951477651
    Total Energy =                       -514.5906652803143970
  Basis Set: (AUG-CC-PVTZ AUX)
    Blend: AUG-CC-PVTZ-RI
    Molecular point group: c1

    Geometry (in Angstrom), charge = 0, multiplicity = 1:

       Center              X                  Y                   Z               Mass
    ------------   -----------------  -----------------  -----------------  -----------------
         O            2.991161180598    -1.504985954474     0.078559507013    15.994914619570
         N            0.822378180598    -1.070963954474    -0.418452492987    14.003074004430
         C            0.176411980598     1.943114545526    -0.244141792987    12.000000000000
         C            1.676401180598     1.689212045526    -0.347746492987    12.000000000000
         C           -0.776839819402     0.829517045526    -0.099391492987    12.000000000000
         C            2.138816180598     0.669405045526     0.700260507013    12.000000000000
         C           -0.468990819402    -0.543582954474    -0.175943492987    12.000000000000
         C            2.041656180598    -0.724320954474     0.139220507013    12.000000000000
         C           -2.119753819402     1.176501045526     0.128100507013    12.000000000000
         C           -1.501344819402    -1.495412954474    -0.082138492987    12.000000000000
         C           -3.140710819402     0.236372045526     0.218045507013    12.000000000000
         C           -2.824382819402    -1.118918954474     0.110050507013    12.000000000000
         H           -0.123562819402     2.594825045526    -1.102004492987     1.007825032230
         H            0.038639180598     2.639440045526     0.640394507013     1.007825032230
         H            1.921445180598     1.318927045526    -1.348938492987     1.007825032230
         H            2.226567180598     2.628501045526    -0.222230492987     1.007825032230
         H            1.527703180598     0.754750045526     1.608869507013     1.007825032230
         H            3.184086180598     0.809295045526     0.984457507013     1.007825032230
         H            0.836775180598    -2.035445954474    -0.742749492987     1.007825032230
         H           -2.365169819402     2.235358045526     0.203919507013     1.007825032230
         H           -1.241939819402    -2.551482954474    -0.137852492987     1.007825032230
         H           -4.166533819402     0.555772045526     0.382122507013     1.007825032230
         H           -3.598574819402    -1.878991954474     0.177818507013     1.007825032230

  Basis Set: AUG-CC-PVTZ
    Blend: AUG-CC-PVTZ
  Basis Set: (AUG-CC-PVTZ AUX)
    Blend: AUG-CC-PVTZ-JKFIT
	 Reference Energy          =    -514.5906652803143970 [Eh]
	 Singles Energy            =      -0.0000000000000000 [Eh]
	 Same-Spin Energy          =      -0.5584213350894169 [Eh]
	 Opposite-Spin Energy      =      -1.7437728470429716 [Eh]
	 Correlation Energy        =      -2.3021941821323884 [Eh]
	 Total Energy              =    -516.8928594624468360 [Eh]

	 ================> DF-SCS-MP2 Energies <==================
	-----------------------------------------------------------
	 SCS Same-Spin Scale       =       0.3333333333333333 [-]
	 SCS Opposite-Spin Scale   =       1.2000000000000000 [-]
	 SCS Same-Spin Energy      =      -0.1861404450298056 [Eh]
	 SCS Opposite-Spin Energy  =      -2.0925274164515657 [Eh]
	 SCS Correlation Energy    =      -2.2786678614813711 [Eh]
	 SCS Total Energy          =    -516.8693331417957779 [Eh]
	-----------------------------------------------------------

  Dipole Moment: [D]
     X:    -2.7383      Y:     2.0467      Z:     0.0257     Total:     3.4188

*** Psi4 exiting successfully. Buy a developer a beer!
