                               Psi4 1.3.2 release

  ==> Input File <==

--------------------------------------------------------------------------
#psi4
#
memory 32 gb

molecule  {
0 1
  O        3.0005300    -1.5493530     0.0754490
  N        0.8317470    -1.1153310    -0.4215630
  C        0.1960040     1.9504030    -0.2395030
  C        1.6857700     1.6448450    -0.3508570
  C       -0.7674710     0.7851500    -0.1025020
  C        2.1481850     0.6250380     0.6971500
  C       -0.4762392    -0.5700138    -0.1767188
  C        2.0510250    -0.7686880     0.1361100
  C       -2.1103850     1.1321340     0.1249900
  C       -1.4919760    -1.5397800    -0.0852490
  C       -3.1313420     0.1920050     0.2149350
  C       -2.8150140    -1.1632860     0.1069400
  H       -0.1141940     2.5504580    -1.1051150
  H        0.0480080     2.5950730     0.6372840
  H        1.9308140     1.2745600    -1.3520490
  H        2.2359360     2.5841340    -0.2253410
  H        1.5370720     0.7103830     1.6057590
  H        3.1934550     0.7649280     0.9813470
  H        0.8461440    -2.0798130    -0.7458600
  H       -2.3558010     2.1909910     0.2008090
  H       -1.2325710    -2.5958500    -0.1409630
  H       -4.1571650     0.5114050     0.3790120
  H       -3.5892060    -1.9233590     0.1747080
units angstrom
no_reorient  #important for SAPT in psi4, default
symmetry c1  #important for SAPT in psi4, default
}

set PROPERTIES_ORIGIN ["COM"]
properties('MP2/aug-cc-pvtz', properties = ['dipole'])
--------------------------------------------------------------------------

    Molecular point group: c1
  Charge       = 0
  Multiplicity = 1
  Basis Set: AUG-CC-PVTZ
    Blend: AUG-CC-PVTZ
  Basis Set: (AUG-CC-PVTZ AUX)
    Blend: AUG-CC-PVTZ-JKFIT

    Orbital Energies [Eh]
    ---------------------

    Doubly Occupied:

       1A    -20.523684     2A    -15.594324     3A    -11.355065
       4A    -11.296440     5A    -11.253922     6A    -11.247168
       7A    -11.245909     8A    -11.245657     9A    -11.245447
      10A    -11.242315    11A    -11.241711    12A    -11.240797
      13A     -1.377910    14A     -1.247326    15A     -1.153468
      16A     -1.101624    17A     -1.040365    18A     -1.016395
      19A     -0.958338    20A     -0.878718    21A     -0.844450
      22A     -0.808018    23A     -0.764513    24A     -0.719407
      25A     -0.680620    26A     -0.670520    27A     -0.645666
      28A     -0.630147    29A     -0.610877    30A     -0.602917
      31A     -0.600308    32A     -0.578782    33A     -0.564044
      34A     -0.541570    35A     -0.518080    36A     -0.511207
      37A     -0.498656    38A     -0.492856    39A     -0.482898
      40A     -0.433080    41A     -0.424005    42A     -0.341394
      43A     -0.319429

  @DF-RHF Final Energy:  -514.59408887931784

   => Energetics <=

    Nuclear Repulsion Energy =            675.1261619475945963
    One-Electron Energy =               -2037.8604438358436255
    Two-Electron Energy =                 848.1401930089310781
    Total Energy =                       -514.5940888793178374
  Basis Set: (AUG-CC-PVTZ AUX)
    Blend: AUG-CC-PVTZ-RI
    Molecular point group: c1

    Geometry (in Angstrom), charge = 0, multiplicity = 1:

       Center              X                  Y                   Z               Mass
    ------------   -----------------  -----------------  -----------------  -----------------
         O            2.991637503321    -1.510170206593     0.077808259515    15.994914619570
         N            0.822854503321    -1.076148206593    -0.419203740485    14.003074004430
         C            0.187111503321     1.989585793407    -0.237143740485    12.000000000000
         C            1.676877503321     1.684027793407    -0.348497740485    12.000000000000
         C           -0.776363496679     0.824332793407    -0.100142740485    12.000000000000
         C            2.139292503321     0.664220793407     0.699509259515    12.000000000000
         C           -0.485131696679    -0.530831006593    -0.174359540485    12.000000000000
         C            2.042132503321    -0.729505206593     0.138469259515    12.000000000000
         C           -2.119277496679     1.171316793407     0.127349259515    12.000000000000
         C           -1.500868496679    -1.500597206593    -0.082889740485    12.000000000000
         C           -3.140234496679     0.231187793407     0.217294259515    12.000000000000
         C           -2.823906496679    -1.124103206593     0.109299259515    12.000000000000
         H           -0.123086496679     2.589640793407    -1.102755740485     1.007825032230
         H            0.039115503321     2.634255793407     0.639643259515     1.007825032230
         H            1.921921503321     1.313742793407    -1.349689740485     1.007825032230
         H            2.227043503321     2.623316793407    -0.222981740485     1.007825032230
         H            1.528179503321     0.749565793407     1.608118259515     1.007825032230
         H            3.184562503321     0.804110793407     0.983706259515     1.007825032230
         H            0.837251503321    -2.040630206593    -0.743500740485     1.007825032230
         H           -2.364693496679     2.230173793407     0.203168259515     1.007825032230
         H           -1.241463496679    -2.556667206593    -0.138603740485     1.007825032230
         H           -4.166057496679     0.550587793407     0.381371259515     1.007825032230
         H           -3.598098496679    -1.884176206593     0.177067259515     1.007825032230

  Basis Set: AUG-CC-PVTZ
    Blend: AUG-CC-PVTZ
  Basis Set: (AUG-CC-PVTZ AUX)
    Blend: AUG-CC-PVTZ-JKFIT
	 Reference Energy          =    -514.5940888793178374 [Eh]
	 Singles Energy            =      -0.0000000000000000 [Eh]
	 Same-Spin Energy          =      -0.5576385915876092 [Eh]
	 Opposite-Spin Energy      =      -1.7428198898228280 [Eh]
	 Correlation Energy        =      -2.3004584814104372 [Eh]
	 Total Energy              =    -516.8945473607283247 [Eh]

	 ================> DF-SCS-MP2 Energies <==================
	-----------------------------------------------------------
	 SCS Same-Spin Scale       =       0.3333333333333333 [-]
	 SCS Opposite-Spin Scale   =       1.2000000000000000 [-]
	 SCS Same-Spin Energy      =      -0.1858795305292031 [Eh]
	 SCS Opposite-Spin Energy  =      -2.0913838677873935 [Eh]
	 SCS Correlation Energy    =      -2.2772633983165966 [Eh]
	 SCS Total Energy          =    -516.8713522776344007 [Eh]
	-----------------------------------------------------------

  Dipole Moment: [D]
     X:    -2.8738      Y:     2.0951      Z:     0.0420     Total:     3.5566

*** Psi4 exiting successfully. Buy a developer a beer!
