                               Psi4 1.3.2 release

  ==> Input File <==

--------------------------------------------------------------------------
#psi4
#
memory 32 gb

molecule  {
0 1
  O        3.0005300    -1.5493530     0.0754490
  N        0.8317470    -1.1153310    -0.4215630
  C        0.1960040     1.9504030    -0.2395030
  C        1.6857700     1.6448450    -0.3508570
  C       -0.7674710     0.7851500    -0.1025020
  C        2.1481850     0.6250380     0.6971500
  C       -0.4596220    -0.5879500    -0.1790540
  C        2.0510250    -0.7686880     0.1361100
  C       -2.1103850     1.1321340     0.1249900
  C       -1.3452634    -1.4045110    -0.0985801
  C       -3.1313420     0.1920050     0.2149350
  C       -2.8150140    -1.1632860     0.1069400
  H       -0.1141940     2.5504580    -1.1051150
  H        0.0480080     2.5950730     0.6372840
  H        1.9308140     1.2745600    -1.3520490
  H        2.2359360     2.5841340    -0.2253410
  H        1.5370720     0.7103830     1.6057590
  H        3.1934550     0.7649280     0.9813470
  H        0.8461440    -2.0798130    -0.7458600
  H       -2.3558010     2.1909910     0.2008090
  H       -1.2325710    -2.5958500    -0.1409630
  H       -4.1571650     0.5114050     0.3790120
  H       -3.5892060    -1.9233590     0.1747080
units angstrom
no_reorient  #important for SAPT in psi4, default
symmetry c1  #important for SAPT in psi4, default
}

set PROPERTIES_ORIGIN ["COM"]
properties('MP2/aug-cc-pvtz', properties = ['dipole'])
--------------------------------------------------------------------------

    Molecular point group: c1
  Charge       = 0
  Multiplicity = 1
  Basis Set: AUG-CC-PVTZ
    Blend: AUG-CC-PVTZ
  Basis Set: (AUG-CC-PVTZ AUX)
    Blend: AUG-CC-PVTZ-JKFIT

    Orbital Energies [Eh]
    ---------------------

    Doubly Occupied:

       1A    -20.522652     2A    -15.589959     3A    -11.353992
       4A    -11.270947     5A    -11.259929     6A    -11.256346
       7A    -11.245455     8A    -11.243496     9A    -11.242437
      10A    -11.242162    11A    -11.241836    12A    -11.238836
      13A     -1.377500    14A     -1.262001    15A     -1.157041
      16A     -1.104224    17A     -1.043658    18A     -1.026769
      19A     -0.956522    20A     -0.879879    21A     -0.833063
      22A     -0.811098    23A     -0.773593    24A     -0.721942
      25A     -0.681121    26A     -0.659591    27A     -0.655131
      28A     -0.630821    29A     -0.612797    30A     -0.602860
      31A     -0.601044    32A     -0.575849    33A     -0.558977
      34A     -0.548523    35A     -0.514953    36A     -0.504203
      37A     -0.497915    38A     -0.485951    39A     -0.479522
      40A     -0.432985    41A     -0.422037    42A     -0.347042
      43A     -0.320582

  @DF-RHF Final Energy:  -514.53319991636602

   => Energetics <=

    Nuclear Repulsion Energy =            678.6911970298201595
    One-Electron Energy =               -2044.8743167008681212
    Two-Electron Energy =                 851.6499197546819460
    Total Energy =                       -514.5331999163660157
  Basis Set: (AUG-CC-PVTZ AUX)
    Blend: AUG-CC-PVTZ-RI
    Molecular point group: c1

    Geometry (in Angstrom), charge = 0, multiplicity = 1:

       Center              X                  Y                   Z               Mass
    ------------   -----------------  -----------------  -----------------  -----------------
         O            2.979470206622    -1.518910944598     0.078975324682    15.994914619570
         N            0.810687206622    -1.084888944598    -0.418036675318    14.003074004430
         C            0.174944206622     1.980845055402    -0.235976675318    12.000000000000
         C            1.664710206622     1.675287055402    -0.347330675318    12.000000000000
         C           -0.788530793378     0.815592055402    -0.098975675318    12.000000000000
         C            2.127125206622     0.655480055402     0.700676324682    12.000000000000
         C           -0.480681793378    -0.557507944598    -0.175527675318    12.000000000000
         C            2.029965206622    -0.738245944598     0.139636324682    12.000000000000
         C           -2.131444793378     1.162576055402     0.128516324682    12.000000000000
         C           -1.366323193378    -1.374068944598    -0.095053775318    12.000000000000
         C           -3.152401793378     0.222447055402     0.218461324682    12.000000000000
         C           -2.836073793378    -1.132843944598     0.110466324682    12.000000000000
         H           -0.135253793378     2.580900055402    -1.101588675318     1.007825032230
         H            0.026948206622     2.625515055402     0.640810324682     1.007825032230
         H            1.909754206622     1.305002055402    -1.348522675318     1.007825032230
         H            2.214876206622     2.614576055402    -0.221814675318     1.007825032230
         H            1.516012206622     0.740825055402     1.609285324682     1.007825032230
         H            3.172395206622     0.795370055402     0.984873324682     1.007825032230
         H            0.825084206622    -2.049370944598    -0.742333675318     1.007825032230
         H           -2.376860793378     2.221433055402     0.204335324682     1.007825032230
         H           -1.253630793378    -2.565407944598    -0.137436675318     1.007825032230
         H           -4.178224793378     0.541847055402     0.382538324682     1.007825032230
         H           -3.610265793378    -1.892916944598     0.178234324682     1.007825032230

  Basis Set: AUG-CC-PVTZ
    Blend: AUG-CC-PVTZ
  Basis Set: (AUG-CC-PVTZ AUX)
    Blend: AUG-CC-PVTZ-JKFIT
	 Reference Energy          =    -514.5331999163660157 [Eh]
	 Singles Energy            =      -0.0000000000000000 [Eh]
	 Same-Spin Energy          =      -0.5578336187042914 [Eh]
	 Opposite-Spin Energy      =      -1.7451496051296465 [Eh]
	 Correlation Energy        =      -2.3029832238339378 [Eh]
	 Total Energy              =    -516.8361831401999780 [Eh]

	 ================> DF-SCS-MP2 Energies <==================
	-----------------------------------------------------------
	 SCS Same-Spin Scale       =       0.3333333333333333 [-]
	 SCS Opposite-Spin Scale   =       1.2000000000000000 [-]
	 SCS Same-Spin Energy      =      -0.1859445395680971 [Eh]
	 SCS Opposite-Spin Energy  =      -2.0941795261555756 [Eh]
	 SCS Correlation Energy    =      -2.2801240657236725 [Eh]
	 SCS Total Energy          =    -516.8133239820897415 [Eh]
	-----------------------------------------------------------

  Dipole Moment: [D]
     X:    -3.0410      Y:     2.1677      Z:     0.0661     Total:     3.7351

*** Psi4 exiting successfully. Buy a developer a beer!
