                               Psi4 1.3.2 release

  ==> Input File <==

--------------------------------------------------------------------------
#psi4
#
memory 32 gb

molecule  {
0 1
  O        3.0005300    -1.5493530     0.0754490
  N        0.8317470    -1.1153310    -0.4215630
  C        0.1960040     1.9504030    -0.2395030
  C        1.6857700     1.6448450    -0.3508570
  C       -0.7674710     0.7851500    -0.1025020
  C        2.1481850     0.6250380     0.6971500
  C       -0.4596220    -0.5879500    -0.1790540
  C        2.2053823    -0.7821199     0.1648782
  C       -2.1103850     1.1321340     0.1249900
  C       -1.4919760    -1.5397800    -0.0852490
  C       -3.1313420     0.1920050     0.2149350
  C       -2.8150140    -1.1632860     0.1069400
  H       -0.1141940     2.5504580    -1.1051150
  H        0.0480080     2.5950730     0.6372840
  H        1.9308140     1.2745600    -1.3520490
  H        2.2359360     2.5841340    -0.2253410
  H        1.5370720     0.7103830     1.6057590
  H        3.1934550     0.7649280     0.9813470
  H        0.8461440    -2.0798130    -0.7458600
  H       -2.3558010     2.1909910     0.2008090
  H       -1.2325710    -2.5958500    -0.1409630
  H       -4.1571650     0.5114050     0.3790120
  H       -3.5892060    -1.9233590     0.1747080
units angstrom
no_reorient  #important for SAPT in psi4, default
symmetry c1  #important for SAPT in psi4, default
}

set PROPERTIES_ORIGIN ["COM"]
properties('MP2/aug-cc-pvtz', properties = ['dipole'])
--------------------------------------------------------------------------

    Molecular point group: c1
  Charge       = 0
  Multiplicity = 1
  Basis Set: AUG-CC-PVTZ
    Blend: AUG-CC-PVTZ
  Basis Set: (AUG-CC-PVTZ AUX)
    Blend: AUG-CC-PVTZ-JKFIT

    Orbital Energies [Eh]
    ---------------------

    Doubly Occupied:

       1A    -20.561513     2A    -15.565853     3A    -11.361683
       4A    -11.284729     5A    -11.247185     6A    -11.242986
       7A    -11.242558     8A    -11.240067     9A    -11.236732
      10A    -11.236007    11A    -11.231264    12A    -11.228213
      13A     -1.481208    14A     -1.220745    15A     -1.133402
      16A     -1.098797    17A     -1.034040    18A     -0.998417
      19A     -0.953173    20A     -0.868321    21A     -0.829741
      22A     -0.795941    23A     -0.754427    24A     -0.709554
      25A     -0.695300    26A     -0.671858    27A     -0.657380
      28A     -0.628121    29A     -0.618938    30A     -0.609161
      31A     -0.598000    32A     -0.585417    33A     -0.570294
      34A     -0.539380    35A     -0.520173    36A     -0.512329
      37A     -0.497747    38A     -0.485454    39A     -0.481493
      40A     -0.432651    41A     -0.429907    42A     -0.331125
      43A     -0.298444

  @DF-RHF Final Energy:  -514.56684903732332

   => Energetics <=

    Nuclear Repulsion Energy =            674.0879868990097066
    One-Electron Energy =               -2035.8702124933643063
    Two-Electron Energy =                 847.2153765570313908
    Total Energy =                       -514.5668490373233226
  Basis Set: (AUG-CC-PVTZ AUX)
    Blend: AUG-CC-PVTZ-RI
    Molecular point group: c1

    Geometry (in Angstrom), charge = 0, multiplicity = 1:

       Center              X                  Y                   Z               Mass
    ------------   -----------------  -----------------  -----------------  -----------------
         O            2.978900712671    -1.507833431677     0.075839126181    15.994914619570
         N            0.810117712671    -1.073811431677    -0.421172873819    14.003074004430
         C            0.174374712671     1.991922568323    -0.239112873819    12.000000000000
         C            1.664140712671     1.686364568323    -0.350466873819    12.000000000000
         C           -0.789100287329     0.826669568323    -0.102111873819    12.000000000000
         C            2.126555712671     0.666557568323     0.697540126181    12.000000000000
         C           -0.481251287329    -0.546430431677    -0.178663873819    12.000000000000
         C            2.183753012671    -0.740600331677     0.165268326181    12.000000000000
         C           -2.132014287329     1.173653568323     0.125380126181    12.000000000000
         C           -1.513605287329    -1.498260431677    -0.084858873819    12.000000000000
         C           -3.152971287329     0.233524568323     0.215325126181    12.000000000000
         C           -2.836643287329    -1.121766431677     0.107330126181    12.000000000000
         H           -0.135823287329     2.591977568323    -1.104724873819     1.007825032230
         H            0.026378712671     2.636592568323     0.637674126181     1.007825032230
         H            1.909184712671     1.316079568323    -1.351658873819     1.007825032230
         H            2.214306712671     2.625653568323    -0.224950873819     1.007825032230
         H            1.515442712671     0.751902568323     1.606149126181     1.007825032230
         H            3.171825712671     0.806447568323     0.981737126181     1.007825032230
         H            0.824514712671    -2.038293431677    -0.745469873819     1.007825032230
         H           -2.377430287329     2.232510568323     0.201199126181     1.007825032230
         H           -1.254200287329    -2.554330431677    -0.140572873819     1.007825032230
         H           -4.178794287329     0.552924568323     0.379402126181     1.007825032230
         H           -3.610835287329    -1.881839431677     0.175098126181     1.007825032230

  Basis Set: AUG-CC-PVTZ
    Blend: AUG-CC-PVTZ
  Basis Set: (AUG-CC-PVTZ AUX)
    Blend: AUG-CC-PVTZ-JKFIT
	 Reference Energy          =    -514.5668490373233226 [Eh]
	 Singles Energy            =      -0.0000000000000000 [Eh]
	 Same-Spin Energy          =      -0.5562443871157582 [Eh]
	 Opposite-Spin Energy      =      -1.7397284575662515 [Eh]
	 Correlation Energy        =      -2.2959728446820096 [Eh]
	 Total Energy              =    -516.8628218820052780 [Eh]

	 ================> DF-SCS-MP2 Energies <==================
	-----------------------------------------------------------
	 SCS Same-Spin Scale       =       0.3333333333333333 [-]
	 SCS Opposite-Spin Scale   =       1.2000000000000000 [-]
	 SCS Same-Spin Energy      =      -0.1854147957052527 [Eh]
	 SCS Opposite-Spin Energy  =      -2.0876741490795019 [Eh]
	 SCS Correlation Energy    =      -2.2730889447847544 [Eh]
	 SCS Total Energy          =    -516.8399379821080402 [Eh]
	-----------------------------------------------------------

  Dipole Moment: [D]
     X:    -0.8209      Y:     1.7162      Z:     0.3211     Total:     1.9293

*** Psi4 exiting successfully. Buy a developer a beer!
