                               Psi4 1.3.2 release

  ==> Input File <==

--------------------------------------------------------------------------
#psi4
#
memory 32 gb

molecule  {
0 1
  O        3.0005300    -1.5493530     0.0754490
  N        0.8497006    -1.0692912    -0.4210461
  C        0.1960040     1.9504030    -0.2395030
  C        1.6857700     1.6448450    -0.3508570
  C       -0.7674710     0.7851500    -0.1025020
  C        2.1481850     0.6250380     0.6971500
  C       -0.4596220    -0.5879500    -0.1790540
  C        2.0510250    -0.7686880     0.1361100
  C       -2.1103850     1.1321340     0.1249900
  C       -1.4919760    -1.5397800    -0.0852490
  C       -3.1313420     0.1920050     0.2149350
  C       -2.8150140    -1.1632860     0.1069400
  H       -0.1141940     2.5504580    -1.1051150
  H        0.0480080     2.5950730     0.6372840
  H        1.9308140     1.2745600    -1.3520490
  H        2.2359360     2.5841340    -0.2253410
  H        1.5370720     0.7103830     1.6057590
  H        3.1934550     0.7649280     0.9813470
  H        0.8461440    -2.0798130    -0.7458600
  H       -2.3558010     2.1909910     0.2008090
  H       -1.2325710    -2.5958500    -0.1409630
  H       -4.1571650     0.5114050     0.3790120
  H       -3.5892060    -1.9233590     0.1747080
units angstrom
no_reorient  #important for SAPT in psi4, default
symmetry c1  #important for SAPT in psi4, default
}

set PROPERTIES_ORIGIN ["COM"]
properties('MP2/aug-cc-pvtz', properties = ['dipole'])
--------------------------------------------------------------------------

    Molecular point group: c1
  Charge       = 0
  Multiplicity = 1
  Basis Set: AUG-CC-PVTZ
    Blend: AUG-CC-PVTZ
  Basis Set: (AUG-CC-PVTZ AUX)
    Blend: AUG-CC-PVTZ-JKFIT

    Orbital Energies [Eh]
    ---------------------

    Doubly Occupied:

       1A    -20.522853     2A    -15.600372     3A    -11.353621
       4A    -11.298932     5A    -11.255612     6A    -11.248132
       7A    -11.246814     8A    -11.245544     9A    -11.245030
      10A    -11.241400    11A    -11.241277    12A    -11.240021
      13A     -1.379812    14A     -1.255474    15A     -1.153262
      16A     -1.100910    17A     -1.039855    18A     -1.018695
      19A     -0.955656    20A     -0.882876    21A     -0.844176
      22A     -0.809811    23A     -0.763612    24A     -0.719505
      25A     -0.680206    26A     -0.671145    27A     -0.645666
      28A     -0.629694    29A     -0.611287    30A     -0.604405
      31A     -0.600429    32A     -0.576852    33A     -0.562199
      34A     -0.542193    35A     -0.517821    36A     -0.511254
      37A     -0.497981    38A     -0.490960    39A     -0.482829
      40A     -0.435499    41A     -0.424408    42A     -0.341666
      43A     -0.318050

  @DF-RHF Final Energy:  -514.59032207805922

   => Energetics <=

    Nuclear Repulsion Energy =            675.6940576849465288
    One-Electron Energy =               -2038.9531679998585787
    Two-Electron Energy =                 848.6687882368528335
    Total Energy =                       -514.5903220780592164
  Basis Set: (AUG-CC-PVTZ AUX)
    Blend: AUG-CC-PVTZ-RI
    Molecular point group: c1

    Geometry (in Angstrom), charge = 0, multiplicity = 1:

       Center              X                  Y                   Z               Mass
    ------------   -----------------  -----------------  -----------------  -----------------
         O            2.988838890111    -1.512836294820     0.077937286624    15.994914619570
         N            0.838009490111    -1.032774494820    -0.418557813376    14.003074004430
         C            0.184312890111     1.986919705180    -0.237014713376    12.000000000000
         C            1.674078890111     1.681361705180    -0.348368713376    12.000000000000
         C           -0.779162109889     0.821666705180    -0.100013713376    12.000000000000
         C            2.136493890111     0.661554705180     0.699638286624    12.000000000000
         C           -0.471313109889    -0.551433294820    -0.176565713376    12.000000000000
         C            2.039333890111    -0.732171294820     0.138598286624    12.000000000000
         C           -2.122076109889     1.168650705180     0.127478286624    12.000000000000
         C           -1.503667109889    -1.503263294820    -0.082760713376    12.000000000000
         C           -3.143033109889     0.228521705180     0.217423286624    12.000000000000
         C           -2.826705109889    -1.126769294820     0.109428286624    12.000000000000
         H           -0.125885109889     2.586974705180    -1.102626713376     1.007825032230
         H            0.036316890111     2.631589705180     0.639772286624     1.007825032230
         H            1.919122890111     1.311076705180    -1.349560713376     1.007825032230
         H            2.224244890111     2.620650705180    -0.222852713376     1.007825032230
         H            1.525380890111     0.746899705180     1.608247286624     1.007825032230
         H            3.181763890111     0.801444705180     0.983835286624     1.007825032230
         H            0.834452890111    -2.043296294820    -0.743371713376     1.007825032230
         H           -2.367492109889     2.227507705180     0.203297286624     1.007825032230
         H           -1.244262109889    -2.559333294820    -0.138474713376     1.007825032230
         H           -4.168856109889     0.547921705180     0.381500286624     1.007825032230
         H           -3.600897109889    -1.886842294820     0.177196286624     1.007825032230

  Basis Set: AUG-CC-PVTZ
    Blend: AUG-CC-PVTZ
  Basis Set: (AUG-CC-PVTZ AUX)
    Blend: AUG-CC-PVTZ-JKFIT
	 Reference Energy          =    -514.5903220780592164 [Eh]
	 Singles Energy            =      -0.0000000000000000 [Eh]
	 Same-Spin Energy          =      -0.5584061530499000 [Eh]
	 Opposite-Spin Energy      =      -1.7438979899203588 [Eh]
	 Correlation Energy        =      -2.3023041429702591 [Eh]
	 Total Energy              =    -516.8926262210294453 [Eh]

	 ================> DF-SCS-MP2 Energies <==================
	-----------------------------------------------------------
	 SCS Same-Spin Scale       =       0.3333333333333333 [-]
	 SCS Opposite-Spin Scale   =       1.2000000000000000 [-]
	 SCS Same-Spin Energy      =      -0.1861353843499667 [Eh]
	 SCS Opposite-Spin Energy  =      -2.0926775879044306 [Eh]
	 SCS Correlation Energy    =      -2.2788129722543973 [Eh]
	 SCS Total Energy          =    -516.8691350503136164 [Eh]
	-----------------------------------------------------------

  Dipole Moment: [D]
     X:    -2.9342      Y:     2.0341      Z:     0.0218     Total:     3.5704

*** Psi4 exiting successfully. Buy a developer a beer!
