                               Psi4 1.3.2 release

  ==> Input File <==

--------------------------------------------------------------------------
#psi4
#
memory 32 gb

molecule  {
0 1
  O        3.0005300    -1.5493530     0.0754490
  N        0.8317470    -1.1153310    -0.4215630
  C        0.1708270     1.7945717    -0.2631199
  C        1.6857700     1.6448450    -0.3508570
  C       -0.7674710     0.7851500    -0.1025020
  C        2.1481850     0.6250380     0.6971500
  C       -0.4596220    -0.5879500    -0.1790540
  C        2.0510250    -0.7686880     0.1361100
  C       -2.1103850     1.1321340     0.1249900
  C       -1.4919760    -1.5397800    -0.0852490
  C       -3.1313420     0.1920050     0.2149350
  C       -2.8150140    -1.1632860     0.1069400
  H       -0.1141940     2.5504580    -1.1051150
  H        0.0480080     2.5950730     0.6372840
  H        1.9308140     1.2745600    -1.3520490
  H        2.2359360     2.5841340    -0.2253410
  H        1.5370720     0.7103830     1.6057590
  H        3.1934550     0.7649280     0.9813470
  H        0.8461440    -2.0798130    -0.7458600
  H       -2.3558010     2.1909910     0.2008090
  H       -1.2325710    -2.5958500    -0.1409630
  H       -4.1571650     0.5114050     0.3790120
  H       -3.5892060    -1.9233590     0.1747080
units angstrom
no_reorient  #important for SAPT in psi4, default
symmetry c1  #important for SAPT in psi4, default
}

set PROPERTIES_ORIGIN ["COM"]
properties('MP2/aug-cc-pvtz', properties = ['dipole'])
--------------------------------------------------------------------------

    Molecular point group: c1
  Charge       = 0
  Multiplicity = 1
  Basis Set: AUG-CC-PVTZ
    Blend: AUG-CC-PVTZ
  Basis Set: (AUG-CC-PVTZ AUX)
    Blend: AUG-CC-PVTZ-JKFIT

    Orbital Energies [Eh]
    ---------------------

    Doubly Occupied:

       1A    -20.525996     2A    -15.597336     3A    -11.357490
       4A    -11.296744     5A    -11.253398     6A    -11.251184
       7A    -11.247078     8A    -11.246678     9A    -11.246236
      10A    -11.245003    11A    -11.242063    12A    -11.241452
      13A     -1.380572    14A     -1.255542    15A     -1.157970
      16A     -1.108726    17A     -1.048372    18A     -1.017468
      19A     -0.951484    20A     -0.889542    21A     -0.847016
      22A     -0.805383    23A     -0.765138    24A     -0.721506
      25A     -0.682529    26A     -0.677676    27A     -0.650297
      28A     -0.630921    29A     -0.609230    30A     -0.604672
      31A     -0.598612    32A     -0.583213    33A     -0.565106
      34A     -0.543456    35A     -0.519799    36A     -0.516696
      37A     -0.500747    38A     -0.480048    39A     -0.474216
      40A     -0.436030    41A     -0.424723    42A     -0.336353
      43A     -0.313589

  @DF-RHF Final Energy:  -514.56533091836388

   => Energetics <=

    Nuclear Repulsion Energy =            677.8312012276320502
    One-Electron Energy =               -2043.0984872135529713
    Two-Electron Energy =                 850.7019550675569235
    Total Energy =                       -514.5653309183638839
  Basis Set: (AUG-CC-PVTZ AUX)
    Blend: AUG-CC-PVTZ-RI
    Molecular point group: c1

    Geometry (in Angstrom), charge = 0, multiplicity = 1:

       Center              X                  Y                   Z               Mass
    ------------   -----------------  -----------------  -----------------  -----------------
         O            2.992275167889    -1.497225350668     0.079741568076    15.994914619570
         N            0.823492167889    -1.063203350668    -0.417270431924    14.003074004430
         C            0.162572167889     1.846699349332    -0.258827331924    12.000000000000
         C            1.677515167889     1.696972649332    -0.346564431924    12.000000000000
         C           -0.775725832111     0.837277649332    -0.098209431924    12.000000000000
         C            2.139930167889     0.677165649332     0.701442568076    12.000000000000
         C           -0.467876832111    -0.535822350668    -0.174761431924    12.000000000000
         C            2.042770167889    -0.716560350668     0.140402568076    12.000000000000
         C           -2.118639832111     1.184261649332     0.129282568076    12.000000000000
         C           -1.500230832111    -1.487652350668    -0.080956431924    12.000000000000
         C           -3.139596832111     0.244132649332     0.219227568076    12.000000000000
         C           -2.823268832111    -1.111158350668     0.111232568076    12.000000000000
         H           -0.122448832111     2.602585649332    -1.100822431924     1.007825032230
         H            0.039753167889     2.647200649332     0.641576568076     1.007825032230
         H            1.922559167889     1.326687649332    -1.347756431924     1.007825032230
         H            2.227681167889     2.636261649332    -0.221048431924     1.007825032230
         H            1.528817167889     0.762510649332     1.610051568076     1.007825032230
         H            3.185200167889     0.817055649332     0.985639568076     1.007825032230
         H            0.837889167889    -2.027685350668    -0.741567431924     1.007825032230
         H           -2.364055832111     2.243118649332     0.205101568076     1.007825032230
         H           -1.240825832111    -2.543722350668    -0.136670431924     1.007825032230
         H           -4.165419832111     0.563532649332     0.383304568076     1.007825032230
         H           -3.597460832111    -1.871231350668     0.179000568076     1.007825032230

  Basis Set: AUG-CC-PVTZ
    Blend: AUG-CC-PVTZ
  Basis Set: (AUG-CC-PVTZ AUX)
    Blend: AUG-CC-PVTZ-JKFIT
	 Reference Energy          =    -514.5653309183638839 [Eh]
	 Singles Energy            =      -0.0000000000000000 [Eh]
	 Same-Spin Energy          =      -0.5601906525578024 [Eh]
	 Opposite-Spin Energy      =      -1.7464588936710574 [Eh]
	 Correlation Energy        =      -2.3066495462288596 [Eh]
	 Total Energy              =    -516.8719804645927525 [Eh]

	 ================> DF-SCS-MP2 Energies <==================
	-----------------------------------------------------------
	 SCS Same-Spin Scale       =       0.3333333333333333 [-]
	 SCS Opposite-Spin Scale   =       1.2000000000000000 [-]
	 SCS Same-Spin Energy      =      -0.1867302175192675 [Eh]
	 SCS Opposite-Spin Energy  =      -2.0957506724052690 [Eh]
	 SCS Correlation Energy    =      -2.2824808899245363 [Eh]
	 SCS Total Energy          =    -516.8478118082883839 [Eh]
	-----------------------------------------------------------

  Dipole Moment: [D]
     X:    -2.7079      Y:     2.0141      Z:     0.0038     Total:     3.3748

*** Psi4 exiting successfully. Buy a developer a beer!
