                               Psi4 1.3.2 release

  ==> Input File <==

--------------------------------------------------------------------------
#psi4
#
memory 32 gb

molecule  {
0 1
  O        3.0005300    -1.5493530     0.0754490
  N        0.8660590    -1.0226649    -0.4202343
  C        0.1960040     1.9504030    -0.2395030
  C        1.6857700     1.6448450    -0.3508570
  C       -0.7674710     0.7851500    -0.1025020
  C        2.1481850     0.6250380     0.6971500
  C       -0.4596220    -0.5879500    -0.1790540
  C        2.0510250    -0.7686880     0.1361100
  C       -2.1103850     1.1321340     0.1249900
  C       -1.4919760    -1.5397800    -0.0852490
  C       -3.1313420     0.1920050     0.2149350
  C       -2.8150140    -1.1632860     0.1069400
  H       -0.1141940     2.5504580    -1.1051150
  H        0.0480080     2.5950730     0.6372840
  H        1.9308140     1.2745600    -1.3520490
  H        2.2359360     2.5841340    -0.2253410
  H        1.5370720     0.7103830     1.6057590
  H        3.1934550     0.7649280     0.9813470
  H        0.8461440    -2.0798130    -0.7458600
  H       -2.3558010     2.1909910     0.2008090
  H       -1.2325710    -2.5958500    -0.1409630
  H       -4.1571650     0.5114050     0.3790120
  H       -3.5892060    -1.9233590     0.1747080
units angstrom
no_reorient  #important for SAPT in psi4, default
symmetry c1  #important for SAPT in psi4, default
}

set PROPERTIES_ORIGIN ["COM"]
properties('MP2/aug-cc-pvtz', properties = ['dipole'])
--------------------------------------------------------------------------

    Molecular point group: c1
  Charge       = 0
  Multiplicity = 1
  Basis Set: AUG-CC-PVTZ
    Blend: AUG-CC-PVTZ
  Basis Set: (AUG-CC-PVTZ AUX)
    Blend: AUG-CC-PVTZ-JKFIT

    Orbital Energies [Eh]
    ---------------------

    Doubly Occupied:

       1A    -20.520527     2A    -15.604335     3A    -11.350566
       4A    -11.300792     5A    -11.256046     6A    -11.250169
       7A    -11.248708     8A    -11.246048     9A    -11.245115
      10A    -11.242676    11A    -11.240424    12A    -11.237495
      13A     -1.379816    14A     -1.258409    15A     -1.155192
      16A     -1.100012    17A     -1.041095    18A     -1.021140
      19A     -0.954292    20A     -0.885347    21A     -0.845899
      22A     -0.810299    23A     -0.762653    24A     -0.716865
      25A     -0.678883    26A     -0.671512    27A     -0.645332
      28A     -0.630383    29A     -0.611462    30A     -0.605556
      31A     -0.599921    32A     -0.576196    33A     -0.557486
      34A     -0.542184    35A     -0.517654    36A     -0.511802
      37A     -0.497781    38A     -0.489761    39A     -0.482466
      40A     -0.435739    41A     -0.422796    42A     -0.342784
      43A     -0.320084

  @DF-RHF Final Energy:  -514.58087436251412

   => Energetics <=

    Nuclear Repulsion Energy =            676.3301847529319275
    One-Electron Energy =               -2040.1947116809010367
    Two-Electron Energy =                 849.2836525654549860
    Total Energy =                       -514.5808743625141233
  Basis Set: (AUG-CC-PVTZ AUX)
    Blend: AUG-CC-PVTZ-RI
    Molecular point group: c1

    Geometry (in Angstrom), charge = 0, multiplicity = 1:

       Center              X                  Y                   Z               Mass
    ------------   -----------------  -----------------  -----------------  -----------------
         O            2.987416850710    -1.516889529592     0.077866716667    15.994914619570
         N            0.852945850710    -0.990201429592    -0.417816583333    14.003074004430
         C            0.182890850710     1.982866470408    -0.237085283333    12.000000000000
         C            1.672656850710     1.677308470408    -0.348439283333    12.000000000000
         C           -0.780584149290     0.817613470408    -0.100084283333    12.000000000000
         C            2.135071850710     0.657501470408     0.699567716667    12.000000000000
         C           -0.472735149290    -0.555486529592    -0.176636283333    12.000000000000
         C            2.037911850710    -0.736224529592     0.138527716667    12.000000000000
         C           -2.123498149290     1.164597470408     0.127407716667    12.000000000000
         C           -1.505089149290    -1.507316529592    -0.082831283333    12.000000000000
         C           -3.144455149290     0.224468470408     0.217352716667    12.000000000000
         C           -2.828127149290    -1.130822529592     0.109357716667    12.000000000000
         H           -0.127307149290     2.582921470408    -1.102697283333     1.007825032230
         H            0.034894850710     2.627536470408     0.639701716667     1.007825032230
         H            1.917700850710     1.307023470408    -1.349631283333     1.007825032230
         H            2.222822850710     2.616597470408    -0.222923283333     1.007825032230
         H            1.523958850710     0.742846470408     1.608176716667     1.007825032230
         H            3.180341850710     0.797391470408     0.983764716667     1.007825032230
         H            0.833030850710    -2.047349529592    -0.743442283333     1.007825032230
         H           -2.368914149290     2.223454470408     0.203226716667     1.007825032230
         H           -1.245684149290    -2.563386529592    -0.138545283333     1.007825032230
         H           -4.170278149290     0.543868470408     0.381429716667     1.007825032230
         H           -3.602319149290    -1.890895529592     0.177125716667     1.007825032230

  Basis Set: AUG-CC-PVTZ
    Blend: AUG-CC-PVTZ
  Basis Set: (AUG-CC-PVTZ AUX)
    Blend: AUG-CC-PVTZ-JKFIT
	 Reference Energy          =    -514.5808743625141233 [Eh]
	 Singles Energy            =      -0.0000000000000000 [Eh]
	 Same-Spin Energy          =      -0.5590851386031128 [Eh]
	 Opposite-Spin Energy      =      -1.7451453917932094 [Eh]
	 Correlation Energy        =      -2.3042305303963220 [Eh]
	 Total Energy              =    -516.8851048929104763 [Eh]

	 ================> DF-SCS-MP2 Energies <==================
	-----------------------------------------------------------
	 SCS Same-Spin Scale       =       0.3333333333333333 [-]
	 SCS Opposite-Spin Scale   =       1.2000000000000000 [-]
	 SCS Same-Spin Energy      =      -0.1863617128677043 [Eh]
	 SCS Opposite-Spin Energy  =      -2.0941744701518510 [Eh]
	 SCS Correlation Energy    =      -2.2805361830195552 [Eh]
	 SCS Total Energy          =    -516.8614105455336585 [Eh]
	-----------------------------------------------------------

  Dipole Moment: [D]
     X:    -3.1155      Y:     2.0131      Z:     0.0131     Total:     3.7093

*** Psi4 exiting successfully. Buy a developer a beer!
