                               Psi4 1.3.2 release

  ==> Input File <==

--------------------------------------------------------------------------
#psi4
#
memory 32 gb

molecule  {
0 1
  O        3.0005300    -1.5493530     0.0754490
  N        0.8317470    -1.1153310    -0.4215630
  C        0.2354464     1.9157443    -0.2466582
  C        1.6857700     1.6448450    -0.3508570
  C       -0.7674710     0.7851500    -0.1025020
  C        2.1481850     0.6250380     0.6971500
  C       -0.4596220    -0.5879500    -0.1790540
  C        2.0510250    -0.7686880     0.1361100
  C       -2.1103850     1.1321340     0.1249900
  C       -1.4919760    -1.5397800    -0.0852490
  C       -3.1313420     0.1920050     0.2149350
  C       -2.8150140    -1.1632860     0.1069400
  H       -0.1141940     2.5504580    -1.1051150
  H        0.0480080     2.5950730     0.6372840
  H        1.9308140     1.2745600    -1.3520490
  H        2.2359360     2.5841340    -0.2253410
  H        1.5370720     0.7103830     1.6057590
  H        3.1934550     0.7649280     0.9813470
  H        0.8461440    -2.0798130    -0.7458600
  H       -2.3558010     2.1909910     0.2008090
  H       -1.2325710    -2.5958500    -0.1409630
  H       -4.1571650     0.5114050     0.3790120
  H       -3.5892060    -1.9233590     0.1747080
units angstrom
no_reorient  #important for SAPT in psi4, default
symmetry c1  #important for SAPT in psi4, default
}

set PROPERTIES_ORIGIN ["COM"]
properties('MP2/aug-cc-pvtz', properties = ['dipole'])
--------------------------------------------------------------------------

    Molecular point group: c1
  Charge       = 0
  Multiplicity = 1
  Basis Set: AUG-CC-PVTZ
    Blend: AUG-CC-PVTZ
  Basis Set: (AUG-CC-PVTZ AUX)
    Blend: AUG-CC-PVTZ-JKFIT

    Orbital Energies [Eh]
    ---------------------

    Doubly Occupied:

       1A    -20.525904     2A    -15.596396     3A    -11.357327
       4A    -11.296360     5A    -11.256299     6A    -11.248052
       7A    -11.246322     8A    -11.245818     9A    -11.244310
      10A    -11.243048    11A    -11.241107    12A    -11.240395
      13A     -1.380363    14A     -1.253416    15A     -1.151675
      16A     -1.107446    17A     -1.038742    18A     -1.016704
      19A     -0.959059    20A     -0.880831    21A     -0.843297
      22A     -0.806868    23A     -0.765788    24A     -0.721819
      25A     -0.682721    26A     -0.671055    27A     -0.647479
      28A     -0.629183    29A     -0.612904    30A     -0.603109
      31A     -0.599947    32A     -0.578614    33A     -0.563762
      34A     -0.542761    35A     -0.518402    36A     -0.510999
      37A     -0.502873    38A     -0.486926    39A     -0.482397
      40A     -0.435452    41A     -0.426206    42A     -0.339754
      43A     -0.315587

  @DF-RHF Final Energy:  -514.59068480417034

   => Energetics <=

    Nuclear Repulsion Energy =            675.7224289944514339
    One-Electron Energy =               -2038.9912766009360894
    Two-Electron Energy =                 848.6781628023142048
    Total Energy =                       -514.5906848041703370
  Basis Set: (AUG-CC-PVTZ AUX)
    Blend: AUG-CC-PVTZ-RI
    Molecular point group: c1

    Geometry (in Angstrom), charge = 0, multiplicity = 1:

       Center              X                  Y                   Z               Mass
    ------------   -----------------  -----------------  -----------------  -----------------
         O            2.987461328575    -1.506252135590     0.078515249376    15.994914619570
         N            0.818678328575    -1.072230135590    -0.418496750624    14.003074004430
         C            0.222377728575     1.958845164410    -0.243591950624    12.000000000000
         C            1.672701328575     1.687945864410    -0.347790750624    12.000000000000
         C           -0.780539671425     0.828250864410    -0.099435750624    12.000000000000
         C            2.135116328575     0.668138864410     0.700216249376    12.000000000000
         C           -0.472690671425    -0.544849135590    -0.175987750624    12.000000000000
         C            2.037956328575    -0.725587135590     0.139176249376    12.000000000000
         C           -2.123453671425     1.175234864410     0.128056249376    12.000000000000
         C           -1.505044671425    -1.496679135590    -0.082182750624    12.000000000000
         C           -3.144410671425     0.235105864410     0.218001249376    12.000000000000
         C           -2.828082671425    -1.120185135590     0.110006249376    12.000000000000
         H           -0.127262671425     2.593558864410    -1.102048750624     1.007825032230
         H            0.034939328575     2.638173864410     0.640350249376     1.007825032230
         H            1.917745328575     1.317660864410    -1.348982750624     1.007825032230
         H            2.222867328575     2.627234864410    -0.222274750624     1.007825032230
         H            1.524003328575     0.753483864410     1.608825249376     1.007825032230
         H            3.180386328575     0.808028864410     0.984413249376     1.007825032230
         H            0.833075328575    -2.036712135590    -0.742793750624     1.007825032230
         H           -2.368869671425     2.234091864410     0.203875249376     1.007825032230
         H           -1.245639671425    -2.552749135590    -0.137896750624     1.007825032230
         H           -4.170233671425     0.554505864410     0.382078249376     1.007825032230
         H           -3.602274671425    -1.880258135590     0.177774249376     1.007825032230

  Basis Set: AUG-CC-PVTZ
    Blend: AUG-CC-PVTZ
  Basis Set: (AUG-CC-PVTZ AUX)
    Blend: AUG-CC-PVTZ-JKFIT
	 Reference Energy          =    -514.5906848041703370 [Eh]
	 Singles Energy            =      -0.0000000000000000 [Eh]
	 Same-Spin Energy          =      -0.5583569319451184 [Eh]
	 Opposite-Spin Energy      =      -1.7436243219513148 [Eh]
	 Correlation Energy        =      -2.3019812538964333 [Eh]
	 Total Energy              =    -516.8926660580667658 [Eh]

	 ================> DF-SCS-MP2 Energies <==================
	-----------------------------------------------------------
	 SCS Same-Spin Scale       =       0.3333333333333333 [-]
	 SCS Opposite-Spin Scale   =       1.2000000000000000 [-]
	 SCS Same-Spin Energy      =      -0.1861189773150395 [Eh]
	 SCS Opposite-Spin Energy  =      -2.0923491863415777 [Eh]
	 SCS Correlation Energy    =      -2.2784681636566173 [Eh]
	 SCS Total Energy          =    -516.8691529678269490 [Eh]
	-----------------------------------------------------------

  Dipole Moment: [D]
     X:    -2.7074      Y:     2.0536      Z:     0.0274     Total:     3.3982

*** Psi4 exiting successfully. Buy a developer a beer!
