                               Psi4 1.4a3.dev225

  ==> Input File <==

--------------------------------------------------------------------------
#psi4
#
memory 32 gb

molecule  {
0 1
  O        3.0005300    -1.5493530     0.0754490
  N        0.8317470    -1.1153310    -0.4215630
  C        0.1960040     1.9504030    -0.2395030
  C        1.6857700     1.6448450    -0.3508570
  C       -0.7674710     0.7851500    -0.1025020
  C        2.1481850     0.6250380     0.6971500
  C       -0.4596220    -0.5879500    -0.1790540
  C        2.0510250    -0.7686880     0.1361100
  C       -2.1103850     1.1321340     0.1249900
  C       -1.4773047    -1.5262531    -0.0865821
  C       -3.1313420     0.1920050     0.2149350
  C       -2.8150140    -1.1632860     0.1069400
  H       -0.1141940     2.5504580    -1.1051150
  H        0.0480080     2.5950730     0.6372840
  H        1.9308140     1.2745600    -1.3520490
  H        2.2359360     2.5841340    -0.2253410
  H        1.5370720     0.7103830     1.6057590
  H        3.1934550     0.7649280     0.9813470
  H        0.8461440    -2.0798130    -0.7458600
  H       -2.3558010     2.1909910     0.2008090
  H       -1.2325710    -2.5958500    -0.1409630
  H       -4.1571650     0.5114050     0.3790120
  H       -3.5892060    -1.9233590     0.1747080
units angstrom
no_reorient  #important for SAPT in psi4, default
symmetry c1  #important for SAPT in psi4, default
}

set PROPERTIES_ORIGIN ["COM"]
properties('MP2/aug-cc-pvtz', properties = ['dipole'])
--------------------------------------------------------------------------

    Molecular point group: c1
  Charge       = 0
  Multiplicity = 1
  Basis Set: AUG-CC-PVTZ
    Blend: AUG-CC-PVTZ
  Basis Set: (AUG-CC-PVTZ AUX)
    Blend: AUG-CC-PVTZ-JKFIT

    Orbital Energies [Eh]
    ---------------------

    Doubly Occupied:

       1A    -20.525359     2A    -15.595547     3A    -11.356708
       4A    -11.295241     5A    -11.255675     6A    -11.247420
       7A    -11.245028     8A    -11.244794     9A    -11.244244
      10A    -11.242846    11A    -11.242141    12A    -11.240074
      13A     -1.379827    14A     -1.253550    15A     -1.151859
      16A     -1.101881    17A     -1.038127    18A     -1.017765
      19A     -0.957331    20A     -0.880284    21A     -0.842079
      22A     -0.808986    23A     -0.766313    24A     -0.722003
      25A     -0.681620    26A     -0.669359    27A     -0.646877
      28A     -0.629093    29A     -0.611431    30A     -0.602900
      31A     -0.601236    32A     -0.578759    33A     -0.563804
      34A     -0.542688    35A     -0.515897    36A     -0.511005
      37A     -0.498198    38A     -0.492428    39A     -0.483404
      40A     -0.435091    41A     -0.425679    42A     -0.339409
      43A     -0.317619

  @DF-RHF Final Energy:  -514.59389248899197

   => Energetics <=

    Nuclear Repulsion Energy =            675.3908841138019170
    One-Electron Energy =               -2038.3663960286864949
    Two-Electron Energy =                 848.3816194258924952
    Total Energy =                       -514.5938924889919690
  Basis Set: (AUG-CC-PVTZ AUX)
    Blend: AUG-CC-PVTZ-RI
    Molecular point group: c1

    Geometry (in Angstrom), charge = 0, multiplicity = 1:

       Center              X                  Y                   Z               Mass
    ------------   -----------------  -----------------  -----------------  -----------------
         O            2.989306658229    -1.509841734622     0.078081530495    15.994914619570
         N            0.820523658229    -1.075819734622    -0.418930469505    14.003074004430
         C            0.184780658229     1.989914265378    -0.236870469505    12.000000000000
         C            1.674546658229     1.684356265378    -0.348224469505    12.000000000000
         C           -0.778694341771     0.824661265378    -0.099869469505    12.000000000000
         C            2.136961658229     0.664549265378     0.699782530495    12.000000000000
         C           -0.470845341771    -0.548438734622    -0.176421469505    12.000000000000
         C            2.039801658229    -0.729176734622     0.138742530495    12.000000000000
         C           -2.121608341771     1.171645265378     0.127622530495    12.000000000000
         C           -1.488528041771    -1.486741834622    -0.083949569505    12.000000000000
         C           -3.142565341771     0.231516265378     0.217567530495    12.000000000000
         C           -2.826237341771    -1.123774734622     0.109572530495    12.000000000000
         H           -0.125417341771     2.589969265378    -1.102482469505     1.007825032230
         H            0.036784658229     2.634584265378     0.639916530495     1.007825032230
         H            1.919590658229     1.314071265378    -1.349416469505     1.007825032230
         H            2.224712658229     2.623645265378    -0.222708469505     1.007825032230
         H            1.525848658229     0.749894265378     1.608391530495     1.007825032230
         H            3.182231658229     0.804439265378     0.983979530495     1.007825032230
         H            0.834920658229    -2.040301734622    -0.743227469505     1.007825032230
         H           -2.367024341771     2.230502265378     0.203441530495     1.007825032230
         H           -1.243794341771    -2.556338734622    -0.138330469505     1.007825032230
         H           -4.168388341771     0.550916265378     0.381644530495     1.007825032230
         H           -3.600429341771    -1.883847734622     0.177340530495     1.007825032230

  Basis Set: AUG-CC-PVTZ
    Blend: AUG-CC-PVTZ
  Basis Set: (AUG-CC-PVTZ AUX)
    Blend: AUG-CC-PVTZ-JKFIT
	 Reference Energy          =    -514.5938924889919690 [Eh]
	 Singles Energy            =      -0.0000000000000000 [Eh]
	 Same-Spin Energy          =      -0.5579361965496953 [Eh]
	 Opposite-Spin Energy      =      -1.7430940642103168 [Eh]
	 Correlation Energy        =      -2.3010302607600122 [Eh]
	 Total Energy              =    -516.8949227497520269 [Eh]

	 ================> DF-SCS-MP2 Energies <==================
	-----------------------------------------------------------
	 SCS Same-Spin Scale       =       0.3333333333333333 [-]
	 SCS Opposite-Spin Scale   =       1.2000000000000000 [-]
	 SCS Same-Spin Energy      =      -0.1859787321832317 [Eh]
	 SCS Opposite-Spin Energy  =      -2.0917128770523798 [Eh]
	 SCS Correlation Energy    =      -2.2776916092356116 [Eh]
	 SCS Total Energy          =    -516.8715840982275722 [Eh]
	-----------------------------------------------------------

  Dipole Moment: [D]
     X:    -2.7652      Y:     2.0710      Z:     0.0370     Total:     3.4549

*** Psi4 exiting successfully. Buy a developer a beer!
