                               Psi4 1.3.2 release

  ==> Input File <==

--------------------------------------------------------------------------
#psi4
#
memory 32 gb

molecule  {
0 1
  O        2.9189888    -1.6337752     0.0223543
  N        0.8317470    -1.1153310    -0.4215630
  C        0.1960040     1.9504030    -0.2395030
  C        1.6857700     1.6448450    -0.3508570
  C       -0.7674710     0.7851500    -0.1025020
  C        2.1481850     0.6250380     0.6971500
  C       -0.4596220    -0.5879500    -0.1790540
  C        2.0510250    -0.7686880     0.1361100
  C       -2.1103850     1.1321340     0.1249900
  C       -1.4919760    -1.5397800    -0.0852490
  C       -3.1313420     0.1920050     0.2149350
  C       -2.8150140    -1.1632860     0.1069400
  H       -0.1141940     2.5504580    -1.1051150
  H        0.0480080     2.5950730     0.6372840
  H        1.9308140     1.2745600    -1.3520490
  H        2.2359360     2.5841340    -0.2253410
  H        1.5370720     0.7103830     1.6057590
  H        3.1934550     0.7649280     0.9813470
  H        0.8461440    -2.0798130    -0.7458600
  H       -2.3558010     2.1909910     0.2008090
  H       -1.2325710    -2.5958500    -0.1409630
  H       -4.1571650     0.5114050     0.3790120
  H       -3.5892060    -1.9233590     0.1747080
units angstrom
no_reorient  #important for SAPT in psi4, default
symmetry c1  #important for SAPT in psi4, default
}

set PROPERTIES_ORIGIN ["COM"]
properties('MP2/aug-cc-pvtz', properties = ['dipole'])
--------------------------------------------------------------------------

    Molecular point group: c1
  Charge       = 0
  Multiplicity = 1
  Basis Set: AUG-CC-PVTZ
    Blend: AUG-CC-PVTZ
  Basis Set: (AUG-CC-PVTZ AUX)
    Blend: AUG-CC-PVTZ-JKFIT

    Orbital Energies [Eh]
    ---------------------

    Doubly Occupied:

       1A    -20.524508     2A    -15.589610     3A    -11.357696
       4A    -11.294276     5A    -11.253432     6A    -11.249514
       7A    -11.245754     8A    -11.245014     9A    -11.245010
      10A    -11.243906    11A    -11.242236    12A    -11.238120
      13A     -1.383053    14A     -1.246456    15A     -1.149022
      16A     -1.104044    17A     -1.039828    18A     -1.013733
      19A     -0.958813    20A     -0.880029    21A     -0.840866
      22A     -0.808600    23A     -0.765084    24A     -0.720297
      25A     -0.681838    26A     -0.669579    27A     -0.646246
      28A     -0.627963    29A     -0.611091    30A     -0.603440
      31A     -0.600911    32A     -0.579576    33A     -0.563845
      34A     -0.542735    35A     -0.516627    36A     -0.512273
      37A     -0.498301    38A     -0.492518    39A     -0.483753
      40A     -0.431862    41A     -0.428404    42A     -0.339318
      43A     -0.312902

  @DF-RHF Final Energy:  -514.59114188693104

   => Energetics <=

    Nuclear Repulsion Energy =            675.4833192086235840
    One-Electron Energy =               -2038.5847538938226080
    Two-Electron Energy =                 848.5102927982678693
    Total Energy =                       -514.5911418869310410
  Basis Set: (AUG-CC-PVTZ AUX)
    Blend: AUG-CC-PVTZ-RI
    Molecular point group: c1

    Geometry (in Angstrom), charge = 0, multiplicity = 1:

       Center              X                  Y                   Z               Mass
    ------------   -----------------  -----------------  -----------------  -----------------
         O            2.916955070754    -1.584873504286     0.030159582986    15.994914619570
         N            0.829713270754    -1.066429304286    -0.413757717014    14.003074004430
         C            0.193970270754     1.999304695714    -0.231697717014    12.000000000000
         C            1.683736270754     1.693746695714    -0.343051717014    12.000000000000
         C           -0.769504729246     0.834051695714    -0.094696717014    12.000000000000
         C            2.146151270754     0.673939695714     0.704955282986    12.000000000000
         C           -0.461655729246    -0.539048304286    -0.171248717014    12.000000000000
         C            2.048991270754    -0.719786304286     0.143915282986    12.000000000000
         C           -2.112418729246     1.181035695714     0.132795282986    12.000000000000
         C           -1.494009729246    -1.490878304286    -0.077443717014    12.000000000000
         C           -3.133375729246     0.240906695714     0.222740282986    12.000000000000
         C           -2.817047729246    -1.114384304286     0.114745282986    12.000000000000
         H           -0.116227729246     2.599359695714    -1.097309717014     1.007825032230
         H            0.045974270754     2.643974695714     0.645089282986     1.007825032230
         H            1.928780270754     1.323461695714    -1.344243717014     1.007825032230
         H            2.233902270754     2.633035695714    -0.217535717014     1.007825032230
         H            1.535038270754     0.759284695714     1.613564282986     1.007825032230
         H            3.191421270754     0.813829695714     0.989152282986     1.007825032230
         H            0.844110270754    -2.030911304286    -0.738054717014     1.007825032230
         H           -2.357834729246     2.239892695714     0.208614282986     1.007825032230
         H           -1.234604729246    -2.546948304286    -0.133157717014     1.007825032230
         H           -4.159198729246     0.560306695714     0.386817282986     1.007825032230
         H           -3.591239729246    -1.874457304286     0.182513282986     1.007825032230

  Basis Set: AUG-CC-PVTZ
    Blend: AUG-CC-PVTZ
  Basis Set: (AUG-CC-PVTZ AUX)
    Blend: AUG-CC-PVTZ-JKFIT
	 Reference Energy          =    -514.5911418869310410 [Eh]
	 Singles Energy            =      -0.0000000000000000 [Eh]
	 Same-Spin Energy          =      -0.5580169743189297 [Eh]
	 Opposite-Spin Energy      =      -1.7431482897767947 [Eh]
	 Correlation Energy        =      -2.3011652640957245 [Eh]
	 Total Energy              =    -516.8923071510267846 [Eh]

	 ================> DF-SCS-MP2 Energies <==================
	-----------------------------------------------------------
	 SCS Same-Spin Scale       =       0.3333333333333333 [-]
	 SCS Opposite-Spin Scale   =       1.2000000000000000 [-]
	 SCS Same-Spin Energy      =      -0.1860056581063099 [Eh]
	 SCS Opposite-Spin Energy  =      -2.0917779477321536 [Eh]
	 SCS Correlation Energy    =      -2.2777836058384637 [Eh]
	 SCS Total Energy          =    -516.8689254927694492 [Eh]
	-----------------------------------------------------------

  Dipole Moment: [D]
     X:    -2.4588      Y:     2.2819      Z:     0.1575     Total:     3.3582

*** Psi4 exiting successfully. Buy a developer a beer!
