                               Psi4 1.3.2 release

  ==> Input File <==

--------------------------------------------------------------------------
#psi4
#
memory 32 gb

molecule  {
0 1
  O        3.0005300    -1.5493530     0.0754490
  N        0.8317470    -1.1153310    -0.4215630
  C        0.1960040     1.9504030    -0.2395030
  C        1.6857700     1.6448450    -0.3508570
  C       -0.9084979     0.7447474    -0.0870599
  C        2.1481850     0.6250380     0.6971500
  C       -0.4596220    -0.5879500    -0.1790540
  C        2.0510250    -0.7686880     0.1361100
  C       -2.1103850     1.1321340     0.1249900
  C       -1.4919760    -1.5397800    -0.0852490
  C       -3.1313420     0.1920050     0.2149350
  C       -2.8150140    -1.1632860     0.1069400
  H       -0.1141940     2.5504580    -1.1051150
  H        0.0480080     2.5950730     0.6372840
  H        1.9308140     1.2745600    -1.3520490
  H        2.2359360     2.5841340    -0.2253410
  H        1.5370720     0.7103830     1.6057590
  H        3.1934550     0.7649280     0.9813470
  H        0.8461440    -2.0798130    -0.7458600
  H       -2.3558010     2.1909910     0.2008090
  H       -1.2325710    -2.5958500    -0.1409630
  H       -4.1571650     0.5114050     0.3790120
  H       -3.5892060    -1.9233590     0.1747080
units angstrom
no_reorient  #important for SAPT in psi4, default
symmetry c1  #important for SAPT in psi4, default
}

set PROPERTIES_ORIGIN ["COM"]
properties('MP2/aug-cc-pvtz', properties = ['dipole'])
--------------------------------------------------------------------------

    Molecular point group: c1
  Charge       = 0
  Multiplicity = 1
  Basis Set: AUG-CC-PVTZ
    Blend: AUG-CC-PVTZ
  Basis Set: (AUG-CC-PVTZ AUX)
    Blend: AUG-CC-PVTZ-JKFIT

    Orbital Energies [Eh]
    ---------------------

    Doubly Occupied:

       1A    -20.527330     2A    -15.601385     3A    -11.358324
       4A    -11.297810     5A    -11.248022     6A    -11.245907
       7A    -11.244374     8A    -11.243124     9A    -11.242781
      10A    -11.242032    11A    -11.239640    12A    -11.229998
      13A     -1.381672    14A     -1.254588    15A     -1.166187
      16A     -1.094684    17A     -1.040643    18A     -1.020309
      19A     -0.956386    20A     -0.875000    21A     -0.845062
      22A     -0.809305    23A     -0.771031    24A     -0.726853
      25A     -0.681365    26A     -0.668463    27A     -0.643694
      28A     -0.634534    29A     -0.612315    30A     -0.604944
      31A     -0.598644    32A     -0.573685    33A     -0.565532
      34A     -0.544786    35A     -0.523455    36A     -0.512830
      37A     -0.499801    38A     -0.491396    39A     -0.454539
      40A     -0.435826    41A     -0.427225    42A     -0.356523
      43A     -0.313796

  @DF-RHF Final Energy:  -514.57021853364211

   => Energetics <=

    Nuclear Repulsion Energy =            675.1965867860662911
    One-Electron Energy =               -2037.9220053360845668
    Two-Electron Energy =                 848.1552000163761704
    Total Energy =                       -514.5702185336421053
  Basis Set: (AUG-CC-PVTZ AUX)
    Blend: AUG-CC-PVTZ-RI
    Molecular point group: c1

    Geometry (in Angstrom), charge = 0, multiplicity = 1:

       Center              X                  Y                   Z               Mass
    ------------   -----------------  -----------------  -----------------  -----------------
         O            3.000905436866    -1.505824242239     0.076831857529    15.994914619570
         N            0.832122436866    -1.071802242239    -0.420180142471    14.003074004430
         C            0.196379436866     1.993931757761    -0.238120142471    12.000000000000
         C            1.686145436866     1.688373757761    -0.349474142471    12.000000000000
         C           -0.908122463134     0.788276157761    -0.085677042471    12.000000000000
         C            2.148560436866     0.668566757761     0.698532857529    12.000000000000
         C           -0.459246563134    -0.544421242239    -0.177671142471    12.000000000000
         C            2.051400436866    -0.725159242239     0.137492857529    12.000000000000
         C           -2.110009563134     1.175662757761     0.126372857529    12.000000000000
         C           -1.491600563134    -1.496251242239    -0.083866142471    12.000000000000
         C           -3.130966563134     0.235533757761     0.216317857529    12.000000000000
         C           -2.814638563134    -1.119757242239     0.108322857529    12.000000000000
         H           -0.113818563134     2.593986757761    -1.103732142471     1.007825032230
         H            0.048383436866     2.638601757761     0.638666857529     1.007825032230
         H            1.931189436866     1.318088757761    -1.350666142471     1.007825032230
         H            2.236311436866     2.627662757761    -0.223958142471     1.007825032230
         H            1.537447436866     0.753911757761     1.607141857529     1.007825032230
         H            3.193830436866     0.808456757761     0.982729857529     1.007825032230
         H            0.846519436866    -2.036284242239    -0.744477142471     1.007825032230
         H           -2.355425563134     2.234519757761     0.202191857529     1.007825032230
         H           -1.232195563134    -2.552321242239    -0.139580142471     1.007825032230
         H           -4.156789563134     0.554933757761     0.380394857529     1.007825032230
         H           -3.588830563134    -1.879830242239     0.176090857529     1.007825032230

  Basis Set: AUG-CC-PVTZ
    Blend: AUG-CC-PVTZ
  Basis Set: (AUG-CC-PVTZ AUX)
    Blend: AUG-CC-PVTZ-JKFIT
	 Reference Energy          =    -514.5702185336421053 [Eh]
	 Singles Energy            =      -0.0000000000000000 [Eh]
	 Same-Spin Energy          =      -0.5575919969067243 [Eh]
	 Opposite-Spin Energy      =      -1.7427538932129405 [Eh]
	 Correlation Energy        =      -2.3003458901196647 [Eh]
	 Total Energy              =    -516.8705644237617207 [Eh]

	 ================> DF-SCS-MP2 Energies <==================
	-----------------------------------------------------------
	 SCS Same-Spin Scale       =       0.3333333333333333 [-]
	 SCS Opposite-Spin Scale   =       1.2000000000000000 [-]
	 SCS Same-Spin Energy      =      -0.1858639989689081 [Eh]
	 SCS Opposite-Spin Energy  =      -2.0913046718555286 [Eh]
	 SCS Correlation Energy    =      -2.2771686708244365 [Eh]
	 SCS Total Energy          =    -516.8473872044664859 [Eh]
	-----------------------------------------------------------

  Dipole Moment: [D]
     X:    -2.7185      Y:     1.9501      Z:     0.0485     Total:     3.3459

*** Psi4 exiting successfully. Buy a developer a beer!
