                               Psi4 1.3.2 release

  ==> Input File <==

--------------------------------------------------------------------------
#psi4
#
memory 32 gb

molecule  {
0 1
  O        3.0005300    -1.5493530     0.0754490
  N        0.8317470    -1.1153310    -0.4215630
  C        0.1960040     1.9504030    -0.2395030
  C        1.6857700     1.6448450    -0.3508570
  C       -0.7674710     0.7851500    -0.1025020
  C        2.1481850     0.6250380     0.6971500
  C       -0.3671814    -0.7013199    -0.1964075
  C        2.0510250    -0.7686880     0.1361100
  C       -2.1103850     1.1321340     0.1249900
  C       -1.4919760    -1.5397800    -0.0852490
  C       -3.1313420     0.1920050     0.2149350
  C       -2.8150140    -1.1632860     0.1069400
  H       -0.1141940     2.5504580    -1.1051150
  H        0.0480080     2.5950730     0.6372840
  H        1.9308140     1.2745600    -1.3520490
  H        2.2359360     2.5841340    -0.2253410
  H        1.5370720     0.7103830     1.6057590
  H        3.1934550     0.7649280     0.9813470
  H        0.8461440    -2.0798130    -0.7458600
  H       -2.3558010     2.1909910     0.2008090
  H       -1.2325710    -2.5958500    -0.1409630
  H       -4.1571650     0.5114050     0.3790120
  H       -3.5892060    -1.9233590     0.1747080
units angstrom
no_reorient  #important for SAPT in psi4, default
symmetry c1  #important for SAPT in psi4, default
}

set PROPERTIES_ORIGIN ["COM"]
properties('MP2/aug-cc-pvtz', properties = ['dipole'])
--------------------------------------------------------------------------

    Molecular point group: c1
  Charge       = 0
  Multiplicity = 1
  Basis Set: AUG-CC-PVTZ
    Blend: AUG-CC-PVTZ
  Basis Set: (AUG-CC-PVTZ AUX)
    Blend: AUG-CC-PVTZ-JKFIT

    Orbital Energies [Eh]
    ---------------------

    Doubly Occupied:

       1A    -20.538791     2A    -15.606490     3A    -11.369532
       4A    -11.303493     5A    -11.260331     6A    -11.247963
       7A    -11.244114     8A    -11.242700     9A    -11.241293
      10A    -11.239779    11A    -11.238045    12A    -11.233038
      13A     -1.395569    14A     -1.295743    15A     -1.139640
      16A     -1.103882    17A     -1.032593    18A     -1.014812
      19A     -0.950650    20A     -0.894696    21A     -0.842368
      22A     -0.809076    23A     -0.771597    24A     -0.736280
      25A     -0.689804    26A     -0.670879    27A     -0.650826
      28A     -0.626268    29A     -0.615425    30A     -0.605382
      31A     -0.600961    32A     -0.576479    33A     -0.567135
      34A     -0.546223    35A     -0.516885    36A     -0.509142
      37A     -0.498831    38A     -0.486917    39A     -0.471133
      40A     -0.444120    41A     -0.437898    42A     -0.337192
      43A     -0.294528

  @DF-RHF Final Energy:  -514.56388159503672

   => Energetics <=

    Nuclear Repulsion Energy =            674.8441346602430713
    One-Electron Energy =               -2037.0190314661613229
    Two-Electron Energy =                 847.6110152108815328
    Total Energy =                       -514.5638815950367189
  Basis Set: (AUG-CC-PVTZ AUX)
    Blend: AUG-CC-PVTZ-RI
    Molecular point group: c1

    Geometry (in Angstrom), charge = 0, multiplicity = 1:

       Center              X                  Y                   Z               Mass
    ------------   -----------------  -----------------  -----------------  -----------------
         O            2.983513213633    -1.500388523904     0.079274974435    15.994914619570
         N            0.814730213633    -1.066366523904    -0.417737025565    14.003074004430
         C            0.178987213633     1.999367476096    -0.235677025565    12.000000000000
         C            1.668753213633     1.693809476096    -0.347031025565    12.000000000000
         C           -0.784487786367     0.834114476096    -0.098676025565    12.000000000000
         C            2.131168213633     0.674002476096     0.700975974435    12.000000000000
         C           -0.384198186367    -0.652355423904    -0.192581525565    12.000000000000
         C            2.034008213633    -0.719723523904     0.139935974435    12.000000000000
         C           -2.127401786367     1.181098476096     0.128815974435    12.000000000000
         C           -1.508992786367    -1.490815523904    -0.081423025565    12.000000000000
         C           -3.148358786367     0.240969476096     0.218760974435    12.000000000000
         C           -2.832030786367    -1.114321523904     0.110765974435    12.000000000000
         H           -0.131210786367     2.599422476096    -1.101289025565     1.007825032230
         H            0.030991213633     2.644037476096     0.641109974435     1.007825032230
         H            1.913797213633     1.323524476096    -1.348223025565     1.007825032230
         H            2.218919213633     2.633098476096    -0.221515025565     1.007825032230
         H            1.520055213633     0.759347476096     1.609584974435     1.007825032230
         H            3.176438213633     0.813892476096     0.985172974435     1.007825032230
         H            0.829127213633    -2.030848523904    -0.742034025565     1.007825032230
         H           -2.372817786367     2.239955476096     0.204634974435     1.007825032230
         H           -1.249587786367    -2.546885523904    -0.137137025565     1.007825032230
         H           -4.174181786367     0.560369476096     0.382837974435     1.007825032230
         H           -3.606222786367    -1.874394523904     0.178533974435     1.007825032230

  Basis Set: AUG-CC-PVTZ
    Blend: AUG-CC-PVTZ
  Basis Set: (AUG-CC-PVTZ AUX)
    Blend: AUG-CC-PVTZ-JKFIT
	 Reference Energy          =    -514.5638815950367189 [Eh]
	 Singles Energy            =      -0.0000000000000000 [Eh]
	 Same-Spin Energy          =      -0.5598900989029501 [Eh]
	 Opposite-Spin Energy      =      -1.7461338409434206 [Eh]
	 Correlation Energy        =      -2.3060239398463707 [Eh]
	 Total Energy              =    -516.8699055348830598 [Eh]

	 ================> DF-SCS-MP2 Energies <==================
	-----------------------------------------------------------
	 SCS Same-Spin Scale       =       0.3333333333333333 [-]
	 SCS Opposite-Spin Scale   =       1.2000000000000000 [-]
	 SCS Same-Spin Energy      =      -0.1866300329676500 [Eh]
	 SCS Opposite-Spin Energy  =      -2.0953606091321046 [Eh]
	 SCS Correlation Energy    =      -2.2819906420997547 [Eh]
	 SCS Total Energy          =    -516.8458722371365184 [Eh]
	-----------------------------------------------------------

  Dipole Moment: [D]
     X:    -1.8891      Y:     1.8704      Z:    -0.0107     Total:     2.6584

*** Psi4 exiting successfully. Buy a developer a beer!
