                               Psi4 1.4a3.dev225

  ==> Input File <==

--------------------------------------------------------------------------
#psi4
#
memory 32 gb

molecule  {
0 1
  O        3.0005300    -1.5493530     0.0754490
  N        0.8317470    -1.1153310    -0.4215630
  C        0.1960040     1.9504030    -0.2395030
  C        1.6857700     1.6448450    -0.3508570
  C       -0.7674710     0.7851500    -0.1025020
  C        2.1481850     0.6250380     0.6971500
  C       -0.4596220    -0.5879500    -0.1790540
  C        2.0950471    -0.7561724     0.1562448
  C       -2.1103850     1.1321340     0.1249900
  C       -1.4919760    -1.5397800    -0.0852490
  C       -3.1313420     0.1920050     0.2149350
  C       -2.8150140    -1.1632860     0.1069400
  H       -0.1141940     2.5504580    -1.1051150
  H        0.0480080     2.5950730     0.6372840
  H        1.9308140     1.2745600    -1.3520490
  H        2.2359360     2.5841340    -0.2253410
  H        1.5370720     0.7103830     1.6057590
  H        3.1934550     0.7649280     0.9813470
  H        0.8461440    -2.0798130    -0.7458600
  H       -2.3558010     2.1909910     0.2008090
  H       -1.2325710    -2.5958500    -0.1409630
  H       -4.1571650     0.5114050     0.3790120
  H       -3.5892060    -1.9233590     0.1747080
units angstrom
no_reorient  #important for SAPT in psi4, default
symmetry c1  #important for SAPT in psi4, default
}

set PROPERTIES_ORIGIN ["COM"]
properties('MP2/aug-cc-pvtz', properties = ['dipole'])
--------------------------------------------------------------------------

    Molecular point group: c1
  Charge       = 0
  Multiplicity = 1
  Basis Set: AUG-CC-PVTZ
    Blend: AUG-CC-PVTZ
  Basis Set: (AUG-CC-PVTZ AUX)
    Blend: AUG-CC-PVTZ-JKFIT

    Orbital Energies [Eh]
    ---------------------

    Doubly Occupied:

       1A    -20.535514     2A    -15.587961     3A    -11.360330
       4A    -11.293307     5A    -11.251459     6A    -11.244532
       7A    -11.244200     8A    -11.243577     9A    -11.243553
      10A    -11.242466    11A    -11.240426    12A    -11.236364
      13A     -1.398012    14A     -1.242420    15A     -1.145820
      16A     -1.103075    17A     -1.039470    18A     -1.010124
      19A     -0.958540    20A     -0.877110    21A     -0.838687
      22A     -0.804839    23A     -0.761434    24A     -0.716426
      25A     -0.685558    26A     -0.667635    27A     -0.647887
      28A     -0.629827    29A     -0.610415    30A     -0.603651
      31A     -0.599070    32A     -0.583385    33A     -0.565363
      34A     -0.540274    35A     -0.516252    36A     -0.511446
      37A     -0.499387    38A     -0.490160    39A     -0.483361
      40A     -0.436165    41A     -0.432948    42A     -0.337844
      43A     -0.310746

  @DF-RHF Final Energy:  -514.59229607382201

   => Energetics <=

    Nuclear Repulsion Energy =            674.6987167107894265
    One-Electron Energy =               -2037.0399855158118498
    Two-Electron Energy =                 847.7489727312005243
    Total Energy =                       -514.5922960738220127
  Basis Set: (AUG-CC-PVTZ AUX)
    Blend: AUG-CC-PVTZ-RI
    Molecular point group: c1

    Geometry (in Angstrom), charge = 0, multiplicity = 1:

       Center              X                  Y                   Z               Mass
    ------------   -----------------  -----------------  -----------------  -----------------
         O            2.987120162611    -1.509766397560     0.076482273600    15.994914619570
         N            0.818337162611    -1.075744397560    -0.420529726400    14.003074004430
         C            0.182594162611     1.989989602440    -0.238469726400    12.000000000000
         C            1.672360162611     1.684431602440    -0.349823726400    12.000000000000
         C           -0.780880837389     0.824736602440    -0.101468726400    12.000000000000
         C            2.134775162611     0.664624602440     0.698183273600    12.000000000000
         C           -0.473031837389    -0.548363397560    -0.178020726400    12.000000000000
         C            2.081637262611    -0.716585797560     0.157278073600    12.000000000000
         C           -2.123794837389     1.171720602440     0.126023273600    12.000000000000
         C           -1.505385837389    -1.500193397560    -0.084215726400    12.000000000000
         C           -3.144751837389     0.231591602440     0.215968273600    12.000000000000
         C           -2.828423837389    -1.123699397560     0.107973273600    12.000000000000
         H           -0.127603837389     2.590044602440    -1.104081726400     1.007825032230
         H            0.034598162611     2.634659602440     0.638317273600     1.007825032230
         H            1.917404162611     1.314146602440    -1.351015726400     1.007825032230
         H            2.222526162611     2.623720602440    -0.224307726400     1.007825032230
         H            1.523662162611     0.749969602440     1.606792273600     1.007825032230
         H            3.180045162611     0.804514602440     0.982380273600     1.007825032230
         H            0.832734162611    -2.040226397560    -0.744826726400     1.007825032230
         H           -2.369210837389     2.230577602440     0.201842273600     1.007825032230
         H           -1.245980837389    -2.556263397560    -0.139929726400     1.007825032230
         H           -4.170574837389     0.550991602440     0.380045273600     1.007825032230
         H           -3.602615837389    -1.883772397560     0.175741273600     1.007825032230

  Basis Set: AUG-CC-PVTZ
    Blend: AUG-CC-PVTZ
  Basis Set: (AUG-CC-PVTZ AUX)
    Blend: AUG-CC-PVTZ-JKFIT
	 Reference Energy          =    -514.5922960738220127 [Eh]
	 Singles Energy            =      -0.0000000000000000 [Eh]
	 Same-Spin Energy          =      -0.5577074163063642 [Eh]
	 Opposite-Spin Energy      =      -1.7426826158660167 [Eh]
	 Correlation Energy        =      -2.3003900321723809 [Eh]
	 Total Energy              =    -516.8926861059943576 [Eh]

	 ================> DF-SCS-MP2 Energies <==================
	-----------------------------------------------------------
	 SCS Same-Spin Scale       =       0.3333333333333333 [-]
	 SCS Opposite-Spin Scale   =       1.2000000000000000 [-]
	 SCS Same-Spin Energy      =      -0.1859024721021214 [Eh]
	 SCS Opposite-Spin Energy  =      -2.0912191390392199 [Eh]
	 SCS Correlation Energy    =      -2.2771216111413413 [Eh]
	 SCS Total Energy          =    -516.8694176849633095 [Eh]
	-----------------------------------------------------------

  Dipole Moment: [D]
     X:    -2.2029      Y:     2.0420      Z:     0.1421     Total:     3.0071

*** Psi4 exiting successfully. Buy a developer a beer!
