                               Psi4 1.3.2 release

  ==> Input File <==

--------------------------------------------------------------------------
#psi4
#
memory 32 gb

molecule  {
0 1
  O        3.0005300    -1.5493530     0.0754490
  N        0.8127283    -1.1608598    -0.4187921
  C        0.1960040     1.9504030    -0.2395030
  C        1.6857700     1.6448450    -0.3508570
  C       -0.7674710     0.7851500    -0.1025020
  C        2.1481850     0.6250380     0.6971500
  C       -0.4596220    -0.5879500    -0.1790540
  C        2.0510250    -0.7686880     0.1361100
  C       -2.1103850     1.1321340     0.1249900
  C       -1.4919760    -1.5397800    -0.0852490
  C       -3.1313420     0.1920050     0.2149350
  C       -2.8150140    -1.1632860     0.1069400
  H       -0.1141940     2.5504580    -1.1051150
  H        0.0480080     2.5950730     0.6372840
  H        1.9308140     1.2745600    -1.3520490
  H        2.2359360     2.5841340    -0.2253410
  H        1.5370720     0.7103830     1.6057590
  H        3.1934550     0.7649280     0.9813470
  H        0.8461440    -2.0798130    -0.7458600
  H       -2.3558010     2.1909910     0.2008090
  H       -1.2325710    -2.5958500    -0.1409630
  H       -4.1571650     0.5114050     0.3790120
  H       -3.5892060    -1.9233590     0.1747080
units angstrom
no_reorient  #important for SAPT in psi4, default
symmetry c1  #important for SAPT in psi4, default
}

set PROPERTIES_ORIGIN ["COM"]
properties('MP2/aug-cc-pvtz', properties = ['dipole'])
--------------------------------------------------------------------------

    Molecular point group: c1
  Charge       = 0
  Multiplicity = 1
  Basis Set: AUG-CC-PVTZ
    Blend: AUG-CC-PVTZ
  Basis Set: (AUG-CC-PVTZ AUX)
    Blend: AUG-CC-PVTZ-JKFIT

    Orbital Energies [Eh]
    ---------------------

    Doubly Occupied:

       1A    -20.528480     2A    -15.591745     3A    -11.360265
       4A    -11.296059     5A    -11.254921     6A    -11.245370
       7A    -11.244993     8A    -11.244967     9A    -11.244561
      10A    -11.243233    11A    -11.242044    12A    -11.238521
      13A     -1.380492    14A     -1.251231    15A     -1.150140
      16A     -1.102675    17A     -1.038266    18A     -1.013755
      19A     -0.958810    20A     -0.878308    21A     -0.842097
      22A     -0.807345    23A     -0.768757    24A     -0.723457
      25A     -0.683125    26A     -0.671004    27A     -0.646561
      28A     -0.628299    29A     -0.611523    30A     -0.601841
      31A     -0.601265    32A     -0.581646    33A     -0.564904
      34A     -0.541929    35A     -0.517315    36A     -0.510437
      37A     -0.498496    38A     -0.492561    39A     -0.482548
      40A     -0.435142    41A     -0.427014    42A     -0.339528
      43A     -0.314051

  @DF-RHF Final Energy:  -514.59255289468740

   => Energetics <=

    Nuclear Repulsion Energy =            674.4721634056874109
    One-Electron Energy =               -2036.5300711026222871
    Two-Electron Energy =                 847.4653548022473615
    Total Energy =                       -514.5925528946874010
  Basis Set: (AUG-CC-PVTZ AUX)
    Blend: AUG-CC-PVTZ-RI
    Molecular point group: c1

    Geometry (in Angstrom), charge = 0, multiplicity = 1:

       Center              X                  Y                   Z               Mass
    ------------   -----------------  -----------------  -----------------  -----------------
         O            2.992052900487    -1.504876215774     0.077741345895    15.994914619570
         N            0.804251200487    -1.116383015774    -0.416499754105    14.003074004430
         C            0.187526900487     1.994879784226    -0.237210654105    12.000000000000
         C            1.677292900487     1.689321784226    -0.348564654105    12.000000000000
         C           -0.775948099513     0.829626784226    -0.100209654105    12.000000000000
         C            2.139707900487     0.669514784226     0.699442345895    12.000000000000
         C           -0.468099099513    -0.543473215774    -0.176761654105    12.000000000000
         C            2.042547900487    -0.724211215774     0.138402345895    12.000000000000
         C           -2.118862099513     1.176610784226     0.127282345895    12.000000000000
         C           -1.500453099513    -1.495303215774    -0.082956654105    12.000000000000
         C           -3.139819099513     0.236481784226     0.217227345895    12.000000000000
         C           -2.823491099513    -1.118809215774     0.109232345895    12.000000000000
         H           -0.122671099513     2.594934784226    -1.102822654105     1.007825032230
         H            0.039530900487     2.639549784226     0.639576345895     1.007825032230
         H            1.922336900487     1.319036784226    -1.349756654105     1.007825032230
         H            2.227458900487     2.628610784226    -0.223048654105     1.007825032230
         H            1.528594900487     0.754859784226     1.608051345895     1.007825032230
         H            3.184977900487     0.809404784226     0.983639345895     1.007825032230
         H            0.837666900487    -2.035336215774    -0.743567654105     1.007825032230
         H           -2.364278099513     2.235467784226     0.203101345895     1.007825032230
         H           -1.241048099513    -2.551373215774    -0.138670654105     1.007825032230
         H           -4.165642099513     0.555881784226     0.381304345895     1.007825032230
         H           -3.597683099513    -1.878882215774     0.177000345895     1.007825032230

  Basis Set: AUG-CC-PVTZ
    Blend: AUG-CC-PVTZ
  Basis Set: (AUG-CC-PVTZ AUX)
    Blend: AUG-CC-PVTZ-JKFIT
	 Reference Energy          =    -514.5925528946874010 [Eh]
	 Singles Energy            =      -0.0000000000000000 [Eh]
	 Same-Spin Energy          =      -0.5574968674289795 [Eh]
	 Opposite-Spin Energy      =      -1.7425881356876576 [Eh]
	 Correlation Energy        =      -2.3000850031166369 [Eh]
	 Total Energy              =    -516.8926378978040930 [Eh]

	 ================> DF-SCS-MP2 Energies <==================
	-----------------------------------------------------------
	 SCS Same-Spin Scale       =       0.3333333333333333 [-]
	 SCS Opposite-Spin Scale   =       1.2000000000000000 [-]
	 SCS Same-Spin Energy      =      -0.1858322891429932 [Eh]
	 SCS Opposite-Spin Energy  =      -2.0911057628251890 [Eh]
	 SCS Correlation Energy    =      -2.2769380519681821 [Eh]
	 SCS Total Energy          =    -516.8694909466555600 [Eh]
	-----------------------------------------------------------

  Dipole Moment: [D]
     X:    -2.5511      Y:     2.0972      Z:     0.0447     Total:     3.3028

*** Psi4 exiting successfully. Buy a developer a beer!
