                               Psi4 1.3.2 release

  ==> Input File <==

--------------------------------------------------------------------------
#psi4
#
memory 32 gb

molecule  {
0 1
  O        3.0005300    -1.5493530     0.0754490
  N        0.8317470    -1.1153310    -0.4215630
  C        0.1960040     1.9504030    -0.2395030
  C        1.6857700     1.6448450    -0.3508570
  C       -0.7457874     0.8807725    -0.0991961
  C        2.1481850     0.6250380     0.6971500
  C       -0.4596220    -0.5879500    -0.1790540
  C        2.0510250    -0.7686880     0.1361100
  C       -2.1103850     1.1321340     0.1249900
  C       -1.4919760    -1.5397800    -0.0852490
  C       -3.1313420     0.1920050     0.2149350
  C       -2.8150140    -1.1632860     0.1069400
  H       -0.1141940     2.5504580    -1.1051150
  H        0.0480080     2.5950730     0.6372840
  H        1.9308140     1.2745600    -1.3520490
  H        2.2359360     2.5841340    -0.2253410
  H        1.5370720     0.7103830     1.6057590
  H        3.1934550     0.7649280     0.9813470
  H        0.8461440    -2.0798130    -0.7458600
  H       -2.3558010     2.1909910     0.2008090
  H       -1.2325710    -2.5958500    -0.1409630
  H       -4.1571650     0.5114050     0.3790120
  H       -3.5892060    -1.9233590     0.1747080
units angstrom
no_reorient  #important for SAPT in psi4, default
symmetry c1  #important for SAPT in psi4, default
}

set PROPERTIES_ORIGIN ["COM"]
properties('MP2/aug-cc-pvtz', properties = ['dipole'])
--------------------------------------------------------------------------

    Molecular point group: c1
  Charge       = 0
  Multiplicity = 1
  Basis Set: AUG-CC-PVTZ
    Blend: AUG-CC-PVTZ
  Basis Set: (AUG-CC-PVTZ AUX)
    Blend: AUG-CC-PVTZ-JKFIT

    Orbital Energies [Eh]
    ---------------------

    Doubly Occupied:

       1A    -20.526201     2A    -15.596437     3A    -11.357429
       4A    -11.305710     5A    -11.261893     6A    -11.246292
       7A    -11.245397     8A    -11.244340     9A    -11.243992
      10A    -11.243342    11A    -11.241655    12A    -11.239199
      13A     -1.380519    14A     -1.251168    15A     -1.149143
      16A     -1.109409    17A     -1.042911    18A     -1.013726
      19A     -0.954959    20A     -0.887874    21A     -0.836007
      22A     -0.806905    23A     -0.767137    24A     -0.718857
      25A     -0.683478    26A     -0.674368    27A     -0.650012
      28A     -0.625851    29A     -0.612851    30A     -0.604708
      31A     -0.599479    32A     -0.583045    33A     -0.564763
      34A     -0.543605    35A     -0.517533    36A     -0.512079
      37A     -0.499937    38A     -0.490940    39A     -0.483610
      40A     -0.434942    41A     -0.426357    42A     -0.340297
      43A     -0.306297

  @DF-RHF Final Energy:  -514.57992895585153

   => Energetics <=

    Nuclear Repulsion Energy =            674.3852065010995602
    One-Electron Energy =               -2036.2809645390477726
    Two-Electron Energy =                 847.3158290820967977
    Total Energy =                       -514.5799289558515284
  Basis Set: (AUG-CC-PVTZ AUX)
    Blend: AUG-CC-PVTZ-RI
    Molecular point group: c1

    Geometry (in Angstrom), charge = 0, multiplicity = 1:

       Center              X                  Y                   Z               Mass
    ------------   -----------------  -----------------  -----------------  -----------------
         O            2.988784275084    -1.515957468082     0.077735946961    15.994914619570
         N            0.820001275084    -1.081935468082    -0.419276053039    14.003074004430
         C            0.184258275084     1.983798531918    -0.237216053039    12.000000000000
         C            1.674024275084     1.678240531918    -0.348570053039    12.000000000000
         C           -0.757533124916     0.914168031918    -0.096909153039    12.000000000000
         C            2.136439275084     0.658433531918     0.699436946961    12.000000000000
         C           -0.471367724916    -0.554554468082    -0.176767053039    12.000000000000
         C            2.039279275084    -0.735292468082     0.138396946961    12.000000000000
         C           -2.122130724916     1.165529531918     0.127276946961    12.000000000000
         C           -1.503721724916    -1.506384468082    -0.082962053039    12.000000000000
         C           -3.143087724916     0.225400531918     0.217221946961    12.000000000000
         C           -2.826759724916    -1.129890468082     0.109226946961    12.000000000000
         H           -0.125939724916     2.583853531918    -1.102828053039     1.007825032230
         H            0.036262275084     2.628468531918     0.639570946961     1.007825032230
         H            1.919068275084     1.307955531918    -1.349762053039     1.007825032230
         H            2.224190275084     2.617529531918    -0.223054053039     1.007825032230
         H            1.525326275084     0.743778531918     1.608045946961     1.007825032230
         H            3.181709275084     0.798323531918     0.983633946961     1.007825032230
         H            0.834398275084    -2.046417468082    -0.743573053039     1.007825032230
         H           -2.367546724916     2.224386531918     0.203095946961     1.007825032230
         H           -1.244316724916    -2.562454468082    -0.138676053039     1.007825032230
         H           -4.168910724916     0.544800531918     0.381298946961     1.007825032230
         H           -3.600951724916    -1.889963468082     0.176994946961     1.007825032230

  Basis Set: AUG-CC-PVTZ
    Blend: AUG-CC-PVTZ
  Basis Set: (AUG-CC-PVTZ AUX)
    Blend: AUG-CC-PVTZ-JKFIT
	 Reference Energy          =    -514.5799289558515284 [Eh]
	 Singles Energy            =      -0.0000000000000000 [Eh]
	 Same-Spin Energy          =      -0.5592753051895233 [Eh]
	 Opposite-Spin Energy      =      -1.7451909801306655 [Eh]
	 Correlation Energy        =      -2.3044662853201889 [Eh]
	 Total Energy              =    -516.8843952411717737 [Eh]

	 ================> DF-SCS-MP2 Energies <==================
	-----------------------------------------------------------
	 SCS Same-Spin Scale       =       0.3333333333333333 [-]
	 SCS Opposite-Spin Scale   =       1.2000000000000000 [-]
	 SCS Same-Spin Energy      =      -0.1864251017298411 [Eh]
	 SCS Opposite-Spin Energy  =      -2.0942291761567984 [Eh]
	 SCS Correlation Energy    =      -2.2806542778866397 [Eh]
	 SCS Total Energy          =    -516.8605832337381116 [Eh]
	-----------------------------------------------------------

  Dipole Moment: [D]
     X:    -2.5896      Y:     2.1221      Z:     0.0091     Total:     3.3481

*** Psi4 exiting successfully. Buy a developer a beer!
