                               Psi4 1.3.2 release

  ==> Input File <==

--------------------------------------------------------------------------
#psi4
#
memory 32 gb

molecule  {
0 1
  O        3.0005300    -1.5493530     0.0754490
  N        0.8317470    -1.1153310    -0.4215630
  C        0.1960040     1.9504030    -0.2395030
  C        1.8343258     1.7054209    -0.3451636
  C       -0.7674710     0.7851500    -0.1025020
  C        2.1481850     0.6250380     0.6971500
  C       -0.4596220    -0.5879500    -0.1790540
  C        2.0510250    -0.7686880     0.1361100
  C       -2.1103850     1.1321340     0.1249900
  C       -1.4919760    -1.5397800    -0.0852490
  C       -3.1313420     0.1920050     0.2149350
  C       -2.8150140    -1.1632860     0.1069400
  H       -0.1141940     2.5504580    -1.1051150
  H        0.0480080     2.5950730     0.6372840
  H        1.9308140     1.2745600    -1.3520490
  H        2.2359360     2.5841340    -0.2253410
  H        1.5370720     0.7103830     1.6057590
  H        3.1934550     0.7649280     0.9813470
  H        0.8461440    -2.0798130    -0.7458600
  H       -2.3558010     2.1909910     0.2008090
  H       -1.2325710    -2.5958500    -0.1409630
  H       -4.1571650     0.5114050     0.3790120
  H       -3.5892060    -1.9233590     0.1747080
units angstrom
no_reorient  #important for SAPT in psi4, default
symmetry c1  #important for SAPT in psi4, default
}

set PROPERTIES_ORIGIN ["COM"]
properties('MP2/aug-cc-pvtz', properties = ['dipole'])
--------------------------------------------------------------------------

    Molecular point group: c1
  Charge       = 0
  Multiplicity = 1
  Basis Set: AUG-CC-PVTZ
    Blend: AUG-CC-PVTZ
  Basis Set: (AUG-CC-PVTZ AUX)
    Blend: AUG-CC-PVTZ-JKFIT

    Orbital Energies [Eh]
    ---------------------

    Doubly Occupied:

       1A    -20.526742     2A    -15.597141     3A    -11.358878
       4A    -11.296834     5A    -11.256557     6A    -11.247612
       7A    -11.246172     8A    -11.244979     9A    -11.244258
      10A    -11.243311    11A    -11.240944    12A    -11.239816
      13A     -1.380887    14A     -1.252965    15A     -1.150837
      16A     -1.091577    17A     -1.039766    18A     -1.015502
      19A     -0.947772    20A     -0.889562    21A     -0.842703
      22A     -0.813764    23A     -0.764970    24A     -0.720943
      25A     -0.678197    26A     -0.670021    27A     -0.657276
      28A     -0.628528    29A     -0.608203    30A     -0.604644
      31A     -0.597557    32A     -0.577568    33A     -0.568184
      34A     -0.552872    35A     -0.519413    36A     -0.512259
      37A     -0.497913    38A     -0.493458    39A     -0.456430
      40A     -0.435812    41A     -0.424609    42A     -0.340216
      43A     -0.316044

  @DF-RHF Final Energy:  -514.56926204848276

   => Energetics <=

    Nuclear Repulsion Energy =            672.5826971459996457
    One-Electron Energy =               -2032.7165271097430832
    Two-Electron Energy =                 845.5645679152606817
    Total Energy =                       -514.5692620484827557
  Basis Set: (AUG-CC-PVTZ AUX)
    Blend: AUG-CC-PVTZ-RI
    Molecular point group: c1

    Geometry (in Angstrom), charge = 0, multiplicity = 1:

       Center              X                  Y                   Z               Mass
    ------------   -----------------  -----------------  -----------------  -----------------
         O            2.979332896950    -1.513346662335     0.077558089517    15.994914619570
         N            0.810549896950    -1.079324662335    -0.419453910483    14.003074004430
         C            0.174806896950     1.986409337665    -0.237393910483    12.000000000000
         C            1.813128696950     1.741427237665    -0.343054510483    12.000000000000
         C           -0.788668103050     0.821156337665    -0.100392910483    12.000000000000
         C            2.126987896950     0.661044337665     0.699259089517    12.000000000000
         C           -0.480819103050    -0.551943662335    -0.176944910483    12.000000000000
         C            2.029827896950    -0.732681662335     0.138219089517    12.000000000000
         C           -2.131582103050     1.168140337665     0.127099089517    12.000000000000
         C           -1.513173103050    -1.503773662335    -0.083139910483    12.000000000000
         C           -3.152539103050     0.228011337665     0.217044089517    12.000000000000
         C           -2.836211103050    -1.127279662335     0.109049089517    12.000000000000
         H           -0.135391103050     2.586464337665    -1.103005910483     1.007825032230
         H            0.026810896950     2.631079337665     0.639393089517     1.007825032230
         H            1.909616896950     1.310566337665    -1.349939910483     1.007825032230
         H            2.214738896950     2.620140337665    -0.223231910483     1.007825032230
         H            1.515874896950     0.746389337665     1.607868089517     1.007825032230
         H            3.172257896950     0.800934337665     0.983456089517     1.007825032230
         H            0.824946896950    -2.043806662335    -0.743750910483     1.007825032230
         H           -2.376998103050     2.226997337665     0.202918089517     1.007825032230
         H           -1.253768103050    -2.559843662335    -0.138853910483     1.007825032230
         H           -4.178362103050     0.547411337665     0.381121089517     1.007825032230
         H           -3.610403103050    -1.887352662335     0.176817089517     1.007825032230

  Basis Set: AUG-CC-PVTZ
    Blend: AUG-CC-PVTZ
  Basis Set: (AUG-CC-PVTZ AUX)
    Blend: AUG-CC-PVTZ-JKFIT
	 Reference Energy          =    -514.5692620484827557 [Eh]
	 Singles Energy            =      -0.0000000000000000 [Eh]
	 Same-Spin Energy          =      -0.5578064521945384 [Eh]
	 Opposite-Spin Energy      =      -1.7440949642783536 [Eh]
	 Correlation Energy        =      -2.3019014164728921 [Eh]
	 Total Energy              =    -516.8711634649556572 [Eh]

	 ================> DF-SCS-MP2 Energies <==================
	-----------------------------------------------------------
	 SCS Same-Spin Scale       =       0.3333333333333333 [-]
	 SCS Opposite-Spin Scale   =       1.2000000000000000 [-]
	 SCS Same-Spin Energy      =      -0.1859354840648461 [Eh]
	 SCS Opposite-Spin Energy  =      -2.0929139571340243 [Eh]
	 SCS Correlation Energy    =      -2.2788494411988705 [Eh]
	 SCS Total Energy          =    -516.8481114896816280 [Eh]
	-----------------------------------------------------------

  Dipole Moment: [D]
     X:    -2.7115      Y:     2.0436      Z:     0.0358     Total:     3.3956

*** Psi4 exiting successfully. Buy a developer a beer!
