                               Psi4 1.3.2 release

  ==> Input File <==

--------------------------------------------------------------------------
#psi4
#
memory 32 gb

molecule  {
0 1
  O        3.0005300    -1.5493530     0.0754490
  N        0.8232829    -1.0933346    -0.4162062
  C        0.1960040     1.9504030    -0.2395030
  C        1.6857700     1.6448450    -0.3508570
  C       -0.7674710     0.7851500    -0.1025020
  C        2.1481850     0.6250380     0.6971500
  C       -0.4596220    -0.5879500    -0.1790540
  C        2.0510250    -0.7686880     0.1361100
  C       -2.1103850     1.1321340     0.1249900
  C       -1.4919760    -1.5397800    -0.0852490
  C       -3.1313420     0.1920050     0.2149350
  C       -2.8150140    -1.1632860     0.1069400
  H       -0.1141940     2.5504580    -1.1051150
  H        0.0480080     2.5950730     0.6372840
  H        1.9308140     1.2745600    -1.3520490
  H        2.2359360     2.5841340    -0.2253410
  H        1.5370720     0.7103830     1.6057590
  H        3.1934550     0.7649280     0.9813470
  H        0.8461440    -2.0798130    -0.7458600
  H       -2.3558010     2.1909910     0.2008090
  H       -1.2325710    -2.5958500    -0.1409630
  H       -4.1571650     0.5114050     0.3790120
  H       -3.5892060    -1.9233590     0.1747080
units angstrom
no_reorient  #important for SAPT in psi4, default
symmetry c1  #important for SAPT in psi4, default
}

set PROPERTIES_ORIGIN ["COM"]
properties('MP2/aug-cc-pvtz', properties = ['dipole'])
--------------------------------------------------------------------------

    Molecular point group: c1
  Charge       = 0
  Multiplicity = 1
  Basis Set: AUG-CC-PVTZ
    Blend: AUG-CC-PVTZ
  Basis Set: (AUG-CC-PVTZ AUX)
    Blend: AUG-CC-PVTZ-JKFIT

    Orbital Energies [Eh]
    ---------------------

    Doubly Occupied:

       1A    -20.527563     2A    -15.598183     3A    -11.358239
       4A    -11.296575     5A    -11.254117     6A    -11.246299
       7A    -11.244695     8A    -11.244590     9A    -11.244100
      10A    -11.242370    11A    -11.241778    12A    -11.239225
      13A     -1.380914    14A     -1.256687    15A     -1.150895
      16A     -1.101571    17A     -1.039082    18A     -1.015995
      19A     -0.956081    20A     -0.881801    21A     -0.843439
      22A     -0.809413    23A     -0.763060    24A     -0.721932
      25A     -0.681602    26A     -0.671024    27A     -0.645749
      28A     -0.629244    29A     -0.611292    30A     -0.603302
      31A     -0.600584    32A     -0.578530    33A     -0.563803
      34A     -0.542289    35A     -0.517770    36A     -0.510655
      37A     -0.498324    38A     -0.490909    39A     -0.482786
      40A     -0.436845    41A     -0.426963    42A     -0.340306
      43A     -0.314638

  @DF-RHF Final Energy:  -514.59250050926335

   => Energetics <=

    Nuclear Repulsion Energy =            675.4647450683636407
    One-Electron Energy =               -2038.5040560026268395
    Two-Electron Energy =                 848.4468104249997396
    Total Energy =                       -514.5925005092633455
  Basis Set: (AUG-CC-PVTZ AUX)
    Blend: AUG-CC-PVTZ-RI
    Molecular point group: c1

    Geometry (in Angstrom), charge = 0, multiplicity = 1:

       Center              X                  Y                   Z               Mass
    ------------   -----------------  -----------------  -----------------  -----------------
         O            2.991135386729    -1.510746196636     0.077516553025    15.994914619570
         N            0.813888286729    -1.054727796636    -0.414138646975    14.003074004430
         C            0.186609386729     1.989009803364    -0.237435446975    12.000000000000
         C            1.676375386729     1.683451803364    -0.348789446975    12.000000000000
         C           -0.776865613271     0.823756803364    -0.100434446975    12.000000000000
         C            2.138790386729     0.663644803364     0.699217553025    12.000000000000
         C           -0.469016613271    -0.549343196636    -0.176986446975    12.000000000000
         C            2.041630386729    -0.730081196636     0.138177553025    12.000000000000
         C           -2.119779613271     1.170740803364     0.127057553025    12.000000000000
         C           -1.501370613271    -1.501173196636    -0.083181446975    12.000000000000
         C           -3.140736613271     0.230611803364     0.217002553025    12.000000000000
         C           -2.824408613271    -1.124679196636     0.109007553025    12.000000000000
         H           -0.123588613271     2.589064803364    -1.103047446975     1.007825032230
         H            0.038613386729     2.633679803364     0.639351553025     1.007825032230
         H            1.921419386729     1.313166803364    -1.349981446975     1.007825032230
         H            2.226541386729     2.622740803364    -0.223273446975     1.007825032230
         H            1.527677386729     0.748989803364     1.607826553025     1.007825032230
         H            3.184060386729     0.803534803364     0.983414553025     1.007825032230
         H            0.836749386729    -2.041206196636    -0.743792446975     1.007825032230
         H           -2.365195613271     2.229597803364     0.202876553025     1.007825032230
         H           -1.241965613271    -2.557243196636    -0.138895446975     1.007825032230
         H           -4.166559613271     0.550011803364     0.381079553025     1.007825032230
         H           -3.598600613271    -1.884752196636     0.176775553025     1.007825032230

  Basis Set: AUG-CC-PVTZ
    Blend: AUG-CC-PVTZ
  Basis Set: (AUG-CC-PVTZ AUX)
    Blend: AUG-CC-PVTZ-JKFIT
	 Reference Energy          =    -514.5925005092633455 [Eh]
	 Singles Energy            =      -0.0000000000000000 [Eh]
	 Same-Spin Energy          =      -0.5583309861964108 [Eh]
	 Opposite-Spin Energy      =      -1.7437160082093675 [Eh]
	 Correlation Energy        =      -2.3020469944057780 [Eh]
	 Total Energy              =    -516.8945475036691732 [Eh]

	 ================> DF-SCS-MP2 Energies <==================
	-----------------------------------------------------------
	 SCS Same-Spin Scale       =       0.3333333333333333 [-]
	 SCS Opposite-Spin Scale   =       1.2000000000000000 [-]
	 SCS Same-Spin Energy      =      -0.1861103287321369 [Eh]
	 SCS Opposite-Spin Energy  =      -2.0924592098512407 [Eh]
	 SCS Correlation Energy    =      -2.2785695385833775 [Eh]
	 SCS Total Energy          =    -516.8710700478467288 [Eh]
	-----------------------------------------------------------

  Dipole Moment: [D]
     X:    -2.6898      Y:     2.0224      Z:     0.0261     Total:     3.3654

*** Psi4 exiting successfully. Buy a developer a beer!
