                               Psi4 1.3.2 release

  ==> Input File <==

--------------------------------------------------------------------------
#psi4
#
memory 32 gb

molecule  {
0 1
  O        3.0491619    -1.4882587     0.1112510
  N        0.8317470    -1.1153310    -0.4215630
  C        0.1960040     1.9504030    -0.2395030
  C        1.6857700     1.6448450    -0.3508570
  C       -0.7674710     0.7851500    -0.1025020
  C        2.1481850     0.6250380     0.6971500
  C       -0.4596220    -0.5879500    -0.1790540
  C        2.0510250    -0.7686880     0.1361100
  C       -2.1103850     1.1321340     0.1249900
  C       -1.4919760    -1.5397800    -0.0852490
  C       -3.1313420     0.1920050     0.2149350
  C       -2.8150140    -1.1632860     0.1069400
  H       -0.1141940     2.5504580    -1.1051150
  H        0.0480080     2.5950730     0.6372840
  H        1.9308140     1.2745600    -1.3520490
  H        2.2359360     2.5841340    -0.2253410
  H        1.5370720     0.7103830     1.6057590
  H        3.1934550     0.7649280     0.9813470
  H        0.8461440    -2.0798130    -0.7458600
  H       -2.3558010     2.1909910     0.2008090
  H       -1.2325710    -2.5958500    -0.1409630
  H       -4.1571650     0.5114050     0.3790120
  H       -3.5892060    -1.9233590     0.1747080
units angstrom
no_reorient  #important for SAPT in psi4, default
symmetry c1  #important for SAPT in psi4, default
}

set PROPERTIES_ORIGIN ["COM"]
properties('MP2/aug-cc-pvtz', properties = ['dipole'])
--------------------------------------------------------------------------

    Molecular point group: c1
  Charge       = 0
  Multiplicity = 1
  Basis Set: AUG-CC-PVTZ
    Blend: AUG-CC-PVTZ
  Basis Set: (AUG-CC-PVTZ AUX)
    Blend: AUG-CC-PVTZ-JKFIT

    Orbital Energies [Eh]
    ---------------------

    Doubly Occupied:

       1A    -20.526117     2A    -15.600263     3A    -11.356660
       4A    -11.299074     5A    -11.256217     6A    -11.247361
       7A    -11.245761     8A    -11.245635     9A    -11.244391
      10A    -11.240871    11A    -11.240311    12A    -11.238103
      13A     -1.378843    14A     -1.257020    15A     -1.152945
      16A     -1.100255    17A     -1.038138    18A     -1.017529
      19A     -0.955856    20A     -0.880680    21A     -0.843992
      22A     -0.808721    23A     -0.766069    24A     -0.722742
      25A     -0.681455    26A     -0.671758    27A     -0.646095
      28A     -0.629558    29A     -0.611307    30A     -0.603334
      31A     -0.600319    32A     -0.578292    33A     -0.565028
      34A     -0.541552    35A     -0.518438    36A     -0.509890
      37A     -0.498024    38A     -0.491259    39A     -0.481843
      40A     -0.437396    41A     -0.422706    42A     -0.341255
      43A     -0.317813

  @DF-RHF Final Energy:  -514.59297491383791

   => Energetics <=

    Nuclear Repulsion Energy =            674.9188813506829092
    One-Electron Energy =               -2037.4019614522476331
    Two-Electron Energy =                 847.8901051877267037
    Total Energy =                       -514.5929749138379066
  Basis Set: (AUG-CC-PVTZ AUX)
    Blend: AUG-CC-PVTZ-RI
    Molecular point group: c1

    Geometry (in Angstrom), charge = 0, multiplicity = 1:

       Center              X                  Y                   Z               Mass
    ------------   -----------------  -----------------  -----------------  -----------------
         O            3.034202574213    -1.453806130635     0.110229245156    15.994914619570
         N            0.816787674213    -1.080878430635    -0.422584754844    14.003074004430
         C            0.181044674213     1.984855569365    -0.240524754844    12.000000000000
         C            1.670810674213     1.679297569365    -0.351878754844    12.000000000000
         C           -0.782430325787     0.819602569365    -0.103523754844    12.000000000000
         C            2.133225674213     0.659490569365     0.696128245156    12.000000000000
         C           -0.474581325787    -0.553497430635    -0.180075754844    12.000000000000
         C            2.036065674213    -0.734235430635     0.135088245156    12.000000000000
         C           -2.125344325787     1.166586569365     0.123968245156    12.000000000000
         C           -1.506935325787    -1.505327430635    -0.086270754844    12.000000000000
         C           -3.146301325787     0.226457569365     0.213913245156    12.000000000000
         C           -2.829973325787    -1.128833430635     0.105918245156    12.000000000000
         H           -0.129153325787     2.584910569365    -1.106136754844     1.007825032230
         H            0.033048674213     2.629525569365     0.636262245156     1.007825032230
         H            1.915854674213     1.309012569365    -1.353070754844     1.007825032230
         H            2.220976674213     2.618586569365    -0.226362754844     1.007825032230
         H            1.522112674213     0.744835569365     1.604737245156     1.007825032230
         H            3.178495674213     0.799380569365     0.980325245156     1.007825032230
         H            0.831184674213    -2.045360430635    -0.746881754844     1.007825032230
         H           -2.370760325787     2.225443569365     0.199787245156     1.007825032230
         H           -1.247530325787    -2.561397430635    -0.141984754844     1.007825032230
         H           -4.172124325787     0.545857569365     0.377990245156     1.007825032230
         H           -3.604165325787    -1.888906430635     0.173686245156     1.007825032230

  Basis Set: AUG-CC-PVTZ
    Blend: AUG-CC-PVTZ
  Basis Set: (AUG-CC-PVTZ AUX)
    Blend: AUG-CC-PVTZ-JKFIT
	 Reference Energy          =    -514.5929749138379066 [Eh]
	 Singles Energy            =      -0.0000000000000000 [Eh]
	 Same-Spin Energy          =      -0.5579082117872587 [Eh]
	 Opposite-Spin Energy      =      -1.7432317667785160 [Eh]
	 Correlation Energy        =      -2.3011399785657747 [Eh]
	 Total Energy              =    -516.8941148924036497 [Eh]

	 ================> DF-SCS-MP2 Energies <==================
	-----------------------------------------------------------
	 SCS Same-Spin Scale       =       0.3333333333333333 [-]
	 SCS Opposite-Spin Scale   =       1.2000000000000000 [-]
	 SCS Same-Spin Energy      =      -0.1859694039290862 [Eh]
	 SCS Opposite-Spin Energy  =      -2.0918781201342189 [Eh]
	 SCS Correlation Energy    =      -2.2778475240633052 [Eh]
	 SCS Total Energy          =    -516.8708224379012108 [Eh]
	-----------------------------------------------------------

  Dipole Moment: [D]
     X:    -2.9048      Y:     1.9008      Z:    -0.0476     Total:     3.4717

*** Psi4 exiting successfully. Buy a developer a beer!
