                               Psi4 1.3.2 release

  ==> Input File <==

--------------------------------------------------------------------------
#psi4
#
memory 32 gb

molecule  {
0 1
  O        3.0005300    -1.5493530     0.0754490
  N        0.8317470    -1.1153310    -0.4215630
  C        0.1942846     1.9334201    -0.2190850
  C        1.6857700     1.6448450    -0.3508570
  C       -0.7674710     0.7851500    -0.1025020
  C        2.1481850     0.6250380     0.6971500
  C       -0.4596220    -0.5879500    -0.1790540
  C        2.0510250    -0.7686880     0.1361100
  C       -2.1103850     1.1321340     0.1249900
  C       -1.4919760    -1.5397800    -0.0852490
  C       -3.1313420     0.1920050     0.2149350
  C       -2.8150140    -1.1632860     0.1069400
  H       -0.1141940     2.5504580    -1.1051150
  H        0.0480080     2.5950730     0.6372840
  H        1.9308140     1.2745600    -1.3520490
  H        2.2359360     2.5841340    -0.2253410
  H        1.5370720     0.7103830     1.6057590
  H        3.1934550     0.7649280     0.9813470
  H        0.8461440    -2.0798130    -0.7458600
  H       -2.3558010     2.1909910     0.2008090
  H       -1.2325710    -2.5958500    -0.1409630
  H       -4.1571650     0.5114050     0.3790120
  H       -3.5892060    -1.9233590     0.1747080
units angstrom
no_reorient  #important for SAPT in psi4, default
symmetry c1  #important for SAPT in psi4, default
}

set PROPERTIES_ORIGIN ["COM"]
properties('MP2/aug-cc-pvtz', properties = ['dipole'])
--------------------------------------------------------------------------

    Molecular point group: c1
  Charge       = 0
  Multiplicity = 1
  Basis Set: AUG-CC-PVTZ
    Blend: AUG-CC-PVTZ
  Basis Set: (AUG-CC-PVTZ AUX)
    Blend: AUG-CC-PVTZ-JKFIT

    Orbital Energies [Eh]
    ---------------------

    Doubly Occupied:

       1A    -20.525600     2A    -15.596221     3A    -11.356933
       4A    -11.297300     5A    -11.254888     6A    -11.246544
       7A    -11.245549     8A    -11.245200     9A    -11.244547
      10A    -11.242788    11A    -11.242126    12A    -11.240029
      13A     -1.380057    14A     -1.253227    15A     -1.152126
      16A     -1.102679    17A     -1.039884    18A     -1.016269
      19A     -0.956154    20A     -0.881396    21A     -0.843289
      22A     -0.808607    23A     -0.765352    24A     -0.721963
      25A     -0.681626    26A     -0.671734    27A     -0.646662
      28A     -0.629294    29A     -0.609178    30A     -0.602794
      31A     -0.600796    32A     -0.580553    33A     -0.564612
      34A     -0.542313    35A     -0.517771    36A     -0.511275
      37A     -0.499041    38A     -0.487753    39A     -0.485456
      40A     -0.435413    41A     -0.425668    42A     -0.340133
      43A     -0.315975

  @DF-RHF Final Energy:  -514.59334786307761

   => Energetics <=

    Nuclear Repulsion Energy =            675.4163189748337572
    One-Electron Energy =               -2038.4057797031600785
    Two-Electron Energy =                 848.3961128652487105
    Total Energy =                       -514.5933478630776108
  Basis Set: (AUG-CC-PVTZ AUX)
    Blend: AUG-CC-PVTZ-RI
    Molecular point group: c1

    Geometry (in Angstrom), charge = 0, multiplicity = 1:

       Center              X                  Y                   Z               Mass
    ------------   -----------------  -----------------  -----------------  -----------------
         O            2.990527687766    -1.507568898992     0.076461176541    15.994914619570
         N            0.821744687766    -1.073546898992    -0.420550823459    14.003074004430
         C            0.184282287766     1.975204201008    -0.218072823459    12.000000000000
         C            1.675767687766     1.686629101008    -0.349844823459    12.000000000000
         C           -0.777473312234     0.826934101008    -0.101489823459    12.000000000000
         C            2.138182687766     0.666822101008     0.698162176541    12.000000000000
         C           -0.469624312234    -0.546165898992    -0.178041823459    12.000000000000
         C            2.041022687766    -0.726903898992     0.137122176541    12.000000000000
         C           -2.120387312234     1.173918101008     0.126002176541    12.000000000000
         C           -1.501978312234    -1.497995898992    -0.084236823459    12.000000000000
         C           -3.141344312234     0.233789101008     0.215947176541    12.000000000000
         C           -2.825016312234    -1.121501898992     0.107952176541    12.000000000000
         H           -0.124196312234     2.592242101008    -1.104102823459     1.007825032230
         H            0.038005687766     2.636857101008     0.638296176541     1.007825032230
         H            1.920811687766     1.316344101008    -1.351036823459     1.007825032230
         H            2.225933687766     2.625918101008    -0.224328823459     1.007825032230
         H            1.527069687766     0.752167101008     1.606771176541     1.007825032230
         H            3.183452687766     0.806712101008     0.982359176541     1.007825032230
         H            0.836141687766    -2.038028898992    -0.744847823459     1.007825032230
         H           -2.365803312234     2.232775101008     0.201821176541     1.007825032230
         H           -1.242573312234    -2.554065898992    -0.139950823459     1.007825032230
         H           -4.167167312234     0.553189101008     0.380024176541     1.007825032230
         H           -3.599208312234    -1.881574898992     0.175720176541     1.007825032230

  Basis Set: AUG-CC-PVTZ
    Blend: AUG-CC-PVTZ
  Basis Set: (AUG-CC-PVTZ AUX)
    Blend: AUG-CC-PVTZ-JKFIT
	 Reference Energy          =    -514.5933478630776108 [Eh]
	 Singles Energy            =      -0.0000000000000000 [Eh]
	 Same-Spin Energy          =      -0.5580502616023792 [Eh]
	 Opposite-Spin Energy      =      -1.7432682963777091 [Eh]
	 Correlation Energy        =      -2.3013185579800881 [Eh]
	 Total Energy              =    -516.8946664210576500 [Eh]

	 ================> DF-SCS-MP2 Energies <==================
	-----------------------------------------------------------
	 SCS Same-Spin Scale       =       0.3333333333333333 [-]
	 SCS Opposite-Spin Scale   =       1.2000000000000000 [-]
	 SCS Same-Spin Energy      =      -0.1860167538674597 [Eh]
	 SCS Opposite-Spin Energy  =      -2.0919219556532509 [Eh]
	 SCS Correlation Energy    =      -2.2779387095207104 [Eh]
	 SCS Total Energy          =    -516.8712865725983647 [Eh]
	-----------------------------------------------------------

  Dipole Moment: [D]
     X:    -2.7376      Y:     2.0609      Z:     0.0474     Total:     3.4270

*** Psi4 exiting successfully. Buy a developer a beer!
