                               Psi4 1.3.2 release

  ==> Input File <==

--------------------------------------------------------------------------
#psi4
#
memory 32 gb

molecule  {
0 1
  O        3.0005300    -1.5493530     0.0754490
  N        0.8317470    -1.1153310    -0.4215630
  C        0.1960040     1.9504030    -0.2395030
  C        1.6857700     1.6448450    -0.3508570
  C       -0.7674710     0.7851500    -0.1025020
  C        2.1481850     0.6250380     0.6971500
  C       -0.4596220    -0.5879500    -0.1790540
  C        1.9997258    -0.7608053     0.1278729
  C       -2.1103850     1.1321340     0.1249900
  C       -1.4919760    -1.5397800    -0.0852490
  C       -3.1313420     0.1920050     0.2149350
  C       -2.8150140    -1.1632860     0.1069400
  H       -0.1141940     2.5504580    -1.1051150
  H        0.0480080     2.5950730     0.6372840
  H        1.9308140     1.2745600    -1.3520490
  H        2.2359360     2.5841340    -0.2253410
  H        1.5370720     0.7103830     1.6057590
  H        3.1934550     0.7649280     0.9813470
  H        0.8461440    -2.0798130    -0.7458600
  H       -2.3558010     2.1909910     0.2008090
  H       -1.2325710    -2.5958500    -0.1409630
  H       -4.1571650     0.5114050     0.3790120
  H       -3.5892060    -1.9233590     0.1747080
units angstrom
no_reorient  #important for SAPT in psi4, default
symmetry c1  #important for SAPT in psi4, default
}

set PROPERTIES_ORIGIN ["COM"]
properties('MP2/aug-cc-pvtz', properties = ['dipole'])
--------------------------------------------------------------------------

    Molecular point group: c1
  Charge       = 0
  Multiplicity = 1
  Basis Set: AUG-CC-PVTZ
    Blend: AUG-CC-PVTZ
  Basis Set: (AUG-CC-PVTZ AUX)
    Blend: AUG-CC-PVTZ-JKFIT

    Orbital Energies [Eh]
    ---------------------

    Doubly Occupied:

       1A    -20.513379     2A    -15.604789     3A    -11.354970
       4A    -11.300890     5A    -11.259299     6A    -11.249737
       7A    -11.248421     8A    -11.247944     9A    -11.246694
      10A    -11.243557    11A    -11.243044    12A    -11.242338
      13A     -1.357541    14A     -1.257558    15A     -1.156841
      16A     -1.103290    17A     -1.040759    18A     -1.022109
      19A     -0.958823    20A     -0.885652    21A     -0.847163
      22A     -0.813525    23A     -0.771757    24A     -0.727403
      25A     -0.679374    26A     -0.674271    27A     -0.648092
      28A     -0.626802    29A     -0.611112    30A     -0.605411
      31A     -0.601628    32A     -0.576166    33A     -0.559745
      34A     -0.544389    35A     -0.518206    36A     -0.510375
      37A     -0.497567    38A     -0.494458    39A     -0.482110
      40A     -0.428353    41A     -0.417383    42A     -0.343594
      43A     -0.320952

  @DF-RHF Final Energy:  -514.58796934746465

   => Energetics <=

    Nuclear Repulsion Energy =            675.5133941684746333
    One-Electron Energy =               -2038.5277887821314380
    Two-Electron Energy =                 848.4264252661921546
    Total Energy =                       -514.5879693474646501
  Basis Set: (AUG-CC-PVTZ AUX)
    Blend: AUG-CC-PVTZ-RI
    Molecular point group: c1

    Geometry (in Angstrom), charge = 0, multiplicity = 1:

       Center              X                  Y                   Z               Mass
    ------------   -----------------  -----------------  -----------------  -----------------
         O            2.994221148095    -1.509421268448     0.078595845803    15.994914619570
         N            0.825438148095    -1.075399268448    -0.418416154197    14.003074004430
         C            0.189695148095     1.990334731552    -0.236356154197    12.000000000000
         C            1.679461148095     1.684776731552    -0.347710154197    12.000000000000
         C           -0.773779851905     0.825081731552    -0.099355154197    12.000000000000
         C            2.141876148095     0.664969731552     0.700296845803    12.000000000000
         C           -0.465930851905    -0.548018268448    -0.175907154197    12.000000000000
         C            1.993416948095    -0.720873568448     0.131019745803    12.000000000000
         C           -2.116693851905     1.172065731552     0.128136845803    12.000000000000
         C           -1.498284851905    -1.499848268448    -0.082102154197    12.000000000000
         C           -3.137650851905     0.231936731552     0.218081845803    12.000000000000
         C           -2.821322851905    -1.123354268448     0.110086845803    12.000000000000
         H           -0.120502851905     2.590389731552    -1.101968154197     1.007825032230
         H            0.041699148095     2.635004731552     0.640430845803     1.007825032230
         H            1.924505148095     1.314491731552    -1.348902154197     1.007825032230
         H            2.229627148095     2.624065731552    -0.222194154197     1.007825032230
         H            1.530763148095     0.750314731552     1.608905845803     1.007825032230
         H            3.187146148095     0.804859731552     0.984493845803     1.007825032230
         H            0.839835148095    -2.039881268448    -0.742713154197     1.007825032230
         H           -2.362109851905     2.230922731552     0.203955845803     1.007825032230
         H           -1.238879851905    -2.555918268448    -0.137816154197     1.007825032230
         H           -4.163473851905     0.551336731552     0.382158845803     1.007825032230
         H           -3.595514851905    -1.883427268448     0.177854845803     1.007825032230

  Basis Set: AUG-CC-PVTZ
    Blend: AUG-CC-PVTZ
  Basis Set: (AUG-CC-PVTZ AUX)
    Blend: AUG-CC-PVTZ-JKFIT
	 Reference Energy          =    -514.5879693474646501 [Eh]
	 Singles Energy            =      -0.0000000000000000 [Eh]
	 Same-Spin Energy          =      -0.5586934733033695 [Eh]
	 Opposite-Spin Energy      =      -1.7446104827592872 [Eh]
	 Correlation Energy        =      -2.3033039560626567 [Eh]
	 Total Energy              =    -516.8912733035273277 [Eh]

	 ================> DF-SCS-MP2 Energies <==================
	-----------------------------------------------------------
	 SCS Same-Spin Scale       =       0.3333333333333333 [-]
	 SCS Opposite-Spin Scale   =       1.2000000000000000 [-]
	 SCS Same-Spin Energy      =      -0.1862311577677898 [Eh]
	 SCS Opposite-Spin Energy  =      -2.0935325793111446 [Eh]
	 SCS Correlation Energy    =      -2.2797637370789343 [Eh]
	 SCS Total Energy          =    -516.8677330845436018 [Eh]
	-----------------------------------------------------------

  Dipole Moment: [D]
     X:    -3.3126      Y:     2.1948      Z:    -0.0466     Total:     3.9740

*** Psi4 exiting successfully. Buy a developer a beer!
