                               Psi4 1.3.2 release

  ==> Input File <==

--------------------------------------------------------------------------
#psi4
#
memory 32 gb

molecule  {
0 1
  O        3.0005300    -1.5493530     0.0754490
  N        0.8317470    -1.1153310    -0.4215630
  C        0.1925080     1.8472913    -0.1177213
  C        1.6857700     1.6448450    -0.3508570
  C       -0.7674710     0.7851500    -0.1025020
  C        2.1481850     0.6250380     0.6971500
  C       -0.4596220    -0.5879500    -0.1790540
  C        2.0510250    -0.7686880     0.1361100
  C       -2.1103850     1.1321340     0.1249900
  C       -1.4919760    -1.5397800    -0.0852490
  C       -3.1313420     0.1920050     0.2149350
  C       -2.8150140    -1.1632860     0.1069400
  H       -0.1141940     2.5504580    -1.1051150
  H        0.0480080     2.5950730     0.6372840
  H        1.9308140     1.2745600    -1.3520490
  H        2.2359360     2.5841340    -0.2253410
  H        1.5370720     0.7103830     1.6057590
  H        3.1934550     0.7649280     0.9813470
  H        0.8461440    -2.0798130    -0.7458600
  H       -2.3558010     2.1909910     0.2008090
  H       -1.2325710    -2.5958500    -0.1409630
  H       -4.1571650     0.5114050     0.3790120
  H       -3.5892060    -1.9233590     0.1747080
units angstrom
no_reorient  #important for SAPT in psi4, default
symmetry c1  #important for SAPT in psi4, default
}

set PROPERTIES_ORIGIN ["COM"]
properties('MP2/aug-cc-pvtz', properties = ['dipole'])
--------------------------------------------------------------------------

    Molecular point group: c1
  Charge       = 0
  Multiplicity = 1
  Basis Set: AUG-CC-PVTZ
    Blend: AUG-CC-PVTZ
  Basis Set: (AUG-CC-PVTZ AUX)
    Blend: AUG-CC-PVTZ-JKFIT

    Orbital Energies [Eh]
    ---------------------

    Doubly Occupied:

       1A    -20.525766     2A    -15.596945     3A    -11.357108
       4A    -11.297105     5A    -11.253913     6A    -11.251346
       7A    -11.246819     8A    -11.246067     9A    -11.245515
      10A    -11.245022    11A    -11.240932    12A    -11.240904
      13A     -1.380321    14A     -1.254646    15A     -1.155675
      16A     -1.108010    17A     -1.045072    18A     -1.017103
      19A     -0.952098    20A     -0.886647    21A     -0.845768
      22A     -0.809060    23A     -0.764456    24A     -0.723214
      25A     -0.684026    26A     -0.676672    27A     -0.649242
      28A     -0.630910    29A     -0.607940    30A     -0.603983
      31A     -0.592150    32A     -0.588625    33A     -0.564808
      34A     -0.543353    35A     -0.520772    36A     -0.513270
      37A     -0.500993    38A     -0.497320    39A     -0.463447
      40A     -0.435854    41A     -0.423867    42A     -0.336674
      43A     -0.314730

  @DF-RHF Final Energy:  -514.56966951533298

   => Energetics <=

    Nuclear Repulsion Energy =            677.1416089331133890
    One-Electron Energy =               -2041.7462563165847769
    Two-Electron Energy =                 850.0349778681382986
    Total Energy =                       -514.5696695153329756
  Basis Set: (AUG-CC-PVTZ AUX)
    Blend: AUG-CC-PVTZ-RI
    Molecular point group: c1

    Geometry (in Angstrom), charge = 0, multiplicity = 1:

       Center              X                  Y                   Z               Mass
    ------------   -----------------  -----------------  -----------------  -----------------
         O            2.990660036053    -1.501152711229     0.068910060869    15.994914619570
         N            0.821877036053    -1.067130711229    -0.428101939131    14.003074004430
         C            0.182638036053     1.895491588771    -0.124260239131    12.000000000000
         C            1.675900036053     1.693045288771    -0.357395939131    12.000000000000
         C           -0.777340963947     0.833350288771    -0.109040939131    12.000000000000
         C            2.138315036053     0.673238288771     0.690611060869    12.000000000000
         C           -0.469491963947    -0.539749711229    -0.185592939131    12.000000000000
         C            2.041155036053    -0.720487711229     0.129571060869    12.000000000000
         C           -2.120254963947     1.180334288771     0.118451060869    12.000000000000
         C           -1.501845963947    -1.491579711229    -0.091787939131    12.000000000000
         C           -3.141211963947     0.240205288771     0.208396060869    12.000000000000
         C           -2.824883963947    -1.115085711229     0.100401060869    12.000000000000
         H           -0.124063963947     2.598658288771    -1.111653939131     1.007825032230
         H            0.038138036053     2.643273288771     0.630745060869     1.007825032230
         H            1.920944036053     1.322760288771    -1.358587939131     1.007825032230
         H            2.226066036053     2.632334288771    -0.231879939131     1.007825032230
         H            1.527202036053     0.758583288771     1.599220060869     1.007825032230
         H            3.183585036053     0.813128288771     0.974808060869     1.007825032230
         H            0.836274036053    -2.031612711229    -0.752398939131     1.007825032230
         H           -2.365670963947     2.239191288771     0.194270060869     1.007825032230
         H           -1.242440963947    -2.547649711229    -0.147501939131     1.007825032230
         H           -4.167034963947     0.559605288771     0.372473060869     1.007825032230
         H           -3.599075963947    -1.875158711229     0.168169060869     1.007825032230

  Basis Set: AUG-CC-PVTZ
    Blend: AUG-CC-PVTZ
  Basis Set: (AUG-CC-PVTZ AUX)
    Blend: AUG-CC-PVTZ-JKFIT
	 Reference Energy          =    -514.5696695153329756 [Eh]
	 Singles Energy            =      -0.0000000000000000 [Eh]
	 Same-Spin Energy          =      -0.5594881911062759 [Eh]
	 Opposite-Spin Energy      =      -1.7456488120779237 [Eh]
	 Correlation Energy        =      -2.3051370031841998 [Eh]
	 Total Energy              =    -516.8748065185171754 [Eh]

	 ================> DF-SCS-MP2 Energies <==================
	-----------------------------------------------------------
	 SCS Same-Spin Scale       =       0.3333333333333333 [-]
	 SCS Opposite-Spin Scale   =       1.2000000000000000 [-]
	 SCS Same-Spin Energy      =      -0.1864960637020920 [Eh]
	 SCS Opposite-Spin Energy  =      -2.0947785744935081 [Eh]
	 SCS Correlation Energy    =      -2.2812746381956002 [Eh]
	 SCS Total Energy          =    -516.8509441535285305 [Eh]
	-----------------------------------------------------------

  Dipole Moment: [D]
     X:    -2.6915      Y:     2.0366      Z:     0.1224     Total:     3.3774

*** Psi4 exiting successfully. Buy a developer a beer!
