                               Psi4 1.3.2 release

  ==> Input File <==

--------------------------------------------------------------------------
#psi4
#
memory 32 gb

molecule  {
0 1
  O        3.0005300    -1.5493530     0.0754490
  N        0.8317470    -1.1153310    -0.4215630
  C        0.1758395     1.9672025    -0.2358623
  C        1.6857700     1.6448450    -0.3508570
  C       -0.7674710     0.7851500    -0.1025020
  C        2.1481850     0.6250380     0.6971500
  C       -0.4596220    -0.5879500    -0.1790540
  C        2.0510250    -0.7686880     0.1361100
  C       -2.1103850     1.1321340     0.1249900
  C       -1.4919760    -1.5397800    -0.0852490
  C       -3.1313420     0.1920050     0.2149350
  C       -2.8150140    -1.1632860     0.1069400
  H       -0.1141940     2.5504580    -1.1051150
  H        0.0480080     2.5950730     0.6372840
  H        1.9308140     1.2745600    -1.3520490
  H        2.2359360     2.5841340    -0.2253410
  H        1.5370720     0.7103830     1.6057590
  H        3.1934550     0.7649280     0.9813470
  H        0.8461440    -2.0798130    -0.7458600
  H       -2.3558010     2.1909910     0.2008090
  H       -1.2325710    -2.5958500    -0.1409630
  H       -4.1571650     0.5114050     0.3790120
  H       -3.5892060    -1.9233590     0.1747080
units angstrom
no_reorient  #important for SAPT in psi4, default
symmetry c1  #important for SAPT in psi4, default
}

set PROPERTIES_ORIGIN ["COM"]
properties('MP2/aug-cc-pvtz', properties = ['dipole'])
--------------------------------------------------------------------------

    Molecular point group: c1
  Charge       = 0
  Multiplicity = 1
  Basis Set: AUG-CC-PVTZ
    Blend: AUG-CC-PVTZ
  Basis Set: (AUG-CC-PVTZ AUX)
    Blend: AUG-CC-PVTZ-JKFIT

    Orbital Energies [Eh]
    ---------------------

    Doubly Occupied:

       1A    -20.525513     2A    -15.596012     3A    -11.356813
       4A    -11.297815     5A    -11.254802     6A    -11.246571
       7A    -11.244681     8A    -11.244542     9A    -11.243768
      10A    -11.242999    11A    -11.242407    12A    -11.239615
      13A     -1.379939    14A     -1.252850    15A     -1.151501
      16A     -1.099336    17A     -1.039062    18A     -1.015862
      19A     -0.956391    20A     -0.880258    21A     -0.842649
      22A     -0.809687    23A     -0.765594    24A     -0.721788
      25A     -0.681242    26A     -0.670955    27A     -0.645604
      28A     -0.629010    29A     -0.611760    30A     -0.603697
      31A     -0.600448    32A     -0.579178    33A     -0.564853
      34A     -0.541727    35A     -0.517342    36A     -0.510952
      37A     -0.499274    38A     -0.492299    39A     -0.479977
      40A     -0.435248    41A     -0.425728    42A     -0.340941
      43A     -0.316189

  @DF-RHF Final Energy:  -514.59399175636781

   => Energetics <=

    Nuclear Repulsion Energy =            674.7476667389740896
    One-Electron Energy =               -2037.0895578553745509
    Two-Electron Energy =                 847.7478993600325339
    Total Energy =                       -514.5939917563678137
  Basis Set: (AUG-CC-PVTZ AUX)
    Blend: AUG-CC-PVTZ-RI
    Molecular point group: c1

    Geometry (in Angstrom), charge = 0, multiplicity = 1:

       Center              X                  Y                   Z               Mass
    ------------   -----------------  -----------------  -----------------  -----------------
         O            2.991901760374    -1.510085527825     0.077711005947    15.994914619570
         N            0.823118760374    -1.076063527825    -0.419300994053    14.003074004430
         C            0.167211260374     2.006469972175    -0.233600294053    12.000000000000
         C            1.677141760374     1.684112472175    -0.348594994053    12.000000000000
         C           -0.776099239626     0.824417472175    -0.100239994053    12.000000000000
         C            2.139556760374     0.664305472175     0.699412005947    12.000000000000
         C           -0.468250239626    -0.548682527825    -0.176791994053    12.000000000000
         C            2.042396760374    -0.729420527825     0.138372005947    12.000000000000
         C           -2.119013239626     1.171401472175     0.127252005947    12.000000000000
         C           -1.500604239626    -1.500512527825    -0.082986994053    12.000000000000
         C           -3.139970239626     0.231272472175     0.217197005947    12.000000000000
         C           -2.823642239626    -1.124018527825     0.109202005947    12.000000000000
         H           -0.122822239626     2.589725472175    -1.102852994053     1.007825032230
         H            0.039379760374     2.634340472175     0.639546005947     1.007825032230
         H            1.922185760374     1.313827472175    -1.349786994053     1.007825032230
         H            2.227307760374     2.623401472175    -0.223078994053     1.007825032230
         H            1.528443760374     0.749650472175     1.608021005947     1.007825032230
         H            3.184826760374     0.804195472175     0.983609005947     1.007825032230
         H            0.837515760374    -2.040545527825    -0.743597994053     1.007825032230
         H           -2.364429239626     2.230258472175     0.203071005947     1.007825032230
         H           -1.241199239626    -2.556582527825    -0.138700994053     1.007825032230
         H           -4.165793239626     0.550672472175     0.381274005947     1.007825032230
         H           -3.597834239626    -1.884091527825     0.176970005947     1.007825032230

  Basis Set: AUG-CC-PVTZ
    Blend: AUG-CC-PVTZ
  Basis Set: (AUG-CC-PVTZ AUX)
    Blend: AUG-CC-PVTZ-JKFIT
	 Reference Energy          =    -514.5939917563678137 [Eh]
	 Singles Energy            =      -0.0000000000000000 [Eh]
	 Same-Spin Energy          =      -0.5577192297616560 [Eh]
	 Opposite-Spin Energy      =      -1.7429168203322347 [Eh]
	 Correlation Energy        =      -2.3006360500938907 [Eh]
	 Total Energy              =    -516.8946278064616990 [Eh]

	 ================> DF-SCS-MP2 Energies <==================
	-----------------------------------------------------------
	 SCS Same-Spin Scale       =       0.3333333333333333 [-]
	 SCS Opposite-Spin Scale   =       1.2000000000000000 [-]
	 SCS Same-Spin Energy      =      -0.1859064099205520 [Eh]
	 SCS Opposite-Spin Energy  =      -2.0915001843986816 [Eh]
	 SCS Correlation Energy    =      -2.2774065943192334 [Eh]
	 SCS Total Energy          =    -516.8713983506870591 [Eh]
	-----------------------------------------------------------

  Dipole Moment: [D]
     X:    -2.7573      Y:     2.0634      Z:     0.0383     Total:     3.4441

*** Psi4 exiting successfully. Buy a developer a beer!
