                               Psi4 1.3.2 release

  ==> Input File <==

--------------------------------------------------------------------------
#psi4
#
memory 32 gb

molecule  {
0 1
  O        3.0005300    -1.5493530     0.0754490
  N        0.8317470    -1.1153310    -0.4215630
  C        0.1960040     1.9504030    -0.2395030
  C        1.6857700     1.6448450    -0.3508570
  C       -0.7040085     0.8619033    -0.1115260
  C        2.1481850     0.6250380     0.6971500
  C       -0.4596220    -0.5879500    -0.1790540
  C        2.0510250    -0.7686880     0.1361100
  C       -2.1103850     1.1321340     0.1249900
  C       -1.4919760    -1.5397800    -0.0852490
  C       -3.1313420     0.1920050     0.2149350
  C       -2.8150140    -1.1632860     0.1069400
  H       -0.1141940     2.5504580    -1.1051150
  H        0.0480080     2.5950730     0.6372840
  H        1.9308140     1.2745600    -1.3520490
  H        2.2359360     2.5841340    -0.2253410
  H        1.5370720     0.7103830     1.6057590
  H        3.1934550     0.7649280     0.9813470
  H        0.8461440    -2.0798130    -0.7458600
  H       -2.3558010     2.1909910     0.2008090
  H       -1.2325710    -2.5958500    -0.1409630
  H       -4.1571650     0.5114050     0.3790120
  H       -3.5892060    -1.9233590     0.1747080
units angstrom
no_reorient  #important for SAPT in psi4, default
symmetry c1  #important for SAPT in psi4, default
}

set PROPERTIES_ORIGIN ["COM"]
properties('MP2/aug-cc-pvtz', properties = ['dipole'])
--------------------------------------------------------------------------

    Molecular point group: c1
  Charge       = 0
  Multiplicity = 1
  Basis Set: AUG-CC-PVTZ
    Blend: AUG-CC-PVTZ
  Basis Set: (AUG-CC-PVTZ AUX)
    Blend: AUG-CC-PVTZ-JKFIT

    Orbital Energies [Eh]
    ---------------------

    Doubly Occupied:

       1A    -20.525382     2A    -15.594555     3A    -11.356754
       4A    -11.303983     5A    -11.262790     6A    -11.249191
       7A    -11.247109     8A    -11.244402     9A    -11.244401
      10A    -11.243506    11A    -11.241386    12A    -11.239778
      13A     -1.379779    14A     -1.251270    15A     -1.147031
      16A     -1.110872    17A     -1.042357    18A     -1.012766
      19A     -0.954999    20A     -0.887909    21A     -0.837037
      22A     -0.807165    23A     -0.764545    24A     -0.718302
      25A     -0.683352    26A     -0.676042    27A     -0.650272
      28A     -0.626136    29A     -0.614253    30A     -0.604090
      31A     -0.598191    32A     -0.584032    33A     -0.564045
      34A     -0.542369    35A     -0.517348    36A     -0.512605
      37A     -0.498727    38A     -0.492384    39A     -0.483191
      40A     -0.434413    41A     -0.425617    42A     -0.335584
      43A     -0.309026

  @DF-RHF Final Energy:  -514.57805588673818

   => Energetics <=

    Nuclear Repulsion Energy =            674.6561220623315194
    One-Electron Energy =               -2036.8304675979409240
    Two-Electron Energy =                 847.5962896488713341
    Total Energy =                       -514.5780558867381842
  Basis Set: (AUG-CC-PVTZ AUX)
    Blend: AUG-CC-PVTZ-RI
    Molecular point group: c1

    Geometry (in Angstrom), charge = 0, multiplicity = 1:

       Center              X                  Y                   Z               Mass
    ------------   -----------------  -----------------  -----------------  -----------------
         O            2.985671944865    -1.514551802031     0.078654466127    15.994914619570
         N            0.816888944865    -1.080529802031    -0.418357533873    14.003074004430
         C            0.181145944865     1.985204197969    -0.236297533873    12.000000000000
         C            1.670911944865     1.679646197969    -0.347651533873    12.000000000000
         C           -0.718866555135     0.896704497969    -0.108320533873    12.000000000000
         C            2.133326944865     0.659839197969     0.700355466127    12.000000000000
         C           -0.474480055135    -0.553148802031    -0.175848533873    12.000000000000
         C            2.036166944865    -0.733886802031     0.139315466127    12.000000000000
         C           -2.125243055135     1.166935197969     0.128195466127    12.000000000000
         C           -1.506834055135    -1.504978802031    -0.082043533873    12.000000000000
         C           -3.146200055135     0.226806197969     0.218140466127    12.000000000000
         C           -2.829872055135    -1.128484802031     0.110145466127    12.000000000000
         H           -0.129052055135     2.585259197969    -1.101909533873     1.007825032230
         H            0.033149944865     2.629874197969     0.640489466127     1.007825032230
         H            1.915955944865     1.309361197969    -1.348843533873     1.007825032230
         H            2.221077944865     2.618935197969    -0.222135533873     1.007825032230
         H            1.522213944865     0.745184197969     1.608964466127     1.007825032230
         H            3.178596944865     0.799729197969     0.984552466127     1.007825032230
         H            0.831285944865    -2.045011802031    -0.742654533873     1.007825032230
         H           -2.370659055135     2.225792197969     0.204014466127     1.007825032230
         H           -1.247429055135    -2.561048802031    -0.137757533873     1.007825032230
         H           -4.172023055135     0.546206197969     0.382217466127     1.007825032230
         H           -3.604064055135    -1.888557802031     0.177913466127     1.007825032230

  Basis Set: AUG-CC-PVTZ
    Blend: AUG-CC-PVTZ
  Basis Set: (AUG-CC-PVTZ AUX)
    Blend: AUG-CC-PVTZ-JKFIT
	 Reference Energy          =    -514.5780558867381842 [Eh]
	 Singles Energy            =      -0.0000000000000000 [Eh]
	 Same-Spin Energy          =      -0.5595598972940892 [Eh]
	 Opposite-Spin Energy      =      -1.7456779561230640 [Eh]
	 Correlation Energy        =      -2.3052378534171529 [Eh]
	 Total Energy              =    -516.8832937401552954 [Eh]

	 ================> DF-SCS-MP2 Energies <==================
	-----------------------------------------------------------
	 SCS Same-Spin Scale       =       0.3333333333333333 [-]
	 SCS Opposite-Spin Scale   =       1.2000000000000000 [-]
	 SCS Same-Spin Energy      =      -0.1865199657646964 [Eh]
	 SCS Opposite-Spin Energy  =      -2.0948135473476768 [Eh]
	 SCS Correlation Energy    =      -2.2813335131123731 [Eh]
	 SCS Total Energy          =    -516.8593893998505564 [Eh]
	-----------------------------------------------------------

  Dipole Moment: [D]
     X:    -2.6452      Y:     2.1377      Z:     0.0135     Total:     3.4011

*** Psi4 exiting successfully. Buy a developer a beer!
