                               Psi4 1.4a3.dev225

  ==> Input File <==

--------------------------------------------------------------------------
#psi4
#
memory 32 gb

molecule  {
0 1
  O        3.0005300    -1.5493530     0.0754490
  N        0.8317470    -1.1153310    -0.4215630
  C        0.1960040     1.9504030    -0.2395030
  C        1.6857700     1.6448450    -0.3508570
  C       -0.7547785     0.8005007    -0.1043068
  C        2.1481850     0.6250380     0.6971500
  C       -0.4596220    -0.5879500    -0.1790540
  C        2.0510250    -0.7686880     0.1361100
  C       -2.1103850     1.1321340     0.1249900
  C       -1.4919760    -1.5397800    -0.0852490
  C       -3.1313420     0.1920050     0.2149350
  C       -2.8150140    -1.1632860     0.1069400
  H       -0.1141940     2.5504580    -1.1051150
  H        0.0480080     2.5950730     0.6372840
  H        1.9308140     1.2745600    -1.3520490
  H        2.2359360     2.5841340    -0.2253410
  H        1.5370720     0.7103830     1.6057590
  H        3.1934550     0.7649280     0.9813470
  H        0.8461440    -2.0798130    -0.7458600
  H       -2.3558010     2.1909910     0.2008090
  H       -1.2325710    -2.5958500    -0.1409630
  H       -4.1571650     0.5114050     0.3790120
  H       -3.5892060    -1.9233590     0.1747080
units angstrom
no_reorient  #important for SAPT in psi4, default
symmetry c1  #important for SAPT in psi4, default
}

set PROPERTIES_ORIGIN ["COM"]
properties('MP2/aug-cc-pvtz', properties = ['dipole'])
--------------------------------------------------------------------------

    Molecular point group: c1
  Charge       = 0
  Multiplicity = 1
  Basis Set: AUG-CC-PVTZ
    Blend: AUG-CC-PVTZ
  Basis Set: (AUG-CC-PVTZ AUX)
    Blend: AUG-CC-PVTZ-JKFIT

    Orbital Energies [Eh]
    ---------------------

    Doubly Occupied:

       1A    -20.525584     2A    -15.595806     3A    -11.356930
       4A    -11.298664     5A    -11.256652     6A    -11.246641
       7A    -11.245835     8A    -11.244437     9A    -11.244383
      10A    -11.243092    11A    -11.242446    12A    -11.239831
      13A     -1.380012    14A     -1.252646    15A     -1.150296
      16A     -1.103426    17A     -1.039465    18A     -1.015358
      19A     -0.956871    20A     -0.881894    21A     -0.841633
      22A     -0.808535    23A     -0.765438    24A     -0.721074
      25A     -0.681922    26A     -0.671656    27A     -0.646952
      28A     -0.628183    29A     -0.611679    30A     -0.602877
      31A     -0.600966    32A     -0.579859    33A     -0.564468
      34A     -0.542068    35A     -0.517019    36A     -0.511151
      37A     -0.497484    38A     -0.491780    39A     -0.485397
      40A     -0.435159    41A     -0.425870    42A     -0.339514
      43A     -0.314786

  @DF-RHF Final Energy:  -514.59324349018357

   => Energetics <=

    Nuclear Repulsion Energy =            674.9703860901040571
    One-Electron Energy =               -2037.5157737681081471
    Two-Electron Energy =                 847.9521441878205223
    Total Energy =                       -514.5932434901835677
  Basis Set: (AUG-CC-PVTZ AUX)
    Blend: AUG-CC-PVTZ-RI
    Molecular point group: c1

    Geometry (in Angstrom), charge = 0, multiplicity = 1:

       Center              X                  Y                   Z               Mass
    ------------   -----------------  -----------------  -----------------  -----------------
         O            2.989454069459    -1.509977599085     0.078116669911    15.994914619570
         N            0.820671069459    -1.075955599085    -0.418895330089    14.003074004430
         C            0.184928069459     1.989778400915    -0.236835330089    12.000000000000
         C            1.674694069459     1.684220400915    -0.348189330089    12.000000000000
         C           -0.765854430541     0.839876100915    -0.101639130089    12.000000000000
         C            2.137109069459     0.664413400915     0.699817669911    12.000000000000
         C           -0.470697930541    -0.548574599085    -0.176386330089    12.000000000000
         C            2.039949069459    -0.729312599085     0.138777669911    12.000000000000
         C           -2.121460930541     1.171509400915     0.127657669911    12.000000000000
         C           -1.503051930541    -1.500404599085    -0.082581330089    12.000000000000
         C           -3.142417930541     0.231380400915     0.217602669911    12.000000000000
         C           -2.826089930541    -1.123910599085     0.109607669911    12.000000000000
         H           -0.125269930541     2.589833400915    -1.102447330089     1.007825032230
         H            0.036932069459     2.634448400915     0.639951669911     1.007825032230
         H            1.919738069459     1.313935400915    -1.349381330089     1.007825032230
         H            2.224860069459     2.623509400915    -0.222673330089     1.007825032230
         H            1.525996069459     0.749758400915     1.608426669911     1.007825032230
         H            3.182379069459     0.804303400915     0.984014669911     1.007825032230
         H            0.835068069459    -2.040437599085    -0.743192330089     1.007825032230
         H           -2.366876930541     2.230366400915     0.203476669911     1.007825032230
         H           -1.243646930541    -2.556474599085    -0.138295330089     1.007825032230
         H           -4.168240930541     0.550780400915     0.381679669911     1.007825032230
         H           -3.600281930541    -1.883983599085     0.177375669911     1.007825032230

  Basis Set: AUG-CC-PVTZ
    Blend: AUG-CC-PVTZ
  Basis Set: (AUG-CC-PVTZ AUX)
    Blend: AUG-CC-PVTZ-JKFIT
	 Reference Energy          =    -514.5932434901835677 [Eh]
	 Singles Energy            =      -0.0000000000000000 [Eh]
	 Same-Spin Energy          =      -0.5581169091975287 [Eh]
	 Opposite-Spin Energy      =      -1.7434123591159043 [Eh]
	 Correlation Energy        =      -2.3015292683134332 [Eh]
	 Total Energy              =    -516.8947727584969698 [Eh]

	 ================> DF-SCS-MP2 Energies <==================
	-----------------------------------------------------------
	 SCS Same-Spin Scale       =       0.3333333333333333 [-]
	 SCS Opposite-Spin Scale   =       1.2000000000000000 [-]
	 SCS Same-Spin Energy      =      -0.1860389697325096 [Eh]
	 SCS Opposite-Spin Energy  =      -2.0920948309390850 [Eh]
	 SCS Correlation Energy    =      -2.2781338006715943 [Eh]
	 SCS Total Energy          =    -516.8713772908552073 [Eh]
	-----------------------------------------------------------

  Dipole Moment: [D]
     X:    -2.7244      Y:     2.0749      Z:     0.0308     Total:     3.4247

*** Psi4 exiting successfully. Buy a developer a beer!
