                               Psi4 1.4a3.dev225

  ==> Input File <==

--------------------------------------------------------------------------
#psi4
#
memory 32 gb

molecule  {
0 1
  O        3.0005300    -1.5493530     0.0754490
  N        0.8317470    -1.1153310    -0.4215630
  C        0.1960040     1.9504030    -0.2395030
  C        1.6857700     1.6448450    -0.3508570
  C       -0.7674710     0.7851500    -0.1025020
  C        2.1481850     0.6250380     0.6971500
  C       -0.4596220    -0.5879500    -0.1790540
  C        2.0070029    -0.7812036     0.1159752
  C       -2.1103850     1.1321340     0.1249900
  C       -1.4919760    -1.5397800    -0.0852490
  C       -3.1313420     0.1920050     0.2149350
  C       -2.8150140    -1.1632860     0.1069400
  H       -0.1141940     2.5504580    -1.1051150
  H        0.0480080     2.5950730     0.6372840
  H        1.9308140     1.2745600    -1.3520490
  H        2.2359360     2.5841340    -0.2253410
  H        1.5370720     0.7103830     1.6057590
  H        3.1934550     0.7649280     0.9813470
  H        0.8461440    -2.0798130    -0.7458600
  H       -2.3558010     2.1909910     0.2008090
  H       -1.2325710    -2.5958500    -0.1409630
  H       -4.1571650     0.5114050     0.3790120
  H       -3.5892060    -1.9233590     0.1747080
units angstrom
no_reorient  #important for SAPT in psi4, default
symmetry c1  #important for SAPT in psi4, default
}

set PROPERTIES_ORIGIN ["COM"]
properties('MP2/aug-cc-pvtz', properties = ['dipole'])
--------------------------------------------------------------------------

    Molecular point group: c1
  Charge       = 0
  Multiplicity = 1
  Basis Set: AUG-CC-PVTZ
    Blend: AUG-CC-PVTZ
  Basis Set: (AUG-CC-PVTZ AUX)
    Blend: AUG-CC-PVTZ-JKFIT

    Orbital Energies [Eh]
    ---------------------

    Doubly Occupied:

       1A    -20.515512     2A    -15.603814     3A    -11.353439
       4A    -11.301231     5A    -11.259038     6A    -11.249603
       7A    -11.248333     8A    -11.247638     9A    -11.245875
      10A    -11.243402    11A    -11.241738    12A    -11.240838
      13A     -1.366021    14A     -1.261567    15A     -1.157141
      16A     -1.101007    17A     -1.038674    18A     -1.022493
      19A     -0.955755    20A     -0.884797    21A     -0.847145
      22A     -0.812416    23A     -0.770506    24A     -0.727639
      25A     -0.677958    26A     -0.674188    27A     -0.647725
      28A     -0.627235    29A     -0.612257    30A     -0.605274
      31A     -0.600909    32A     -0.576376    33A     -0.561227
      34A     -0.543512    35A     -0.518621    36A     -0.510942
      37A     -0.497294    38A     -0.493474    39A     -0.482367
      40A     -0.431790    41A     -0.416711    42A     -0.343322
      43A     -0.321110

  @DF-RHF Final Energy:  -514.59051527987208

   => Energetics <=

    Nuclear Repulsion Energy =            675.4614985145417450
    One-Electron Energy =               -2038.4281971702614555
    Two-Electron Energy =                 848.3761833758476314
    Total Energy =                       -514.5905152798720792
  Basis Set: (AUG-CC-PVTZ AUX)
    Blend: AUG-CC-PVTZ-RI
    Molecular point group: c1

    Geometry (in Angstrom), charge = 0, multiplicity = 1:

       Center              X                  Y                   Z               Mass
    ------------   -----------------  -----------------  -----------------  -----------------
         O            2.993679038604    -1.507901691688     0.079482168115    15.994914619570
         N            0.824896038604    -1.073879691688    -0.417529831885    14.003074004430
         C            0.189153038604     1.991854308312    -0.235469831885    12.000000000000
         C            1.678919038604     1.686296308312    -0.346823831885    12.000000000000
         C           -0.774321961396     0.826601308312    -0.098468831885    12.000000000000
         C            2.141334038604     0.666489308312     0.701183168115    12.000000000000
         C           -0.466472961396    -0.546498691688    -0.175020831885    12.000000000000
         C            2.000151938604    -0.739752291688     0.120008368115    12.000000000000
         C           -2.117235961396     1.173585308312     0.129023168115    12.000000000000
         C           -1.498826961396    -1.498328691688    -0.081215831885    12.000000000000
         C           -3.138192961396     0.233456308312     0.218968168115    12.000000000000
         C           -2.821864961396    -1.121834691688     0.110973168115    12.000000000000
         H           -0.121044961396     2.591909308312    -1.101081831885     1.007825032230
         H            0.041157038604     2.636524308312     0.641317168115     1.007825032230
         H            1.923963038604     1.316011308312    -1.348015831885     1.007825032230
         H            2.229085038604     2.625585308312    -0.221307831885     1.007825032230
         H            1.530221038604     0.751834308312     1.609792168115     1.007825032230
         H            3.186604038604     0.806379308312     0.985380168115     1.007825032230
         H            0.839293038604    -2.038361691688    -0.741826831885     1.007825032230
         H           -2.362651961396     2.232442308312     0.204842168115     1.007825032230
         H           -1.239421961396    -2.554398691688    -0.136929831885     1.007825032230
         H           -4.164015961396     0.552856308312     0.383045168115     1.007825032230
         H           -3.596056961396    -1.881907691688     0.178741168115     1.007825032230

  Basis Set: AUG-CC-PVTZ
    Blend: AUG-CC-PVTZ
  Basis Set: (AUG-CC-PVTZ AUX)
    Blend: AUG-CC-PVTZ-JKFIT
	 Reference Energy          =    -514.5905152798720792 [Eh]
	 Singles Energy            =      -0.0000000000000000 [Eh]
	 Same-Spin Energy          =      -0.5581707771821416 [Eh]
	 Opposite-Spin Energy      =      -1.7436501533051965 [Eh]
	 Correlation Energy        =      -2.3018209304873380 [Eh]
	 Total Energy              =    -516.8923362103594172 [Eh]

	 ================> DF-SCS-MP2 Energies <==================
	-----------------------------------------------------------
	 SCS Same-Spin Scale       =       0.3333333333333333 [-]
	 SCS Opposite-Spin Scale   =       1.2000000000000000 [-]
	 SCS Same-Spin Energy      =      -0.1860569257273805 [Eh]
	 SCS Opposite-Spin Energy  =      -2.0923801839662355 [Eh]
	 SCS Correlation Energy    =      -2.2784371096936158 [Eh]
	 SCS Total Energy          =    -516.8689523895657203 [Eh]
	-----------------------------------------------------------

  Dipole Moment: [D]
     X:    -3.2701      Y:     2.0936      Z:    -0.0673     Total:     3.8834

*** Psi4 exiting successfully. Buy a developer a beer!
