                               Psi4 1.3.2 release

  ==> Input File <==

--------------------------------------------------------------------------
#psi4
#
memory 32 gb

molecule  {
0 1
  O        3.0005300    -1.5493530     0.0754490
  N        0.8317470    -1.1153310    -0.4215630
  C        0.1960040     1.9504030    -0.2395030
  C        1.6857700     1.6448450    -0.3508570
  C       -0.8619600     0.7598625    -0.0921034
  C        2.1481850     0.6250380     0.6971500
  C       -0.4596220    -0.5879500    -0.1790540
  C        2.0510250    -0.7686880     0.1361100
  C       -2.1103850     1.1321340     0.1249900
  C       -1.4919760    -1.5397800    -0.0852490
  C       -3.1313420     0.1920050     0.2149350
  C       -2.8150140    -1.1632860     0.1069400
  H       -0.1141940     2.5504580    -1.1051150
  H        0.0480080     2.5950730     0.6372840
  H        1.9308140     1.2745600    -1.3520490
  H        2.2359360     2.5841340    -0.2253410
  H        1.5370720     0.7103830     1.6057590
  H        3.1934550     0.7649280     0.9813470
  H        0.8461440    -2.0798130    -0.7458600
  H       -2.3558010     2.1909910     0.2008090
  H       -1.2325710    -2.5958500    -0.1409630
  H       -4.1571650     0.5114050     0.3790120
  H       -3.5892060    -1.9233590     0.1747080
units angstrom
no_reorient  #important for SAPT in psi4, default
symmetry c1  #important for SAPT in psi4, default
}

set PROPERTIES_ORIGIN ["COM"]
properties('MP2/aug-cc-pvtz', properties = ['dipole'])
--------------------------------------------------------------------------

    Molecular point group: c1
  Charge       = 0
  Multiplicity = 1
  Basis Set: AUG-CC-PVTZ
    Blend: AUG-CC-PVTZ
  Basis Set: (AUG-CC-PVTZ AUX)
    Blend: AUG-CC-PVTZ-JKFIT

    Orbital Energies [Eh]
    ---------------------

    Doubly Occupied:

       1A    -20.526811     2A    -15.599675     3A    -11.357918
       4A    -11.297400     5A    -11.250283     6A    -11.245925
       7A    -11.244941     8A    -11.243507     9A    -11.242889
      10A    -11.242189    11A    -11.239671    12A    -11.235038
      13A     -1.381177    14A     -1.253993    15A     -1.160514
      16A     -1.096691    17A     -1.039059    18A     -1.019503
      19A     -0.956813    20A     -0.876590    21A     -0.844277
      22A     -0.809364    23A     -0.769390    24A     -0.725036
      25A     -0.681410    26A     -0.668766    27A     -0.643896
      28A     -0.632478    29A     -0.611367    30A     -0.605082
      31A     -0.599524    32A     -0.575050    33A     -0.565433
      34A     -0.543888    35A     -0.521351    36A     -0.511643
      37A     -0.499989    38A     -0.491577    39A     -0.465500
      40A     -0.436297    41A     -0.426881    42A     -0.351045
      43A     -0.314517

  @DF-RHF Final Energy:  -514.58462730072449

   => Energetics <=

    Nuclear Repulsion Energy =            675.1024580063713074
    One-Electron Energy =               -2037.7654746806315416
    Two-Electron Energy =                 848.0783893735357424
    Total Energy =                       -514.5846273007244918
  Basis Set: (AUG-CC-PVTZ AUX)
    Blend: AUG-CC-PVTZ-RI
    Molecular point group: c1

    Geometry (in Angstrom), charge = 0, multiplicity = 1:

       Center              X                  Y                   Z               Mass
    ------------   -----------------  -----------------  -----------------  -----------------
         O            2.997438583682    -1.506950245616     0.077207574397    15.994914619570
         N            0.828655583682    -1.072928245616    -0.419804425603    14.003074004430
         C            0.192912583682     1.992805754384    -0.237744425603    12.000000000000
         C            1.682678583682     1.687247754384    -0.349098425603    12.000000000000
         C           -0.865051416318     0.802265254384    -0.090344825603    12.000000000000
         C            2.145093583682     0.667440754384     0.698908574397    12.000000000000
         C           -0.462713416318    -0.545547245616    -0.177295425603    12.000000000000
         C            2.047933583682    -0.726285245616     0.137868574397    12.000000000000
         C           -2.113476416318     1.174536754384     0.126748574397    12.000000000000
         C           -1.495067416318    -1.497377245616    -0.083490425603    12.000000000000
         C           -3.134433416318     0.234407754384     0.216693574397    12.000000000000
         C           -2.818105416318    -1.120883245616     0.108698574397    12.000000000000
         H           -0.117285416318     2.592860754384    -1.103356425603     1.007825032230
         H            0.044916583682     2.637475754384     0.639042574397     1.007825032230
         H            1.927722583682     1.316962754384    -1.350290425603     1.007825032230
         H            2.232844583682     2.626536754384    -0.223582425603     1.007825032230
         H            1.533980583682     0.752785754384     1.607517574397     1.007825032230
         H            3.190363583682     0.807330754384     0.983105574397     1.007825032230
         H            0.843052583682    -2.037410245616    -0.744101425603     1.007825032230
         H           -2.358892416318     2.233393754384     0.202567574397     1.007825032230
         H           -1.235662416318    -2.553447245616    -0.139204425603     1.007825032230
         H           -4.160256416318     0.553807754384     0.380770574397     1.007825032230
         H           -3.592297416318    -1.880956245616     0.176466574397     1.007825032230

  Basis Set: AUG-CC-PVTZ
    Blend: AUG-CC-PVTZ
  Basis Set: (AUG-CC-PVTZ AUX)
    Blend: AUG-CC-PVTZ-JKFIT
	 Reference Energy          =    -514.5846273007244918 [Eh]
	 Singles Energy            =      -0.0000000000000000 [Eh]
	 Same-Spin Energy          =      -0.5575217675528606 [Eh]
	 Opposite-Spin Energy      =      -1.7424630099267933 [Eh]
	 Correlation Energy        =      -2.2999847774796538 [Eh]
	 Total Energy              =    -516.8846120782040998 [Eh]

	 ================> DF-SCS-MP2 Energies <==================
	-----------------------------------------------------------
	 SCS Same-Spin Scale       =       0.3333333333333333 [-]
	 SCS Opposite-Spin Scale   =       1.2000000000000000 [-]
	 SCS Same-Spin Energy      =      -0.1858405891842869 [Eh]
	 SCS Opposite-Spin Energy  =      -2.0909556119121517 [Eh]
	 SCS Correlation Energy    =      -2.2767962010964387 [Eh]
	 SCS Total Energy          =    -516.8614235018209229 [Eh]
	-----------------------------------------------------------

  Dipole Moment: [D]
     X:    -2.7207      Y:     1.9904      Z:     0.0435     Total:     3.3714

*** Psi4 exiting successfully. Buy a developer a beer!
