                               Psi4 1.3.2 release

  ==> Input File <==

--------------------------------------------------------------------------
#psi4
#
memory 32 gb

molecule  {
0 1
  O        3.0005300    -1.5493530     0.0754490
  N        0.8317470    -1.1153310    -0.4215630
  C        0.1960040     1.9504030    -0.2395030
  C        1.6857700     1.6448450    -0.3508570
  C       -0.7674710     0.7851500    -0.1025020
  C        2.1481850     0.6250380     0.6971500
  C       -0.4434008    -0.6061530    -0.1820229
  C        2.0510250    -0.7686880     0.1361100
  C       -2.1103850     1.1321340     0.1249900
  C       -1.4919760    -1.5397800    -0.0852490
  C       -3.1313420     0.1920050     0.2149350
  C       -2.8150140    -1.1632860     0.1069400
  H       -0.1141940     2.5504580    -1.1051150
  H        0.0480080     2.5950730     0.6372840
  H        1.9308140     1.2745600    -1.3520490
  H        2.2359360     2.5841340    -0.2253410
  H        1.5370720     0.7103830     1.6057590
  H        3.1934550     0.7649280     0.9813470
  H        0.8461440    -2.0798130    -0.7458600
  H       -2.3558010     2.1909910     0.2008090
  H       -1.2325710    -2.5958500    -0.1409630
  H       -4.1571650     0.5114050     0.3790120
  H       -3.5892060    -1.9233590     0.1747080
units angstrom
no_reorient  #important for SAPT in psi4, default
symmetry c1  #important for SAPT in psi4, default
}

set PROPERTIES_ORIGIN ["COM"]
properties('MP2/aug-cc-pvtz', properties = ['dipole'])
--------------------------------------------------------------------------

    Molecular point group: c1
  Charge       = 0
  Multiplicity = 1
  Basis Set: AUG-CC-PVTZ
    Blend: AUG-CC-PVTZ
  Basis Set: (AUG-CC-PVTZ AUX)
    Blend: AUG-CC-PVTZ-JKFIT

    Orbital Energies [Eh]
    ---------------------

    Doubly Occupied:

       1A    -20.527641     2A    -15.597877     3A    -11.358929
       4A    -11.298249     5A    -11.256401     6A    -11.245812
       7A    -11.244335     8A    -11.244172     9A    -11.243621
      10A    -11.243438    11A    -11.242466    12A    -11.238870
      13A     -1.382322    14A     -1.259173    15A     -1.149536
      16A     -1.102046    17A     -1.037607    18A     -1.015858
      19A     -0.956013    20A     -0.882390    21A     -0.841602
      22A     -0.809341    23A     -0.766721    24A     -0.724333
      25A     -0.682809    26A     -0.671217    27A     -0.646606
      28A     -0.627991    29A     -0.611836    30A     -0.603450
      31A     -0.601308    32A     -0.578832    33A     -0.565024
      34A     -0.542700    35A     -0.517409    36A     -0.510342
      37A     -0.497969    38A     -0.490611    39A     -0.482395
      40A     -0.437435    41A     -0.427848    42A     -0.339856
      43A     -0.312466

  @DF-RHF Final Energy:  -514.59314270191624

   => Energetics <=

    Nuclear Repulsion Energy =            675.0087202362622065
    One-Electron Energy =               -2037.5700082645150815
    Two-Electron Energy =                 847.9681453263366393
    Total Energy =                       -514.5931427019162356
  Basis Set: (AUG-CC-PVTZ AUX)
    Blend: AUG-CC-PVTZ-RI
    Molecular point group: c1

    Geometry (in Angstrom), charge = 0, multiplicity = 1:

       Center              X                  Y                   Z               Mass
    ------------   -----------------  -----------------  -----------------  -----------------
         O            2.989191198018    -1.507478007319     0.078203389849    15.994914619570
         N            0.820408198018    -1.073456007319    -0.418808610151    14.003074004430
         C            0.184665198018     1.992277992681    -0.236748610151    12.000000000000
         C            1.674431198018     1.686719992681    -0.348102610151    12.000000000000
         C           -0.778809801982     0.827024992681    -0.099747610151    12.000000000000
         C            2.136846198018     0.666912992681     0.699904389849    12.000000000000
         C           -0.454739601982    -0.564278007319    -0.179268510151    12.000000000000
         C            2.039686198018    -0.726813007319     0.138864389849    12.000000000000
         C           -2.121723801982     1.174008992681     0.127744389849    12.000000000000
         C           -1.503314801982    -1.497905007319    -0.082494610151    12.000000000000
         C           -3.142680801982     0.233879992681     0.217689389849    12.000000000000
         C           -2.826352801982    -1.121411007319     0.109694389849    12.000000000000
         H           -0.125532801982     2.592332992681    -1.102360610151     1.007825032230
         H            0.036669198018     2.636947992681     0.640038389849     1.007825032230
         H            1.919475198018     1.316434992681    -1.349294610151     1.007825032230
         H            2.224597198018     2.626008992681    -0.222586610151     1.007825032230
         H            1.525733198018     0.752257992681     1.608513389849     1.007825032230
         H            3.182116198018     0.806802992681     0.984101389849     1.007825032230
         H            0.834805198018    -2.037938007319    -0.743105610151     1.007825032230
         H           -2.367139801982     2.232865992681     0.203563389849     1.007825032230
         H           -1.243909801982    -2.553975007319    -0.138208610151     1.007825032230
         H           -4.168503801982     0.553279992681     0.381766389849     1.007825032230
         H           -3.600544801982    -1.881484007319     0.177462389849     1.007825032230

  Basis Set: AUG-CC-PVTZ
    Blend: AUG-CC-PVTZ
  Basis Set: (AUG-CC-PVTZ AUX)
    Blend: AUG-CC-PVTZ-JKFIT
	 Reference Energy          =    -514.5931427019162356 [Eh]
	 Singles Energy            =      -0.0000000000000000 [Eh]
	 Same-Spin Energy          =      -0.5581434252814943 [Eh]
	 Opposite-Spin Energy      =      -1.7433601343520206 [Eh]
	 Correlation Energy        =      -2.3015035596335149 [Eh]
	 Total Energy              =    -516.8946462615497239 [Eh]

	 ================> DF-SCS-MP2 Energies <==================
	-----------------------------------------------------------
	 SCS Same-Spin Scale       =       0.3333333333333333 [-]
	 SCS Opposite-Spin Scale   =       1.2000000000000000 [-]
	 SCS Same-Spin Energy      =      -0.1860478084271648 [Eh]
	 SCS Opposite-Spin Energy  =      -2.0920321612224249 [Eh]
	 SCS Correlation Energy    =      -2.2780799696495895 [Eh]
	 SCS Total Energy          =    -516.8712226715658744 [Eh]
	-----------------------------------------------------------

  Dipole Moment: [D]
     X:    -2.6061      Y:     2.0292      Z:     0.0271     Total:     3.3030

*** Psi4 exiting successfully. Buy a developer a beer!
