                               Psi4 1.3.2 release

  ==> Input File <==

--------------------------------------------------------------------------
#psi4
#
memory 32 gb

molecule  {
0 1
  O        3.0005300    -1.5493530     0.0754490
  N        0.8317470    -1.1153310    -0.4215630
  C        0.1960040     1.9504030    -0.2395030
  C        1.6857700     1.6448450    -0.3508570
  C       -0.7674710     0.7851500    -0.1025020
  C        2.1481850     0.6250380     0.6971500
  C       -0.4596220    -0.5879500    -0.1790540
  C        1.9738748    -0.7052565     0.1410389
  C       -2.1103850     1.1321340     0.1249900
  C       -1.4919760    -1.5397800    -0.0852490
  C       -3.1313420     0.1920050     0.2149350
  C       -2.8150140    -1.1632860     0.1069400
  H       -0.1141940     2.5504580    -1.1051150
  H        0.0480080     2.5950730     0.6372840
  H        1.9308140     1.2745600    -1.3520490
  H        2.2359360     2.5841340    -0.2253410
  H        1.5370720     0.7103830     1.6057590
  H        3.1934550     0.7649280     0.9813470
  H        0.8461440    -2.0798130    -0.7458600
  H       -2.3558010     2.1909910     0.2008090
  H       -1.2325710    -2.5958500    -0.1409630
  H       -4.1571650     0.5114050     0.3790120
  H       -3.5892060    -1.9233590     0.1747080
units angstrom
no_reorient  #important for SAPT in psi4, default
symmetry c1  #important for SAPT in psi4, default
}

set PROPERTIES_ORIGIN ["COM"]
properties('MP2/aug-cc-pvtz', properties = ['dipole'])
--------------------------------------------------------------------------

    Molecular point group: c1
  Charge       = 0
  Multiplicity = 1
  Basis Set: AUG-CC-PVTZ
    Blend: AUG-CC-PVTZ
  Basis Set: (AUG-CC-PVTZ AUX)
    Blend: AUG-CC-PVTZ-JKFIT

    Orbital Energies [Eh]
    ---------------------

    Doubly Occupied:

       1A    -20.505423     2A    -15.609363     3A    -11.358199
       4A    -11.301088     5A    -11.260775     6A    -11.250835
       7A    -11.249453     8A    -11.249312     9A    -11.249056
      10A    -11.246283    11A    -11.245032    12A    -11.244660
      13A     -1.339341    14A     -1.244775    15A     -1.157081
      16A     -1.109985    17A     -1.046492    18A     -1.022544
      19A     -0.966436    20A     -0.888706    21A     -0.848214
      22A     -0.817369    23A     -0.776025    24A     -0.728138
      25A     -0.684483    26A     -0.675161    27A     -0.649776
      28A     -0.628283    29A     -0.611761    30A     -0.606436
      31A     -0.602655    32A     -0.574702    33A     -0.554486
      34A     -0.546800    35A     -0.516953    36A     -0.510076
      37A     -0.499082    38A     -0.495253    39A     -0.480846
      40A     -0.417506    41A     -0.413113    42A     -0.344900
      43A     -0.321279

  @DF-RHF Final Energy:  -514.57263447714649

   => Energetics <=

    Nuclear Repulsion Energy =            675.8200928006137929
    One-Electron Energy =               -2039.0891854078845427
    Two-Electron Energy =                 848.6964581301242561
    Total Energy =                       -514.5726344771464937
  Basis Set: (AUG-CC-PVTZ AUX)
    Blend: AUG-CC-PVTZ-RI
    Molecular point group: c1

    Geometry (in Angstrom), charge = 0, multiplicity = 1:

       Center              X                  Y                   Z               Mass
    ------------   -----------------  -----------------  -----------------  -----------------
         O            2.996146925185    -1.513559391013     0.077615041146    15.994914619570
         N            0.827363925185    -1.079537391013    -0.419396958854    14.003074004430
         C            0.191620925185     1.986196608987    -0.237336958854    12.000000000000
         C            1.681386925185     1.680638608987    -0.348690958854    12.000000000000
         C           -0.771854074815     0.820943608987    -0.100335958854    12.000000000000
         C            2.143801925185     0.660831608987     0.699316041146    12.000000000000
         C           -0.464005074815    -0.552156391013    -0.176887958854    12.000000000000
         C            1.969491725185    -0.669462891013     0.143204941146    12.000000000000
         C           -2.114768074815     1.167927608987     0.127156041146    12.000000000000
         C           -1.496359074815    -1.503986391013    -0.083082958854    12.000000000000
         C           -3.135725074815     0.227798608987     0.217101041146    12.000000000000
         C           -2.819397074815    -1.127492391013     0.109106041146    12.000000000000
         H           -0.118577074815     2.586251608987    -1.102948958854     1.007825032230
         H            0.043624925185     2.630866608987     0.639450041146     1.007825032230
         H            1.926430925185     1.310353608987    -1.349882958854     1.007825032230
         H            2.231552925185     2.619927608987    -0.223174958854     1.007825032230
         H            1.532688925185     0.746176608987     1.607925041146     1.007825032230
         H            3.189071925185     0.800721608987     0.983513041146     1.007825032230
         H            0.841760925185    -2.044019391013    -0.743693958854     1.007825032230
         H           -2.360184074815     2.226784608987     0.202975041146     1.007825032230
         H           -1.236954074815    -2.560056391013    -0.138796958854     1.007825032230
         H           -4.161548074815     0.547198608987     0.381178041146     1.007825032230
         H           -3.593589074815    -1.887565391013     0.176874041146     1.007825032230

  Basis Set: AUG-CC-PVTZ
    Blend: AUG-CC-PVTZ
  Basis Set: (AUG-CC-PVTZ AUX)
    Blend: AUG-CC-PVTZ-JKFIT
	 Reference Energy          =    -514.5726344771464937 [Eh]
	 Singles Energy            =      -0.0000000000000000 [Eh]
	 Same-Spin Energy          =      -0.5603559699047724 [Eh]
	 Opposite-Spin Energy      =      -1.7476193827815774 [Eh]
	 Correlation Energy        =      -2.3079753526863498 [Eh]
	 Total Energy              =    -516.8806098298327925 [Eh]

	 ================> DF-SCS-MP2 Energies <==================
	-----------------------------------------------------------
	 SCS Same-Spin Scale       =       0.3333333333333333 [-]
	 SCS Opposite-Spin Scale   =       1.2000000000000000 [-]
	 SCS Same-Spin Energy      =      -0.1867853233015908 [Eh]
	 SCS Opposite-Spin Energy  =      -2.0971432593378929 [Eh]
	 SCS Correlation Energy    =      -2.2839285826394837 [Eh]
	 SCS Total Energy          =    -516.8565630597860263 [Eh]
	-----------------------------------------------------------

  Dipole Moment: [D]
     X:    -3.5235      Y:     2.4521      Z:    -0.0265     Total:     4.2928

*** Psi4 exiting successfully. Buy a developer a beer!
