                               Psi4 1.3.2 release

  ==> Input File <==

--------------------------------------------------------------------------
#psi4
#
memory 32 gb

molecule  {
0 1
  O        3.0005300    -1.5493530     0.0754490
  N        0.8317470    -1.1153310    -0.4215630
  C        0.1960040     1.9504030    -0.2395030
  C        1.6857700     1.6448450    -0.3508570
  C       -0.7674710     0.7851500    -0.1025020
  C        2.1481850     0.6250380     0.6971500
  C       -0.4596220    -0.5879500    -0.1790540
  C        2.0510250    -0.7686880     0.1361100
  C       -2.1103850     1.1321340     0.1249900
  C       -1.4919760    -1.5397800    -0.0852490
  C       -3.1313420     0.1920050     0.2149350
  C       -2.8150140    -1.1632860     0.1069400
  H       -0.1141940     2.5504580    -1.1051150
  H        0.0480080     2.5950730     0.6372840
  H        1.9308140     1.2745600    -1.3520490
  H        2.2359360     2.5841340    -0.2253410
  H        1.5370720     0.7103830     1.6057590
  H        3.1934550     0.7649280     0.9813470
  H        0.8475587    -2.1745889    -0.7777274
  H       -2.3558010     2.1909910     0.2008090
  H       -1.2325710    -2.5958500    -0.1409630
  H       -4.1571650     0.5114050     0.3790120
  H       -3.5892060    -1.9233590     0.1747080
units angstrom
no_reorient  #important for SAPT in psi4, default
symmetry c1  #important for SAPT in psi4, default
}

set PROPERTIES_ORIGIN ["COM"]
properties('MP2/aug-cc-pvtz', properties = ['dipole'])
--------------------------------------------------------------------------

    Molecular point group: c1
  Charge       = 0
  Multiplicity = 1
  Basis Set: AUG-CC-PVTZ
    Blend: AUG-CC-PVTZ
  Basis Set: (AUG-CC-PVTZ AUX)
    Blend: AUG-CC-PVTZ-JKFIT

    Orbital Energies [Eh]
    ---------------------

    Doubly Occupied:

       1A    -20.524687     2A    -15.603969     3A    -11.356544
       4A    -11.297184     5A    -11.254984     6A    -11.246112
       7A    -11.244802     8A    -11.244717     9A    -11.243974
      10A    -11.242979    11A    -11.241967    12A    -11.239463
      13A     -1.378083    14A     -1.245556    15A     -1.149266
      16A     -1.100928    17A     -1.038649    18A     -1.014906
      19A     -0.954656    20A     -0.879529    21A     -0.840580
      22A     -0.807933    23A     -0.757763    24A     -0.713781
      25A     -0.679222    26A     -0.669246    27A     -0.644079
      28A     -0.627587    29A     -0.610361    30A     -0.602542
      31A     -0.599157    32A     -0.576349    33A     -0.560514
      34A     -0.541575    35A     -0.517266    36A     -0.510374
      37A     -0.497908    38A     -0.490839    39A     -0.482433
      40A     -0.434013    41A     -0.425380    42A     -0.340249
      43A     -0.315126

  @DF-RHF Final Energy:  -514.58366774965987

   => Energetics <=

    Nuclear Repulsion Energy =            674.4503092147281222
    One-Electron Energy =               -2036.5734942655078612
    Two-Electron Energy =                 847.5395173011198722
    Total Energy =                       -514.5836677496598668
  Basis Set: (AUG-CC-PVTZ AUX)
    Blend: AUG-CC-PVTZ-RI
    Molecular point group: c1

    Geometry (in Angstrom), charge = 0, multiplicity = 1:

       Center              X                  Y                   Z               Mass
    ------------   -----------------  -----------------  -----------------  -----------------
         O            2.990390749514    -1.508241077684     0.078181599757    15.994914619570
         N            0.821607749514    -1.074219077684    -0.418830400243    14.003074004430
         C            0.185864749514     1.991514922316    -0.236770400243    12.000000000000
         C            1.675630749514     1.685956922316    -0.348124400243    12.000000000000
         C           -0.777610250486     0.826261922316    -0.099769400243    12.000000000000
         C            2.138045749514     0.666149922316     0.699882599757    12.000000000000
         C           -0.469761250486    -0.546838077684    -0.176321400243    12.000000000000
         C            2.040885749514    -0.727576077684     0.138842599757    12.000000000000
         C           -2.120524250486     1.173245922316     0.127722599757    12.000000000000
         C           -1.502115250486    -1.498668077684    -0.082516400243    12.000000000000
         C           -3.141481250486     0.233116922316     0.217667599757    12.000000000000
         C           -2.825153250486    -1.122174077684     0.109672599757    12.000000000000
         H           -0.124333250486     2.591569922316    -1.102382400243     1.007825032230
         H            0.037868749514     2.636184922316     0.640016599757     1.007825032230
         H            1.920674749514     1.315671922316    -1.349316400243     1.007825032230
         H            2.225796749514     2.625245922316    -0.222608400243     1.007825032230
         H            1.526932749514     0.751494922316     1.608491599757     1.007825032230
         H            3.183315749514     0.806039922316     0.984079599757     1.007825032230
         H            0.837419449514    -2.133476977684    -0.774994800243     1.007825032230
         H           -2.365940250486     2.232102922316     0.203541599757     1.007825032230
         H           -1.242710250486    -2.554738077684    -0.138230400243     1.007825032230
         H           -4.167304250486     0.552516922316     0.381744599757     1.007825032230
         H           -3.599345250486    -1.882247077684     0.177440599757     1.007825032230

  Basis Set: AUG-CC-PVTZ
    Blend: AUG-CC-PVTZ
  Basis Set: (AUG-CC-PVTZ AUX)
    Blend: AUG-CC-PVTZ-JKFIT
	 Reference Energy          =    -514.5836677496598668 [Eh]
	 Singles Energy            =      -0.0000000000000000 [Eh]
	 Same-Spin Energy          =      -0.5588352935877177 [Eh]
	 Opposite-Spin Energy      =      -1.7452588397496591 [Eh]
	 Correlation Energy        =      -2.3040941333373768 [Eh]
	 Total Energy              =    -516.8877618829972107 [Eh]

	 ================> DF-SCS-MP2 Energies <==================
	-----------------------------------------------------------
	 SCS Same-Spin Scale       =       0.3333333333333333 [-]
	 SCS Opposite-Spin Scale   =       1.2000000000000000 [-]
	 SCS Same-Spin Energy      =      -0.1862784311959059 [Eh]
	 SCS Opposite-Spin Energy  =      -2.0943106076995908 [Eh]
	 SCS Correlation Energy    =      -2.2805890388954966 [Eh]
	 SCS Total Energy          =    -516.8642567885553945 [Eh]
	-----------------------------------------------------------

  Dipole Moment: [D]
     X:    -2.7325      Y:     1.9901      Z:     0.0059     Total:     3.3804

*** Psi4 exiting successfully. Buy a developer a beer!
