                               Psi4 1.3.2 release

  ==> Input File <==

--------------------------------------------------------------------------
#psi4
#
memory 32 gb

molecule  {
0 1
  O        3.0005300    -1.5493530     0.0754490
  N        0.8317470    -1.1153310    -0.4215630
  C        0.1553845     1.9836424    -0.2322004
  C        1.6857700     1.6448450    -0.3508570
  C       -0.7674710     0.7851500    -0.1025020
  C        2.1481850     0.6250380     0.6971500
  C       -0.4596220    -0.5879500    -0.1790540
  C        2.0510250    -0.7686880     0.1361100
  C       -2.1103850     1.1321340     0.1249900
  C       -1.4919760    -1.5397800    -0.0852490
  C       -3.1313420     0.1920050     0.2149350
  C       -2.8150140    -1.1632860     0.1069400
  H       -0.1141940     2.5504580    -1.1051150
  H        0.0480080     2.5950730     0.6372840
  H        1.9308140     1.2745600    -1.3520490
  H        2.2359360     2.5841340    -0.2253410
  H        1.5370720     0.7103830     1.6057590
  H        3.1934550     0.7649280     0.9813470
  H        0.8461440    -2.0798130    -0.7458600
  H       -2.3558010     2.1909910     0.2008090
  H       -1.2325710    -2.5958500    -0.1409630
  H       -4.1571650     0.5114050     0.3790120
  H       -3.5892060    -1.9233590     0.1747080
units angstrom
no_reorient  #important for SAPT in psi4, default
symmetry c1  #important for SAPT in psi4, default
}

set PROPERTIES_ORIGIN ["COM"]
properties('MP2/aug-cc-pvtz', properties = ['dipole'])
--------------------------------------------------------------------------

    Molecular point group: c1
  Charge       = 0
  Multiplicity = 1
  Basis Set: AUG-CC-PVTZ
    Blend: AUG-CC-PVTZ
  Basis Set: (AUG-CC-PVTZ AUX)
    Blend: AUG-CC-PVTZ-JKFIT

    Orbital Energies [Eh]
    ---------------------

    Doubly Occupied:

       1A    -20.525399     2A    -15.595911     3A    -11.356664
       4A    -11.298330     5A    -11.254480     6A    -11.246677
       7A    -11.244660     8A    -11.244330     9A    -11.243534
      10A    -11.242580    11A    -11.242385    12A    -11.239384
      13A     -1.379817    14A     -1.252709    15A     -1.151516
      16A     -1.097079    17A     -1.039221    18A     -1.015624
      19A     -0.955725    20A     -0.880026    21A     -0.842487
      22A     -0.810574    23A     -0.765584    24A     -0.721813
      25A     -0.680910    26A     -0.670965    27A     -0.645266
      28A     -0.629072    29A     -0.613070    30A     -0.604291
      31A     -0.599606    32A     -0.579506    33A     -0.565128
      34A     -0.541332    35A     -0.517028    36A     -0.511267
      37A     -0.501112    38A     -0.492784    39A     -0.475247
      40A     -0.435177    41A     -0.425498    42A     -0.341310
      43A     -0.316365

  @DF-RHF Final Energy:  -514.59220602936819

   => Energetics <=

    Nuclear Repulsion Energy =            674.4396228010526784
    One-Electron Energy =               -2036.4807677840510678
    Two-Electron Energy =                 847.4489389536303179
    Total Energy =                       -514.5922060293681852
  Basis Set: (AUG-CC-PVTZ AUX)
    Blend: AUG-CC-PVTZ-RI
    Molecular point group: c1

    Geometry (in Angstrom), charge = 0, multiplicity = 1:

       Center              X                  Y                   Z               Mass
    ------------   -----------------  -----------------  -----------------  -----------------
         O            2.993425561016    -1.511310222529     0.077438211736    15.994914619570
         N            0.824642561016    -1.077288222529    -0.419573788264    14.003074004430
         C            0.148280061016     2.021685177471    -0.230211188264    12.000000000000
         C            1.678665561016     1.682887777471    -0.348867788264    12.000000000000
         C           -0.774575438984     0.823192777471    -0.100512788264    12.000000000000
         C            2.141080561016     0.663080777471     0.699139211736    12.000000000000
         C           -0.466726438984    -0.549907222529    -0.177064788264    12.000000000000
         C            2.043920561016    -0.730645222529     0.138099211736    12.000000000000
         C           -2.117489438984     1.170176777471     0.126979211736    12.000000000000
         C           -1.499080438984    -1.501737222529    -0.083259788264    12.000000000000
         C           -3.138446438984     0.230047777471     0.216924211736    12.000000000000
         C           -2.822118438984    -1.125243222529     0.108929211736    12.000000000000
         H           -0.121298438984     2.588500777471    -1.103125788264     1.007825032230
         H            0.040903561016     2.633115777471     0.639273211736     1.007825032230
         H            1.923709561016     1.312602777471    -1.350059788264     1.007825032230
         H            2.228831561016     2.622176777471    -0.223351788264     1.007825032230
         H            1.529967561016     0.748425777471     1.607748211736     1.007825032230
         H            3.186350561016     0.802970777471     0.983336211736     1.007825032230
         H            0.839039561016    -2.041770222529    -0.743870788264     1.007825032230
         H           -2.362905438984     2.229033777471     0.202798211736     1.007825032230
         H           -1.239675438984    -2.557807222529    -0.138973788264     1.007825032230
         H           -4.164269438984     0.549447777471     0.381001211736     1.007825032230
         H           -3.596310438984    -1.885316222529     0.176697211736     1.007825032230

  Basis Set: AUG-CC-PVTZ
    Blend: AUG-CC-PVTZ
  Basis Set: (AUG-CC-PVTZ AUX)
    Blend: AUG-CC-PVTZ-JKFIT
	 Reference Energy          =    -514.5922060293681852 [Eh]
	 Singles Energy            =      -0.0000000000000000 [Eh]
	 Same-Spin Energy          =      -0.5576196285676142 [Eh]
	 Opposite-Spin Energy      =      -1.7428945140004952 [Eh]
	 Correlation Energy        =      -2.3005141425681095 [Eh]
	 Total Energy              =    -516.8927201719362756 [Eh]

	 ================> DF-SCS-MP2 Energies <==================
	-----------------------------------------------------------
	 SCS Same-Spin Scale       =       0.3333333333333333 [-]
	 SCS Opposite-Spin Scale   =       1.2000000000000000 [-]
	 SCS Same-Spin Energy      =      -0.1858732095225381 [Eh]
	 SCS Opposite-Spin Energy  =      -2.0914734168005942 [Eh]
	 SCS Correlation Energy    =      -2.2773466263231321 [Eh]
	 SCS Total Energy          =    -516.8695526556913364 [Eh]
	-----------------------------------------------------------

  Dipole Moment: [D]
     X:    -2.7729      Y:     2.0634      Z:     0.0419     Total:     3.4567

*** Psi4 exiting successfully. Buy a developer a beer!
