                               Psi4 1.4a3.dev225

  ==> Input File <==

--------------------------------------------------------------------------
#psi4
#
memory 32 gb

molecule  {
0 1
  O        3.0005300    -1.5493530     0.0754490
  N        0.8317470    -1.1153310    -0.4215630
  C        0.1960040     1.9504030    -0.2395030
  C        1.6857700     1.6448450    -0.3508570
  C       -0.7674710     0.7851500    -0.1025020
  C        2.1481850     0.6250380     0.6971500
  C       -0.4596220    -0.5879500    -0.1790540
  C        2.0510250    -0.7686880     0.1361100
  C       -2.1103850     1.1321340     0.1249900
  C       -1.4919760    -1.5397800    -0.0852490
  C       -3.1313420     0.1920050     0.2149350
  C       -2.8150140    -1.1632860     0.1069400
  H       -0.1141940     2.5504580    -1.1051150
  H        0.0480080     2.5950730     0.6372840
  H        1.9308140     1.2745600    -1.3520490
  H        2.2359360     2.5841340    -0.2253410
  H        1.5370720     0.7103830     1.6057590
  H        3.1934550     0.7649280     0.9813470
  H        0.8468514    -2.1272009    -0.7617937
  H       -2.3558010     2.1909910     0.2008090
  H       -1.2325710    -2.5958500    -0.1409630
  H       -4.1571650     0.5114050     0.3790120
  H       -3.5892060    -1.9233590     0.1747080
units angstrom
no_reorient  #important for SAPT in psi4, default
symmetry c1  #important for SAPT in psi4, default
}

set PROPERTIES_ORIGIN ["COM"]
properties('MP2/aug-cc-pvtz', properties = ['dipole'])
--------------------------------------------------------------------------

    Molecular point group: c1
  Charge       = 0
  Multiplicity = 1
  Basis Set: AUG-CC-PVTZ
    Blend: AUG-CC-PVTZ
  Basis Set: (AUG-CC-PVTZ AUX)
    Blend: AUG-CC-PVTZ-JKFIT

    Orbital Energies [Eh]
    ---------------------

    Doubly Occupied:

       1A    -20.525150     2A    -15.600254     3A    -11.356747
       4A    -11.297245     5A    -11.255090     6A    -11.246297
       7A    -11.244923     8A    -11.244838     9A    -11.244216
      10A    -11.242917    11A    -11.242061    12A    -11.239660
      13A     -1.379017    14A     -1.248959    15A     -1.150333
      16A     -1.101351    17A     -1.038784    18A     -1.015478
      19A     -0.955819    20A     -0.879967    21A     -0.841608
      22A     -0.808328    23A     -0.761187    24A     -0.717777
      25A     -0.680441    26A     -0.670205    27A     -0.645111
      28A     -0.628320    29A     -0.610852    30A     -0.602813
      31A     -0.600059    32A     -0.577622    33A     -0.562772
      34A     -0.541832    35A     -0.517472    36A     -0.510580
      37A     -0.498062    38A     -0.491396    39A     -0.482622
      40A     -0.434655    41A     -0.425648    42A     -0.340405
      43A     -0.315554

  @DF-RHF Final Energy:  -514.59049195386967

   => Energetics <=

    Nuclear Repulsion Energy =            674.7487486630642479
    One-Electron Energy =               -2037.1296254502958618
    Two-Electron Energy =                 847.7903848333618271
    Total Energy =                       -514.5904919538696731
  Basis Set: (AUG-CC-PVTZ AUX)
    Blend: AUG-CC-PVTZ-RI
    Molecular point group: c1

    Geometry (in Angstrom), charge = 0, multiplicity = 1:

       Center              X                  Y                   Z               Mass
    ------------   -----------------  -----------------  -----------------  -----------------
         O            2.990395174748    -1.508537561467     0.078081910307    15.994914619570
         N            0.821612174748    -1.074515561467    -0.418930089693    14.003074004430
         C            0.185869174748     1.991218438533    -0.236870089693    12.000000000000
         C            1.675635174748     1.685660438533    -0.348224089693    12.000000000000
         C           -0.777605825252     0.825965438533    -0.099869089693    12.000000000000
         C            2.138050174748     0.665853438533     0.699782910307    12.000000000000
         C           -0.469756825252    -0.547134561467    -0.176421089693    12.000000000000
         C            2.040890174748    -0.727872561467     0.138742910307    12.000000000000
         C           -2.120519825252     1.172949438533     0.127622910307    12.000000000000
         C           -1.502110825252    -1.498964561467    -0.082616089693    12.000000000000
         C           -3.141476825252     0.232820438533     0.217567910307    12.000000000000
         C           -2.825148825252    -1.122470561467     0.109572910307    12.000000000000
         H           -0.124328825252     2.591273438533    -1.102482089693     1.007825032230
         H            0.037873174748     2.635888438533     0.639916910307     1.007825032230
         H            1.920679174748     1.315375438533    -1.349416089693     1.007825032230
         H            2.225801174748     2.624949438533    -0.222708089693     1.007825032230
         H            1.526937174748     0.751198438533     1.608391910307     1.007825032230
         H            3.183320174748     0.805743438533     0.983979910307     1.007825032230
         H            0.836716574748    -2.086385461467    -0.759160789693     1.007825032230
         H           -2.365935825252     2.231806438533     0.203441910307     1.007825032230
         H           -1.242705825252    -2.555034561467    -0.138330089693     1.007825032230
         H           -4.167299825252     0.552220438533     0.381644910307     1.007825032230
         H           -3.599340825252    -1.882543561467     0.177340910307     1.007825032230

  Basis Set: AUG-CC-PVTZ
    Blend: AUG-CC-PVTZ
  Basis Set: (AUG-CC-PVTZ AUX)
    Blend: AUG-CC-PVTZ-JKFIT
	 Reference Energy          =    -514.5904919538696731 [Eh]
	 Singles Energy            =      -0.0000000000000000 [Eh]
	 Same-Spin Energy          =      -0.5583479261546043 [Eh]
	 Opposite-Spin Energy      =      -1.7441092542242824 [Eh]
	 Correlation Energy        =      -2.3024571803788865 [Eh]
	 Total Energy              =    -516.8929491342485107 [Eh]

	 ================> DF-SCS-MP2 Energies <==================
	-----------------------------------------------------------
	 SCS Same-Spin Scale       =       0.3333333333333333 [-]
	 SCS Opposite-Spin Scale   =       1.2000000000000000 [-]
	 SCS Same-Spin Energy      =      -0.1861159753848681 [Eh]
	 SCS Opposite-Spin Energy  =      -2.0929311050691388 [Eh]
	 SCS Correlation Energy    =      -2.2790470804540068 [Eh]
	 SCS Total Energy          =    -516.8695390343236795 [Eh]
	-----------------------------------------------------------

  Dipole Moment: [D]
     X:    -2.7371      Y:     2.0255      Z:     0.0198     Total:     3.4051

*** Psi4 exiting successfully. Buy a developer a beer!
