                               Psi4 1.3.2 release

  ==> Input File <==

--------------------------------------------------------------------------
#psi4
#
memory 32 gb

molecule  {
0 1
  O        3.0005300    -1.5493530     0.0754490
  N        0.8317470    -1.1153310    -0.4215630
  C        0.1960040     1.9504030    -0.2395030
  C        1.7843438     1.6865140    -0.3483360
  C       -0.7674710     0.7851500    -0.1025020
  C        2.1481850     0.6250380     0.6971500
  C       -0.4596220    -0.5879500    -0.1790540
  C        2.0510250    -0.7686880     0.1361100
  C       -2.1103850     1.1321340     0.1249900
  C       -1.4919760    -1.5397800    -0.0852490
  C       -3.1313420     0.1920050     0.2149350
  C       -2.8150140    -1.1632860     0.1069400
  H       -0.1141940     2.5504580    -1.1051150
  H        0.0480080     2.5950730     0.6372840
  H        1.9308140     1.2745600    -1.3520490
  H        2.2359360     2.5841340    -0.2253410
  H        1.5370720     0.7103830     1.6057590
  H        3.1934550     0.7649280     0.9813470
  H        0.8461440    -2.0798130    -0.7458600
  H       -2.3558010     2.1909910     0.2008090
  H       -1.2325710    -2.5958500    -0.1409630
  H       -4.1571650     0.5114050     0.3790120
  H       -3.5892060    -1.9233590     0.1747080
units angstrom
no_reorient  #important for SAPT in psi4, default
symmetry c1  #important for SAPT in psi4, default
}

set PROPERTIES_ORIGIN ["COM"]
properties('MP2/aug-cc-pvtz', properties = ['dipole'])
--------------------------------------------------------------------------

    Molecular point group: c1
  Charge       = 0
  Multiplicity = 1
  Basis Set: AUG-CC-PVTZ
    Blend: AUG-CC-PVTZ
  Basis Set: (AUG-CC-PVTZ AUX)
    Blend: AUG-CC-PVTZ-JKFIT

    Orbital Energies [Eh]
    ---------------------

    Doubly Occupied:

       1A    -20.526291     2A    -15.596745     3A    -11.358150
       4A    -11.296957     5A    -11.256130     6A    -11.246850
       7A    -11.246248     8A    -11.244991     9A    -11.244293
      10A    -11.242770    11A    -11.240586    12A    -11.239815
      13A     -1.380534    14A     -1.252893    15A     -1.150982
      16A     -1.094362    17A     -1.039396    18A     -1.015636
      19A     -0.950466    20A     -0.886219    21A     -0.842709
      22A     -0.812088    23A     -0.765154    24A     -0.721173
      25A     -0.679095    26A     -0.670154    27A     -0.652549
      28A     -0.628466    29A     -0.606352    30A     -0.606095
      31A     -0.598980    32A     -0.577930    33A     -0.566575
      34A     -0.549719    35A     -0.518523    36A     -0.512319
      37A     -0.497169    38A     -0.492234    39A     -0.468521
      40A     -0.435631    41A     -0.426069    42A     -0.340313
      43A     -0.316006

  @DF-RHF Final Energy:  -514.58354571054122

   => Energetics <=

    Nuclear Repulsion Energy =            673.3822602329911433
    One-Electron Energy =               -2034.3433435291644855
    Two-Electron Energy =                 846.3775375856322398
    Total Energy =                       -514.5835457105412161
  Basis Set: (AUG-CC-PVTZ AUX)
    Blend: AUG-CC-PVTZ-RI
    Molecular point group: c1

    Geometry (in Angstrom), charge = 0, multiplicity = 1:

       Center              X                  Y                   Z               Mass
    ------------   -----------------  -----------------  -----------------  -----------------
         O            2.983056319275    -1.511938187813     0.077794418295    15.994914619570
         N            0.814273319275    -1.077916187813    -0.419217581705    14.003074004430
         C            0.178530319275     1.987817812187    -0.237157581705    12.000000000000
         C            1.766870119275     1.723928812187    -0.345990581705    12.000000000000
         C           -0.784944680725     0.822564812187    -0.100156581705    12.000000000000
         C            2.130711319275     0.662452812187     0.699495418295    12.000000000000
         C           -0.477095680725    -0.550535187813    -0.176708581705    12.000000000000
         C            2.033551319275    -0.731273187813     0.138455418295    12.000000000000
         C           -2.127858680725     1.169548812187     0.127335418295    12.000000000000
         C           -1.509449680725    -1.502365187813    -0.082903581705    12.000000000000
         C           -3.148815680725     0.229419812187     0.217280418295    12.000000000000
         C           -2.832487680725    -1.125871187813     0.109285418295    12.000000000000
         H           -0.131667680725     2.587872812187    -1.102769581705     1.007825032230
         H            0.030534319275     2.632487812187     0.639629418295     1.007825032230
         H            1.913340319275     1.311974812187    -1.349703581705     1.007825032230
         H            2.218462319275     2.621548812187    -0.222995581705     1.007825032230
         H            1.519598319275     0.747797812187     1.608104418295     1.007825032230
         H            3.175981319275     0.802342812187     0.983692418295     1.007825032230
         H            0.828670319275    -2.042398187813    -0.743514581705     1.007825032230
         H           -2.373274680725     2.228405812187     0.203154418295     1.007825032230
         H           -1.250044680725    -2.558435187813    -0.138617581705     1.007825032230
         H           -4.174638680725     0.548819812187     0.381357418295     1.007825032230
         H           -3.606679680725    -1.885944187813     0.177053418295     1.007825032230

  Basis Set: AUG-CC-PVTZ
    Blend: AUG-CC-PVTZ
  Basis Set: (AUG-CC-PVTZ AUX)
    Blend: AUG-CC-PVTZ-JKFIT
	 Reference Energy          =    -514.5835457105412161 [Eh]
	 Singles Energy            =      -0.0000000000000000 [Eh]
	 Same-Spin Energy          =      -0.5576355629476699 [Eh]
	 Opposite-Spin Energy      =      -1.7433436374376790 [Eh]
	 Correlation Energy        =      -2.3009792003853491 [Eh]
	 Total Energy              =    -516.8845249109265296 [Eh]

	 ================> DF-SCS-MP2 Energies <==================
	-----------------------------------------------------------
	 SCS Same-Spin Scale       =       0.3333333333333333 [-]
	 SCS Opposite-Spin Scale   =       1.2000000000000000 [-]
	 SCS Same-Spin Energy      =      -0.1858785209825566 [Eh]
	 SCS Opposite-Spin Energy  =      -2.0920123649252145 [Eh]
	 SCS Correlation Energy    =      -2.2778908859077713 [Eh]
	 SCS Total Energy          =    -516.8614365964490389 [Eh]
	-----------------------------------------------------------

  Dipole Moment: [D]
     X:    -2.7160      Y:     2.0564      Z:     0.0333     Total:     3.4068

*** Psi4 exiting successfully. Buy a developer a beer!
