                               Psi4 1.3.2 release

  ==> Input File <==

--------------------------------------------------------------------------
#psi4
#
memory 32 gb

molecule  {
0 1
  O        3.0005300    -1.5493530     0.0754490
  N        0.8317470    -1.1153310    -0.4215630
  C        0.3106287     1.8423374    -0.2603747
  C        1.6857700     1.6448450    -0.3508570
  C       -0.7674710     0.7851500    -0.1025020
  C        2.1481850     0.6250380     0.6971500
  C       -0.4596220    -0.5879500    -0.1790540
  C        2.0510250    -0.7686880     0.1361100
  C       -2.1103850     1.1321340     0.1249900
  C       -1.4919760    -1.5397800    -0.0852490
  C       -3.1313420     0.1920050     0.2149350
  C       -2.8150140    -1.1632860     0.1069400
  H       -0.1141940     2.5504580    -1.1051150
  H        0.0480080     2.5950730     0.6372840
  H        1.9308140     1.2745600    -1.3520490
  H        2.2359360     2.5841340    -0.2253410
  H        1.5370720     0.7103830     1.6057590
  H        3.1934550     0.7649280     0.9813470
  H        0.8461440    -2.0798130    -0.7458600
  H       -2.3558010     2.1909910     0.2008090
  H       -1.2325710    -2.5958500    -0.1409630
  H       -4.1571650     0.5114050     0.3790120
  H       -3.5892060    -1.9233590     0.1747080
units angstrom
no_reorient  #important for SAPT in psi4, default
symmetry c1  #important for SAPT in psi4, default
}

set PROPERTIES_ORIGIN ["COM"]
properties('MP2/aug-cc-pvtz', properties = ['dipole'])
--------------------------------------------------------------------------

    Molecular point group: c1
  Charge       = 0
  Multiplicity = 1
  Basis Set: AUG-CC-PVTZ
    Blend: AUG-CC-PVTZ
  Basis Set: (AUG-CC-PVTZ AUX)
    Blend: AUG-CC-PVTZ-JKFIT

    Orbital Energies [Eh]
    ---------------------

    Doubly Occupied:

       1A    -20.526604     2A    -15.597148     3A    -11.358227
       4A    -11.294663     5A    -11.259607     6A    -11.256209
       7A    -11.247623     8A    -11.246118     9A    -11.244176
      10A    -11.243774    11A    -11.241617    12A    -11.238666
      13A     -1.381126    14A     -1.254588    15A     -1.152577
      16A     -1.121550    17A     -1.038768    18A     -1.018092
      19A     -0.964008    20A     -0.881404    21A     -0.844538
      22A     -0.802956    23A     -0.766466    24A     -0.722149
      25A     -0.685712    26A     -0.671734    27A     -0.651493
      28A     -0.630412    29A     -0.620905    30A     -0.603749
      31A     -0.598538    32A     -0.579639    33A     -0.562364
      34A     -0.543826    35A     -0.522412    36A     -0.515710
      37A     -0.510048    38A     -0.474103    39A     -0.468685
      40A     -0.435601    41A     -0.426471    42A     -0.337914
      43A     -0.314422

  @DF-RHF Final Energy:  -514.56422584566656

   => Energetics <=

    Nuclear Repulsion Energy =            677.1425337309796078
    One-Electron Energy =               -2041.7007374624031399
    Two-Electron Energy =                 849.9939778857568626
    Total Energy =                       -514.5642258456665559
  Basis Set: (AUG-CC-PVTZ AUX)
    Blend: AUG-CC-PVTZ-RI
    Molecular point group: c1

    Geometry (in Angstrom), charge = 0, multiplicity = 1:

       Center              X                  Y                   Z               Mass
    ------------   -----------------  -----------------  -----------------  -----------------
         O            2.981860603229    -1.500783669137     0.079537063675    15.994914619570
         N            0.813077603229    -1.066761669137    -0.417474936325    14.003074004430
         C            0.291959303229     1.890906730863    -0.256286636325    12.000000000000
         C            1.667100603229     1.693414330863    -0.346768936325    12.000000000000
         C           -0.786140396771     0.833719330863    -0.098413936325    12.000000000000
         C            2.129515603229     0.673607330863     0.701238063675    12.000000000000
         C           -0.478291396771    -0.539380669137    -0.174965936325    12.000000000000
         C            2.032355603229    -0.720118669137     0.140198063675    12.000000000000
         C           -2.129054396771     1.180703330863     0.129078063675    12.000000000000
         C           -1.510645396771    -1.491210669137    -0.081160936325    12.000000000000
         C           -3.150011396771     0.240574330863     0.219023063675    12.000000000000
         C           -2.833683396771    -1.114716669137     0.111028063675    12.000000000000
         H           -0.132863396771     2.599027330863    -1.101026936325     1.007825032230
         H            0.029338603229     2.643642330863     0.641372063675     1.007825032230
         H            1.912144603229     1.323129330863    -1.347960936325     1.007825032230
         H            2.217266603229     2.632703330863    -0.221252936325     1.007825032230
         H            1.518402603229     0.758952330863     1.609847063675     1.007825032230
         H            3.174785603229     0.813497330863     0.985435063675     1.007825032230
         H            0.827474603229    -2.031243669137    -0.741771936325     1.007825032230
         H           -2.374470396771     2.239560330863     0.204897063675     1.007825032230
         H           -1.251240396771    -2.547280669137    -0.136874936325     1.007825032230
         H           -4.175834396771     0.559974330863     0.383100063675     1.007825032230
         H           -3.607875396771    -1.874789669137     0.178796063675     1.007825032230

  Basis Set: AUG-CC-PVTZ
    Blend: AUG-CC-PVTZ
  Basis Set: (AUG-CC-PVTZ AUX)
    Blend: AUG-CC-PVTZ-JKFIT
	 Reference Energy          =    -514.5642258456665559 [Eh]
	 Singles Energy            =      -0.0000000000000000 [Eh]
	 Same-Spin Energy          =      -0.5600090512023097 [Eh]
	 Opposite-Spin Energy      =      -1.7460758405926446 [Eh]
	 Correlation Energy        =      -2.3060848917949546 [Eh]
	 Total Energy              =    -516.8703107374615229 [Eh]

	 ================> DF-SCS-MP2 Energies <==================
	-----------------------------------------------------------
	 SCS Same-Spin Scale       =       0.3333333333333333 [-]
	 SCS Opposite-Spin Scale   =       1.2000000000000000 [-]
	 SCS Same-Spin Energy      =      -0.1866696837341032 [Eh]
	 SCS Opposite-Spin Energy  =      -2.0952910087111736 [Eh]
	 SCS Correlation Energy    =      -2.2819606924452769 [Eh]
	 SCS Total Energy          =    -516.8461865381118514 [Eh]
	-----------------------------------------------------------

  Dipole Moment: [D]
     X:    -2.6295      Y:     2.0136      Z:     0.0141     Total:     3.3119

*** Psi4 exiting successfully. Buy a developer a beer!
