                               Psi4 1.3.2 release

  ==> Input File <==

--------------------------------------------------------------------------
#psi4
#
memory 32 gb

molecule  {
0 1
  O        3.0005300    -1.5493530     0.0754490
  N        0.8406677    -1.0923221    -0.4228378
  C        0.1960040     1.9504030    -0.2395030
  C        1.6857700     1.6448450    -0.3508570
  C       -0.7674710     0.7851500    -0.1025020
  C        2.1481850     0.6250380     0.6971500
  C       -0.4596220    -0.5879500    -0.1790540
  C        2.0510250    -0.7686880     0.1361100
  C       -2.1103850     1.1321340     0.1249900
  C       -1.4919760    -1.5397800    -0.0852490
  C       -3.1313420     0.1920050     0.2149350
  C       -2.8150140    -1.1632860     0.1069400
  H       -0.1141940     2.5504580    -1.1051150
  H        0.0480080     2.5950730     0.6372840
  H        1.9308140     1.2745600    -1.3520490
  H        2.2359360     2.5841340    -0.2253410
  H        1.5370720     0.7103830     1.6057590
  H        3.1934550     0.7649280     0.9813470
  H        0.8461440    -2.0798130    -0.7458600
  H       -2.3558010     2.1909910     0.2008090
  H       -1.2325710    -2.5958500    -0.1409630
  H       -4.1571650     0.5114050     0.3790120
  H       -3.5892060    -1.9233590     0.1747080
units angstrom
no_reorient  #important for SAPT in psi4, default
symmetry c1  #important for SAPT in psi4, default
}

set PROPERTIES_ORIGIN ["COM"]
properties('MP2/aug-cc-pvtz', properties = ['dipole'])
--------------------------------------------------------------------------

    Molecular point group: c1
  Charge       = 0
  Multiplicity = 1
  Basis Set: AUG-CC-PVTZ
    Blend: AUG-CC-PVTZ
  Basis Set: (AUG-CC-PVTZ AUX)
    Blend: AUG-CC-PVTZ-JKFIT

    Orbital Energies [Eh]
    ---------------------

    Doubly Occupied:

       1A    -20.524357     2A    -15.598227     3A    -11.355393
       4A    -11.298034     5A    -11.255374     6A    -11.247245
       7A    -11.245635     8A    -11.245263     9A    -11.244986
      10A    -11.241990    11A    -11.241294    12A    -11.240537
      13A     -1.379941    14A     -1.254098    15A     -1.152305
      16A     -1.101367    17A     -1.039340    18A     -1.017334
      19A     -0.956403    20A     -0.881574    21A     -0.843417
      22A     -0.809296    23A     -0.764458    24A     -0.720697
      25A     -0.680927    26A     -0.670998    27A     -0.645868
      28A     -0.629356    29A     -0.611290    30A     -0.603714
      31A     -0.600678    32A     -0.577729    33A     -0.563704
      34A     -0.542162    35A     -0.517762    36A     -0.511002
      37A     -0.498091    38A     -0.491459    39A     -0.482858
      40A     -0.435447    41A     -0.425267    42A     -0.341085
      43A     -0.316995

  @DF-RHF Final Energy:  -514.59307958312286

   => Energetics <=

    Nuclear Repulsion Energy =            675.3630555381784006
    One-Electron Energy =               -2038.3023607040147454
    Two-Electron Energy =                 848.3462255827133731
    Total Energy =                       -514.5930795831228579
  Basis Set: (AUG-CC-PVTZ AUX)
    Blend: AUG-CC-PVTZ-RI
    Molecular point group: c1

    Geometry (in Angstrom), charge = 0, multiplicity = 1:

       Center              X                  Y                   Z               Mass
    ------------   -----------------  -----------------  -----------------  -----------------
         O            2.989624122145    -1.510834213490     0.078093039509    15.994914619570
         N            0.829761822145    -1.053803313490    -0.420193760491    14.003074004430
         C            0.185098122145     1.988921786510    -0.236858960491    12.000000000000
         C            1.674864122145     1.683363786510    -0.348212960491    12.000000000000
         C           -0.778376877855     0.823668786510    -0.099857960491    12.000000000000
         C            2.137279122145     0.663556786510     0.699794039509    12.000000000000
         C           -0.470527877855    -0.549431213490    -0.176409960491    12.000000000000
         C            2.040119122145    -0.730169213490     0.138754039509    12.000000000000
         C           -2.121290877855     1.170652786510     0.127634039509    12.000000000000
         C           -1.502881877855    -1.501261213490    -0.082604960491    12.000000000000
         C           -3.142247877855     0.230523786510     0.217579039509    12.000000000000
         C           -2.825919877855    -1.124767213490     0.109584039509    12.000000000000
         H           -0.125099877855     2.588976786510    -1.102470960491     1.007825032230
         H            0.037102122145     2.633591786510     0.639928039509     1.007825032230
         H            1.919908122145     1.313078786510    -1.349404960491     1.007825032230
         H            2.225030122145     2.622652786510    -0.222696960491     1.007825032230
         H            1.526166122145     0.748901786510     1.608403039509     1.007825032230
         H            3.182549122145     0.803446786510     0.983991039509     1.007825032230
         H            0.835238122145    -2.041294213490    -0.743215960491     1.007825032230
         H           -2.366706877855     2.229509786510     0.203453039509     1.007825032230
         H           -1.243476877855    -2.557331213490    -0.138318960491     1.007825032230
         H           -4.168070877855     0.549923786510     0.381656039509     1.007825032230
         H           -3.600111877855    -1.884840213490     0.177352039509     1.007825032230

  Basis Set: AUG-CC-PVTZ
    Blend: AUG-CC-PVTZ
  Basis Set: (AUG-CC-PVTZ AUX)
    Blend: AUG-CC-PVTZ-JKFIT
	 Reference Energy          =    -514.5930795831228579 [Eh]
	 Singles Energy            =      -0.0000000000000000 [Eh]
	 Same-Spin Energy          =      -0.5581189314990950 [Eh]
	 Opposite-Spin Energy      =      -1.7434257113791303 [Eh]
	 Correlation Energy        =      -2.3015446428782251 [Eh]
	 Total Energy              =    -516.8946242260010422 [Eh]

	 ================> DF-SCS-MP2 Energies <==================
	-----------------------------------------------------------
	 SCS Same-Spin Scale       =       0.3333333333333333 [-]
	 SCS Opposite-Spin Scale   =       1.2000000000000000 [-]
	 SCS Same-Spin Energy      =      -0.1860396438330316 [Eh]
	 SCS Opposite-Spin Energy  =      -2.0921108536549564 [Eh]
	 SCS Correlation Energy    =      -2.2781504974879883 [Eh]
	 SCS Total Energy          =    -516.8712300806108715 [Eh]
	-----------------------------------------------------------

  Dipole Moment: [D]
     X:    -2.8330      Y:     2.0464      Z:     0.0305     Total:     3.4949

*** Psi4 exiting successfully. Buy a developer a beer!
