                               Psi4 1.3.2 release

  ==> Input File <==

--------------------------------------------------------------------------
#psi4
#
memory 32 gb

molecule  {
0 1
  O        3.0005300    -1.5493530     0.0754490
  N        0.8317470    -1.1153310    -0.4215630
  C        0.1960040     1.9504030    -0.2395030
  C        1.6857700     1.6448450    -0.3508570
  C       -0.7401175     0.7687119    -0.0601971
  C        2.1481850     0.6250380     0.6971500
  C       -0.4596220    -0.5879500    -0.1790540
  C        2.0510250    -0.7686880     0.1361100
  C       -2.1103850     1.1321340     0.1249900
  C       -1.4919760    -1.5397800    -0.0852490
  C       -3.1313420     0.1920050     0.2149350
  C       -2.8150140    -1.1632860     0.1069400
  H       -0.1141940     2.5504580    -1.1051150
  H        0.0480080     2.5950730     0.6372840
  H        1.9308140     1.2745600    -1.3520490
  H        2.2359360     2.5841340    -0.2253410
  H        1.5370720     0.7103830     1.6057590
  H        3.1934550     0.7649280     0.9813470
  H        0.8461440    -2.0798130    -0.7458600
  H       -2.3558010     2.1909910     0.2008090
  H       -1.2325710    -2.5958500    -0.1409630
  H       -4.1571650     0.5114050     0.3790120
  H       -3.5892060    -1.9233590     0.1747080
units angstrom
no_reorient  #important for SAPT in psi4, default
symmetry c1  #important for SAPT in psi4, default
}

set PROPERTIES_ORIGIN ["COM"]
properties('MP2/aug-cc-pvtz', properties = ['dipole'])
--------------------------------------------------------------------------

    Molecular point group: c1
  Charge       = 0
  Multiplicity = 1
  Basis Set: AUG-CC-PVTZ
    Blend: AUG-CC-PVTZ
  Basis Set: (AUG-CC-PVTZ AUX)
    Blend: AUG-CC-PVTZ-JKFIT

    Orbital Energies [Eh]
    ---------------------

    Doubly Occupied:

       1A    -20.525285     2A    -15.595400     3A    -11.356744
       4A    -11.295719     5A    -11.254877     6A    -11.247927
       7A    -11.247170     8A    -11.245349     9A    -11.244824
      10A    -11.242541    11A    -11.241434    12A    -11.239961
      13A     -1.379786    14A     -1.253482    15A     -1.150370
      16A     -1.101852    17A     -1.038661    18A     -1.015565
      19A     -0.957628    20A     -0.879953    21A     -0.844409
      22A     -0.808578    23A     -0.764312    24A     -0.721720
      25A     -0.681449    26A     -0.671198    27A     -0.645785
      28A     -0.629046    29A     -0.612392    30A     -0.602312
      31A     -0.601030    32A     -0.578119    33A     -0.564525
      34A     -0.541108    35A     -0.517599    36A     -0.510869
      37A     -0.497687    38A     -0.494611    39A     -0.480423
      40A     -0.435339    41A     -0.425656    42A     -0.338227
      43A     -0.318034

  @DF-RHF Final Energy:  -514.59296433161091

   => Energetics <=

    Nuclear Repulsion Energy =            675.2967990523698063
    One-Electron Energy =               -2038.1816100184312290
    Two-Electron Energy =                 848.2918466344505077
    Total Energy =                       -514.5929643316109150
  Basis Set: (AUG-CC-PVTZ AUX)
    Blend: AUG-CC-PVTZ-RI
    Molecular point group: c1

    Geometry (in Angstrom), charge = 0, multiplicity = 1:

       Center              X                  Y                   Z               Mass
    ------------   -----------------  -----------------  -----------------  -----------------
         O            2.988361894382    -1.507609484012     0.074830706130    15.994914619570
         N            0.819578894382    -1.073587484012    -0.422181293870    14.003074004430
         C            0.183835894382     1.992146515988    -0.240121293870    12.000000000000
         C            1.673601894382     1.686588515988    -0.351475293870    12.000000000000
         C           -0.752285605618     0.810455415988    -0.060815393870    12.000000000000
         C            2.136016894382     0.666781515988     0.696531706130    12.000000000000
         C           -0.471790105618    -0.546206484012    -0.179672293870    12.000000000000
         C            2.038856894382    -0.726944484012     0.135491706130    12.000000000000
         C           -2.122553105618     1.173877515988     0.124371706130    12.000000000000
         C           -1.504144105618    -1.498036484012    -0.085867293870    12.000000000000
         C           -3.143510105618     0.233748515988     0.214316706130    12.000000000000
         C           -2.827182105618    -1.121542484012     0.106321706130    12.000000000000
         H           -0.126362105618     2.592201515988    -1.105733293870     1.007825032230
         H            0.035839894382     2.636816515988     0.636665706130     1.007825032230
         H            1.918645894382     1.316303515988    -1.352667293870     1.007825032230
         H            2.223767894382     2.625877515988    -0.225959293870     1.007825032230
         H            1.524903894382     0.752126515988     1.605140706130     1.007825032230
         H            3.181286894382     0.806671515988     0.980728706130     1.007825032230
         H            0.833975894382    -2.038069484012    -0.746478293870     1.007825032230
         H           -2.367969105618     2.232734515988     0.200190706130     1.007825032230
         H           -1.244739105618    -2.554106484012    -0.141581293870     1.007825032230
         H           -4.169333105618     0.553148515988     0.378393706130     1.007825032230
         H           -3.601374105618    -1.881615484012     0.174089706130     1.007825032230

  Basis Set: AUG-CC-PVTZ
    Blend: AUG-CC-PVTZ
  Basis Set: (AUG-CC-PVTZ AUX)
    Blend: AUG-CC-PVTZ-JKFIT
	 Reference Energy          =    -514.5929643316109150 [Eh]
	 Singles Energy            =      -0.0000000000000000 [Eh]
	 Same-Spin Energy          =      -0.5578684066231260 [Eh]
	 Opposite-Spin Energy      =      -1.7432913143579027 [Eh]
	 Correlation Energy        =      -2.3011597209810288 [Eh]
	 Total Energy              =    -516.8941240525919056 [Eh]

	 ================> DF-SCS-MP2 Energies <==================
	-----------------------------------------------------------
	 SCS Same-Spin Scale       =       0.3333333333333333 [-]
	 SCS Opposite-Spin Scale   =       1.2000000000000000 [-]
	 SCS Same-Spin Energy      =      -0.1859561355410420 [Eh]
	 SCS Opposite-Spin Energy  =      -2.0919495772294834 [Eh]
	 SCS Correlation Energy    =      -2.2779057127705253 [Eh]
	 SCS Total Energy          =    -516.8708700443814905 [Eh]
	-----------------------------------------------------------

  Dipole Moment: [D]
     X:    -2.7775      Y:     2.0605      Z:     0.0227     Total:     3.4584

*** Psi4 exiting successfully. Buy a developer a beer!
