                               Psi4 1.4a3.dev225

  ==> Input File <==

--------------------------------------------------------------------------
#psi4
#
memory 32 gb

molecule  {
0 1
  O        3.0005300    -1.5493530     0.0754490
  N        0.8317470    -1.1153310    -0.4215630
  C        0.1960040     1.9504030    -0.2395030
  C        1.6857700     1.6448450    -0.3508570
  C       -0.7674710     0.7851500    -0.1025020
  C        2.1481850     0.6250380     0.6971500
  C       -0.4596220    -0.5879500    -0.1790540
  C        2.0510250    -0.7686880     0.1361100
  C       -2.1103850     1.1321340     0.1249900
  C       -1.4919760    -1.5397800    -0.0852490
  C       -3.1313420     0.1920050     0.2149350
  C       -2.8150140    -1.1632860     0.1069400
  H       -0.1000682     2.5231327    -1.0656968
  H        0.0480080     2.5950730     0.6372840
  H        1.9308140     1.2745600    -1.3520490
  H        2.2359360     2.5841340    -0.2253410
  H        1.5370720     0.7103830     1.6057590
  H        3.1934550     0.7649280     0.9813470
  H        0.8461440    -2.0798130    -0.7458600
  H       -2.3558010     2.1909910     0.2008090
  H       -1.2325710    -2.5958500    -0.1409630
  H       -4.1571650     0.5114050     0.3790120
  H       -3.5892060    -1.9233590     0.1747080
units angstrom
no_reorient  #important for SAPT in psi4, default
symmetry c1  #important for SAPT in psi4, default
}

set PROPERTIES_ORIGIN ["COM"]
properties('MP2/aug-cc-pvtz', properties = ['dipole'])
--------------------------------------------------------------------------

    Molecular point group: c1
  Charge       = 0
  Multiplicity = 1
  Basis Set: AUG-CC-PVTZ
    Blend: AUG-CC-PVTZ
  Basis Set: (AUG-CC-PVTZ AUX)
    Blend: AUG-CC-PVTZ-JKFIT

    Orbital Energies [Eh]
    ---------------------

    Doubly Occupied:

       1A    -20.525459     2A    -15.595957     3A    -11.356781
       4A    -11.297103     5A    -11.254913     6A    -11.246359
       7A    -11.244971     8A    -11.244356     9A    -11.242574
      10A    -11.241860    11A    -11.239808    12A    -11.238796
      13A     -1.379897    14A     -1.252856    15A     -1.151584
      16A     -1.102656    17A     -1.039114    18A     -1.016054
      19A     -0.959256    20A     -0.880789    21A     -0.842745
      22A     -0.810138    23A     -0.766167    24A     -0.721722
      25A     -0.682540    26A     -0.671556    27A     -0.646182
      28A     -0.628882    29A     -0.615455    30A     -0.603412
      31A     -0.600968    32A     -0.578651    33A     -0.565026
      34A     -0.541972    35A     -0.517857    36A     -0.510635
      37A     -0.498155    38A     -0.494272    39A     -0.482491
      40A     -0.435219    41A     -0.425786    42A     -0.340793
      43A     -0.315943

  @DF-RHF Final Energy:  -514.59358060967179

   => Energetics <=

    Nuclear Repulsion Energy =            675.3365261852975436
    One-Electron Energy =               -2038.2447919002595427
    Two-Electron Energy =                 848.3146851052902093
    Total Energy =                       -514.5935806096717897
  Basis Set: (AUG-CC-PVTZ AUX)
    Blend: AUG-CC-PVTZ-RI
    Molecular point group: c1

    Geometry (in Angstrom), charge = 0, multiplicity = 1:

       Center              X                  Y                   Z               Mass
    ------------   -----------------  -----------------  -----------------  -----------------
         O            2.990311222313    -1.508663083446     0.077735600256    15.994914619570
         N            0.821528222313    -1.074641083446    -0.419276399744    14.003074004430
         C            0.185785222313     1.991092916554    -0.237216399744    12.000000000000
         C            1.675551222313     1.685534916554    -0.348570399744    12.000000000000
         C           -0.777689777687     0.825839916554    -0.100215399744    12.000000000000
         C            2.137966222313     0.665727916554     0.699436600256    12.000000000000
         C           -0.469840777687    -0.547260083446    -0.176767399744    12.000000000000
         C            2.040806222313    -0.727998083446     0.138396600256    12.000000000000
         C           -2.120603777687     1.172823916554     0.127276600256    12.000000000000
         C           -1.502194777687    -1.499090083446    -0.082962399744    12.000000000000
         C           -3.141560777687     0.232694916554     0.217221600256    12.000000000000
         C           -2.825232777687    -1.122596083446     0.109226600256    12.000000000000
         H           -0.110286977687     2.563822616554    -1.063410199744     1.007825032230
         H            0.037789222313     2.635762916554     0.639570600256     1.007825032230
         H            1.920595222313     1.315249916554    -1.349762399744     1.007825032230
         H            2.225717222313     2.624823916554    -0.223054399744     1.007825032230
         H            1.526853222313     0.751072916554     1.608045600256     1.007825032230
         H            3.183236222313     0.805617916554     0.983633600256     1.007825032230
         H            0.835925222313    -2.039123083446    -0.743573399744     1.007825032230
         H           -2.366019777687     2.231680916554     0.203095600256     1.007825032230
         H           -1.242789777687    -2.555160083446    -0.138676399744     1.007825032230
         H           -4.167383777687     0.552094916554     0.381298600256     1.007825032230
         H           -3.599424777687    -1.882669083446     0.176994600256     1.007825032230

  Basis Set: AUG-CC-PVTZ
    Blend: AUG-CC-PVTZ
  Basis Set: (AUG-CC-PVTZ AUX)
    Blend: AUG-CC-PVTZ-JKFIT
	 Reference Energy          =    -514.5935806096717897 [Eh]
	 Singles Energy            =      -0.0000000000000000 [Eh]
	 Same-Spin Energy          =      -0.5578352139573193 [Eh]
	 Opposite-Spin Energy      =      -1.7427074675179104 [Eh]
	 Correlation Energy        =      -2.3005426814752297 [Eh]
	 Total Energy              =    -516.8941232911470252 [Eh]

	 ================> DF-SCS-MP2 Energies <==================
	-----------------------------------------------------------
	 SCS Same-Spin Scale       =       0.3333333333333333 [-]
	 SCS Opposite-Spin Scale   =       1.2000000000000000 [-]
	 SCS Same-Spin Energy      =      -0.1859450713191064 [Eh]
	 SCS Opposite-Spin Energy  =      -2.0912489610214924 [Eh]
	 SCS Correlation Energy    =      -2.2771940323405988 [Eh]
	 SCS Total Energy          =    -516.8707746420124067 [Eh]
	-----------------------------------------------------------

  Dipole Moment: [D]
     X:    -2.7480      Y:     2.0823      Z:     0.0211     Total:     3.4479

*** Psi4 exiting successfully. Buy a developer a beer!
