                               Psi4 1.3.2 release

  ==> Input File <==

--------------------------------------------------------------------------
#psi4
#
memory 32 gb

molecule  {
0 1
  O        3.0005300    -1.5493530     0.0754490
  N        0.8317470    -1.1153310    -0.4215630
  C        0.1960040     1.9504030    -0.2395030
  C        1.6857700     1.6448450    -0.3508570
  C       -0.7674710     0.7851500    -0.1025020
  C        2.1481850     0.6250380     0.6971500
  C       -0.4596220    -0.5879500    -0.1790540
  C        2.2053254    -0.8955509     0.1262522
  C       -2.1103850     1.1321340     0.1249900
  C       -1.4919760    -1.5397800    -0.0852490
  C       -3.1313420     0.1920050     0.2149350
  C       -2.8150140    -1.1632860     0.1069400
  H       -0.1141940     2.5504580    -1.1051150
  H        0.0480080     2.5950730     0.6372840
  H        1.9308140     1.2745600    -1.3520490
  H        2.2359360     2.5841340    -0.2253410
  H        1.5370720     0.7103830     1.6057590
  H        3.1934550     0.7649280     0.9813470
  H        0.8461440    -2.0798130    -0.7458600
  H       -2.3558010     2.1909910     0.2008090
  H       -1.2325710    -2.5958500    -0.1409630
  H       -4.1571650     0.5114050     0.3790120
  H       -3.5892060    -1.9233590     0.1747080
units angstrom
no_reorient  #important for SAPT in psi4, default
symmetry c1  #important for SAPT in psi4, default
}

set PROPERTIES_ORIGIN ["COM"]
properties('MP2/aug-cc-pvtz', properties = ['dipole'])
--------------------------------------------------------------------------

    Molecular point group: c1
  Charge       = 0
  Multiplicity = 1
  Basis Set: AUG-CC-PVTZ
    Blend: AUG-CC-PVTZ
  Basis Set: (AUG-CC-PVTZ AUX)
    Blend: AUG-CC-PVTZ-JKFIT

    Orbital Energies [Eh]
    ---------------------

    Doubly Occupied:

       1A    -20.567437     2A    -15.567015     3A    -11.350986
       4A    -11.287448     5A    -11.242950     6A    -11.236919
       7A    -11.236096     8A    -11.235605     9A    -11.235557
      10A    -11.234075    11A    -11.232856    12A    -11.229120
      13A     -1.546343    14A     -1.226728    15A     -1.136238
      16A     -1.086784    17A     -1.022751    18A     -1.000736
      19A     -0.938898    20A     -0.861428    21A     -0.831410
      22A     -0.796510    23A     -0.754874    24A     -0.718306
      25A     -0.703659    26A     -0.677888    27A     -0.664581
      28A     -0.645494    29A     -0.627577    30A     -0.607667
      31A     -0.600839    32A     -0.585662    33A     -0.570969
      34A     -0.538402    35A     -0.520880    36A     -0.511137
      37A     -0.494301    38A     -0.481318    39A     -0.477780
      40A     -0.435436    41A     -0.403957    42A     -0.330785
      43A     -0.300966

  @DF-RHF Final Energy:  -514.51836847665334

   => Energetics <=

    Nuclear Repulsion Energy =            674.5159084224483195
    One-Electron Energy =               -2036.5558181182930184
    Two-Electron Energy =                 847.5215412191913629
    Total Energy =                       -514.5183684766533361
  Basis Set: (AUG-CC-PVTZ AUX)
    Blend: AUG-CC-PVTZ-RI
    Molecular point group: c1

    Geometry (in Angstrom), charge = 0, multiplicity = 1:

       Center              X                  Y                   Z               Mass
    ------------   -----------------  -----------------  -----------------  -----------------
         O            2.978904951452    -1.499383359296     0.078716580278    15.994914619570
         N            0.810121951452    -1.065361359296    -0.418295419722    14.003074004430
         C            0.174378951452     2.000372640704    -0.236235419722    12.000000000000
         C            1.664144951452     1.694814640704    -0.347589419722    12.000000000000
         C           -0.789096048548     0.835119640704    -0.099234419722    12.000000000000
         C            2.126559951452     0.675007640704     0.700417580278    12.000000000000
         C           -0.481247048548    -0.537980359296    -0.175786419722    12.000000000000
         C            2.183700351452    -0.845581259296     0.129519780278    12.000000000000
         C           -2.132010048548     1.182103640704     0.128257580278    12.000000000000
         C           -1.513601048548    -1.489810359296    -0.081981419722    12.000000000000
         C           -3.152967048548     0.241974640704     0.218202580278    12.000000000000
         C           -2.836639048548    -1.113316359296     0.110207580278    12.000000000000
         H           -0.135819048548     2.600427640704    -1.101847419722     1.007825032230
         H            0.026382951452     2.645042640704     0.640551580278     1.007825032230
         H            1.909188951452     1.324529640704    -1.348781419722     1.007825032230
         H            2.214310951452     2.634103640704    -0.222073419722     1.007825032230
         H            1.515446951452     0.760352640704     1.609026580278     1.007825032230
         H            3.171829951452     0.814897640704     0.984614580278     1.007825032230
         H            0.824518951452    -2.029843359296    -0.742592419722     1.007825032230
         H           -2.377426048548     2.240960640704     0.204076580278     1.007825032230
         H           -1.254196048548    -2.545880359296    -0.137695419722     1.007825032230
         H           -4.178790048548     0.561374640704     0.382279580278     1.007825032230
         H           -3.610831048548    -1.873389359296     0.177975580278     1.007825032230

  Basis Set: AUG-CC-PVTZ
    Blend: AUG-CC-PVTZ
  Basis Set: (AUG-CC-PVTZ AUX)
    Blend: AUG-CC-PVTZ-JKFIT
	 Reference Energy          =    -514.5183684766533361 [Eh]
	 Singles Energy            =      -0.0000000000000000 [Eh]
	 Same-Spin Energy          =      -0.5544613877608739 [Eh]
	 Opposite-Spin Energy      =      -1.7362603037231916 [Eh]
	 Correlation Energy        =      -2.2907216914840656 [Eh]
	 Total Energy              =    -516.8090901681373452 [Eh]

	 ================> DF-SCS-MP2 Energies <==================
	-----------------------------------------------------------
	 SCS Same-Spin Scale       =       0.3333333333333333 [-]
	 SCS Opposite-Spin Scale   =       1.2000000000000000 [-]
	 SCS Same-Spin Energy      =      -0.1848204625869580 [Eh]
	 SCS Opposite-Spin Energy  =      -2.0835123644678299 [Eh]
	 SCS Correlation Energy    =      -2.2683328270547878 [Eh]
	 SCS Total Energy          =    -516.7867013037081279 [Eh]
	-----------------------------------------------------------

  Dipole Moment: [D]
     X:    -0.7788      Y:     1.0665      Z:     0.1485     Total:     1.3290

*** Psi4 exiting successfully. Buy a developer a beer!
