                               Psi4 1.3.2 release

  ==> Input File <==

--------------------------------------------------------------------------
#psi4
#
memory 32 gb

molecule  {
0 1
  O        3.0131313    -1.5344247     0.0843786
  N        0.8317470    -1.1153310    -0.4215630
  C        0.1960040     1.9504030    -0.2395030
  C        1.6857700     1.6448450    -0.3508570
  C       -0.7674710     0.7851500    -0.1025020
  C        2.1481850     0.6250380     0.6971500
  C       -0.4596220    -0.5879500    -0.1790540
  C        2.0510250    -0.7686880     0.1361100
  C       -2.1103850     1.1321340     0.1249900
  C       -1.4919760    -1.5397800    -0.0852490
  C       -3.1313420     0.1920050     0.2149350
  C       -2.8150140    -1.1632860     0.1069400
  H       -0.1141940     2.5504580    -1.1051150
  H        0.0480080     2.5950730     0.6372840
  H        1.9308140     1.2745600    -1.3520490
  H        2.2359360     2.5841340    -0.2253410
  H        1.5370720     0.7103830     1.6057590
  H        3.1934550     0.7649280     0.9813470
  H        0.8461440    -2.0798130    -0.7458600
  H       -2.3558010     2.1909910     0.2008090
  H       -1.2325710    -2.5958500    -0.1409630
  H       -4.1571650     0.5114050     0.3790120
  H       -3.5892060    -1.9233590     0.1747080
units angstrom
no_reorient  #important for SAPT in psi4, default
symmetry c1  #important for SAPT in psi4, default
}

set PROPERTIES_ORIGIN ["COM"]
properties('MP2/aug-cc-pvtz', properties = ['dipole'])
--------------------------------------------------------------------------

    Molecular point group: c1
  Charge       = 0
  Multiplicity = 1
  Basis Set: AUG-CC-PVTZ
    Blend: AUG-CC-PVTZ
  Basis Set: (AUG-CC-PVTZ AUX)
    Blend: AUG-CC-PVTZ-JKFIT

    Orbital Energies [Eh]
    ---------------------

    Doubly Occupied:

       1A    -20.525775     2A    -15.597175     3A    -11.356883
       4A    -11.297773     5A    -11.255475     6A    -11.246704
       7A    -11.245202     8A    -11.244836     9A    -11.244792
      10A    -11.242018    11A    -11.241388    12A    -11.240124
      13A     -1.379708    14A     -1.254042    15A     -1.151894
      16A     -1.101427    17A     -1.038745    18A     -1.016487
      19A     -0.956857    20A     -0.880528    21A     -0.843138
      22A     -0.808770    23A     -0.765736    24A     -0.722024
      25A     -0.681613    26A     -0.671171    27A     -0.646094
      28A     -0.629158    29A     -0.611350    30A     -0.603141
      31A     -0.600784    32A     -0.578759    33A     -0.564651
      34A     -0.541971    35A     -0.517856    36A     -0.510561
      37A     -0.498180    38A     -0.491743    39A     -0.482592
      40A     -0.435856    41A     -0.425227    42A     -0.340743
      43A     -0.316475

  @DF-RHF Final Energy:  -514.59428748879827

   => Energetics <=

    Nuclear Repulsion Energy =            675.0177288634516799
    One-Electron Energy =               -2037.6131810314607264
    Two-Electron Energy =                 848.0011646792108877
    Total Energy =                       -514.5942874887982725
  Basis Set: (AUG-CC-PVTZ AUX)
    Blend: AUG-CC-PVTZ-RI
    Molecular point group: c1

    Geometry (in Angstrom), charge = 0, multiplicity = 1:

       Center              X                  Y                   Z               Mass
    ------------   -----------------  -----------------  -----------------  -----------------
         O            3.001749648853    -1.495388056890     0.086025152207    15.994914619570
         N            0.820365348853    -1.076294356890    -0.419916447793    14.003074004430
         C            0.184622348853     1.989439643110    -0.237856447793    12.000000000000
         C            1.674388348853     1.683881643110    -0.349210447793    12.000000000000
         C           -0.778852651147     0.824186643110    -0.100855447793    12.000000000000
         C            2.136803348853     0.664074643110     0.698796552207    12.000000000000
         C           -0.471003651147    -0.548913356890    -0.177407447793    12.000000000000
         C            2.039643348853    -0.729651356890     0.137756552207    12.000000000000
         C           -2.121766651147     1.171170643110     0.126636552207    12.000000000000
         C           -1.503357651147    -1.500743356890    -0.083602447793    12.000000000000
         C           -3.142723651147     0.231041643110     0.216581552207    12.000000000000
         C           -2.826395651147    -1.124249356890     0.108586552207    12.000000000000
         H           -0.125575651147     2.589494643110    -1.103468447793     1.007825032230
         H            0.036626348853     2.634109643110     0.638930552207     1.007825032230
         H            1.919432348853     1.313596643110    -1.350402447793     1.007825032230
         H            2.224554348853     2.623170643110    -0.223694447793     1.007825032230
         H            1.525690348853     0.749419643110     1.607405552207     1.007825032230
         H            3.182073348853     0.803964643110     0.982993552207     1.007825032230
         H            0.834762348853    -2.040776356890    -0.744213447793     1.007825032230
         H           -2.367182651147     2.230027643110     0.202455552207     1.007825032230
         H           -1.243952651147    -2.556813356890    -0.139316447793     1.007825032230
         H           -4.168546651147     0.550441643110     0.380658552207     1.007825032230
         H           -3.600587651147    -1.884322356890     0.176354552207     1.007825032230

  Basis Set: AUG-CC-PVTZ
    Blend: AUG-CC-PVTZ
  Basis Set: (AUG-CC-PVTZ AUX)
    Blend: AUG-CC-PVTZ-JKFIT
	 Reference Energy          =    -514.5942874887982725 [Eh]
	 Singles Energy            =      -0.0000000000000000 [Eh]
	 Same-Spin Energy          =      -0.5578738560896928 [Eh]
	 Opposite-Spin Energy      =      -1.7430732744405795 [Eh]
	 Correlation Energy        =      -2.3009471305302722 [Eh]
	 Total Energy              =    -516.8952346193285621 [Eh]

	 ================> DF-SCS-MP2 Energies <==================
	-----------------------------------------------------------
	 SCS Same-Spin Scale       =       0.3333333333333333 [-]
	 SCS Opposite-Spin Scale   =       1.2000000000000000 [-]
	 SCS Same-Spin Energy      =      -0.1859579520298976 [Eh]
	 SCS Opposite-Spin Energy  =      -2.0916879293286952 [Eh]
	 SCS Correlation Energy    =      -2.2776458813585929 [Eh]
	 SCS Total Energy          =    -516.8719333701568530 [Eh]
	-----------------------------------------------------------

  Dipole Moment: [D]
     X:    -2.7840      Y:     2.0226      Z:     0.0141     Total:     3.4412

*** Psi4 exiting successfully. Buy a developer a beer!
