                               Psi4 1.3.2 release

  ==> Input File <==

--------------------------------------------------------------------------
#psi4
#
memory 32 gb

molecule  {
0 1
  O        3.0005300    -1.5493530     0.0754490
  N        0.8317470    -1.1153310    -0.4215630
  C        0.1960040     1.9504030    -0.2395030
  C        1.6857700     1.6448450    -0.3508570
  C       -0.7674710     0.7851500    -0.1025020
  C        2.1481850     0.6250380     0.6971500
  C       -0.4184026    -0.5263222    -0.1137159
  C        2.0510250    -0.7686880     0.1361100
  C       -2.1103850     1.1321340     0.1249900
  C       -1.4919760    -1.5397800    -0.0852490
  C       -3.1313420     0.1920050     0.2149350
  C       -2.8150140    -1.1632860     0.1069400
  H       -0.1141940     2.5504580    -1.1051150
  H        0.0480080     2.5950730     0.6372840
  H        1.9308140     1.2745600    -1.3520490
  H        2.2359360     2.5841340    -0.2253410
  H        1.5370720     0.7103830     1.6057590
  H        3.1934550     0.7649280     0.9813470
  H        0.8461440    -2.0798130    -0.7458600
  H       -2.3558010     2.1909910     0.2008090
  H       -1.2325710    -2.5958500    -0.1409630
  H       -4.1571650     0.5114050     0.3790120
  H       -3.5892060    -1.9233590     0.1747080
units angstrom
no_reorient  #important for SAPT in psi4, default
symmetry c1  #important for SAPT in psi4, default
}

set PROPERTIES_ORIGIN ["COM"]
properties('MP2/aug-cc-pvtz', properties = ['dipole'])
--------------------------------------------------------------------------

    Molecular point group: c1
  Charge       = 0
  Multiplicity = 1
  Basis Set: AUG-CC-PVTZ
    Blend: AUG-CC-PVTZ
  Basis Set: (AUG-CC-PVTZ AUX)
    Blend: AUG-CC-PVTZ-JKFIT

    Orbital Energies [Eh]
    ---------------------

    Doubly Occupied:

       1A    -20.524936     2A    -15.597166     3A    -11.354776
       4A    -11.297157     5A    -11.251351     6A    -11.249702
       7A    -11.245948     8A    -11.245807     9A    -11.243559
      10A    -11.242766    11A    -11.242011    12A    -11.240757
      13A     -1.379725    14A     -1.253390    15A     -1.152411
      16A     -1.100691    17A     -1.042494    18A     -1.008433
      19A     -0.959301    20A     -0.877511    21A     -0.847787
      22A     -0.808293    23A     -0.761904    24A     -0.722295
      25A     -0.681864    26A     -0.675555    27A     -0.645832
      28A     -0.628571    29A     -0.610391    30A     -0.601796
      31A     -0.595414    32A     -0.581975    33A     -0.564369
      34A     -0.541645    35A     -0.521676    36A     -0.510100
      37A     -0.497930    38A     -0.490120    39A     -0.478382
      40A     -0.435372    41A     -0.424646    42A     -0.341173
      43A     -0.316512

  @DF-RHF Final Energy:  -514.58612565831527

   => Energetics <=

    Nuclear Repulsion Energy =            675.5459166756434115
    One-Electron Energy =               -2038.6771005095426972
    Two-Electron Energy =                 848.5450581755840176
    Total Energy =                       -514.5861256583152681
  Basis Set: (AUG-CC-PVTZ AUX)
    Blend: AUG-CC-PVTZ-RI
    Molecular point group: c1

    Geometry (in Angstrom), charge = 0, multiplicity = 1:

       Center              X                  Y                   Z               Mass
    ------------   -----------------  -----------------  -----------------  -----------------
         O            2.987328950490    -1.513425023904     0.073114841797    15.994914619570
         N            0.818545950490    -1.079403023904    -0.423897158203    14.003074004430
         C            0.182802950490     1.986330976096    -0.241837158203    12.000000000000
         C            1.672568950490     1.680772976096    -0.353191158203    12.000000000000
         C           -0.780672049510     0.821077976096    -0.104836158203    12.000000000000
         C            2.134983950490     0.660965976096     0.694815841797    12.000000000000
         C           -0.431603649510    -0.490394223904    -0.116050058203    12.000000000000
         C            2.037823950490    -0.732760023904     0.133775841797    12.000000000000
         C           -2.123586049510     1.168061976096     0.122655841797    12.000000000000
         C           -1.505177049510    -1.503852023904    -0.087583158203    12.000000000000
         C           -3.144543049510     0.227932976096     0.212600841797    12.000000000000
         C           -2.828215049510    -1.127358023904     0.104605841797    12.000000000000
         H           -0.127395049510     2.586385976096    -1.107449158203     1.007825032230
         H            0.034806950490     2.631000976096     0.634949841797     1.007825032230
         H            1.917612950490     1.310487976096    -1.354383158203     1.007825032230
         H            2.222734950490     2.620061976096    -0.227675158203     1.007825032230
         H            1.523870950490     0.746310976096     1.603424841797     1.007825032230
         H            3.180253950490     0.800855976096     0.979012841797     1.007825032230
         H            0.832942950490    -2.043885023904    -0.748194158203     1.007825032230
         H           -2.369002049510     2.226918976096     0.198474841797     1.007825032230
         H           -1.245772049510    -2.559922023904    -0.143297158203     1.007825032230
         H           -4.170366049510     0.547332976096     0.376677841797     1.007825032230
         H           -3.602407049510    -1.887431023904     0.172373841797     1.007825032230

  Basis Set: AUG-CC-PVTZ
    Blend: AUG-CC-PVTZ
  Basis Set: (AUG-CC-PVTZ AUX)
    Blend: AUG-CC-PVTZ-JKFIT
	 Reference Energy          =    -514.5861256583152681 [Eh]
	 Singles Energy            =      -0.0000000000000000 [Eh]
	 Same-Spin Energy          =      -0.5576569661057242 [Eh]
	 Opposite-Spin Energy      =      -1.7435647588738838 [Eh]
	 Correlation Energy        =      -2.3012217249796079 [Eh]
	 Total Energy              =    -516.8873473832949230 [Eh]

	 ================> DF-SCS-MP2 Energies <==================
	-----------------------------------------------------------
	 SCS Same-Spin Scale       =       0.3333333333333333 [-]
	 SCS Opposite-Spin Scale   =       1.2000000000000000 [-]
	 SCS Same-Spin Energy      =      -0.1858856553685747 [Eh]
	 SCS Opposite-Spin Energy  =      -2.0922777106486605 [Eh]
	 SCS Correlation Energy    =      -2.2781633660172353 [Eh]
	 SCS Total Energy          =    -516.8642890243324928 [Eh]
	-----------------------------------------------------------

  Dipole Moment: [D]
     X:    -2.7565      Y:     2.0444      Z:     0.0277     Total:     3.4321

*** Psi4 exiting successfully. Buy a developer a beer!
