                               Psi4 1.3.2 release

  ==> Input File <==

--------------------------------------------------------------------------
#psi4
#
memory 32 gb

molecule  {
0 1
  O        3.0005300    -1.5493530     0.0754490
  N        0.8317470    -1.1153310    -0.4215630
  C        0.1960040     1.9504030    -0.2395030
  C        1.6857700     1.6448450    -0.3508570
  C       -0.7674710     0.7851500    -0.1025020
  C        2.1481850     0.6250380     0.6971500
  C       -0.4966880    -0.6753529    -0.2064936
  C        2.0510250    -0.7686880     0.1361100
  C       -2.1103850     1.1321340     0.1249900
  C       -1.4919760    -1.5397800    -0.0852490
  C       -3.1313420     0.1920050     0.2149350
  C       -2.8150140    -1.1632860     0.1069400
  H       -0.1141940     2.5504580    -1.1051150
  H        0.0480080     2.5950730     0.6372840
  H        1.9308140     1.2745600    -1.3520490
  H        2.2359360     2.5841340    -0.2253410
  H        1.5370720     0.7103830     1.6057590
  H        3.1934550     0.7649280     0.9813470
  H        0.8461440    -2.0798130    -0.7458600
  H       -2.3558010     2.1909910     0.2008090
  H       -1.2325710    -2.5958500    -0.1409630
  H       -4.1571650     0.5114050     0.3790120
  H       -3.5892060    -1.9233590     0.1747080
units angstrom
no_reorient  #important for SAPT in psi4, default
symmetry c1  #important for SAPT in psi4, default
}

set PROPERTIES_ORIGIN ["COM"]
properties('MP2/aug-cc-pvtz', properties = ['dipole'])
--------------------------------------------------------------------------

    Molecular point group: c1
  Charge       = 0
  Multiplicity = 1
  Basis Set: AUG-CC-PVTZ
    Blend: AUG-CC-PVTZ
  Basis Set: (AUG-CC-PVTZ AUX)
    Blend: AUG-CC-PVTZ-JKFIT

    Orbital Energies [Eh]
    ---------------------

    Doubly Occupied:

       1A    -20.526749     2A    -15.594926     3A    -11.359321
       4A    -11.295985     5A    -11.262503     6A    -11.246422
       7A    -11.246136     8A    -11.243116     9A    -11.243086
      10A    -11.242254    11A    -11.239827    12A    -11.235076
      13A     -1.380749    14A     -1.253112    15A     -1.151346
      16A     -1.103567    17A     -1.035637    18A     -1.026094
      19A     -0.954299    20A     -0.883254    21A     -0.835370
      22A     -0.807479    23A     -0.772869    24A     -0.720317
      25A     -0.681770    26A     -0.667927    27A     -0.646956
      28A     -0.628510    29A     -0.611691    30A     -0.606983
      31A     -0.601536    32A     -0.574656    33A     -0.564349
      34A     -0.543225    35A     -0.514871    36A     -0.510349
      37A     -0.499438    38A     -0.487984    39A     -0.485277
      40A     -0.435710    41A     -0.427130    42A     -0.345306
      43A     -0.312026

  @DF-RHF Final Energy:  -514.58262855654027

   => Energetics <=

    Nuclear Repulsion Energy =            674.5085269717912979
    One-Electron Energy =               -2036.5719281251301709
    Two-Electron Energy =                 847.4807725967986016
    Total Energy =                       -514.5826285565402713
  Basis Set: (AUG-CC-PVTZ AUX)
    Blend: AUG-CC-PVTZ-RI
    Molecular point group: c1

    Geometry (in Angstrom), charge = 0, multiplicity = 1:

       Center              X                  Y                   Z               Mass
    ------------   -----------------  -----------------  -----------------  -----------------
         O            2.993160842092    -1.502322942445     0.080026341125    15.994914619570
         N            0.824377842092    -1.068300942445    -0.416985658875    14.003074004430
         C            0.188634842092     1.997433057555    -0.234925658875    12.000000000000
         C            1.678400842092     1.691875057555    -0.346279658875    12.000000000000
         C           -0.774840157908     0.832180057555    -0.097924658875    12.000000000000
         C            2.140815842092     0.672068057555     0.701727341125    12.000000000000
         C           -0.504057157908    -0.628322842445    -0.201916258875    12.000000000000
         C            2.043655842092    -0.721657942445     0.140687341125    12.000000000000
         C           -2.117754157908     1.179164057555     0.129567341125    12.000000000000
         C           -1.499345157908    -1.492749942445    -0.080671658875    12.000000000000
         C           -3.138711157908     0.239035057555     0.219512341125    12.000000000000
         C           -2.822383157908    -1.116255942445     0.111517341125    12.000000000000
         H           -0.121563157908     2.597488057555    -1.100537658875     1.007825032230
         H            0.040638842092     2.642103057555     0.641861341125     1.007825032230
         H            1.923444842092     1.321590057555    -1.347471658875     1.007825032230
         H            2.228566842092     2.631164057555    -0.220763658875     1.007825032230
         H            1.529702842092     0.757413057555     1.610336341125     1.007825032230
         H            3.186085842092     0.811958057555     0.985924341125     1.007825032230
         H            0.838774842092    -2.032782942445    -0.741282658875     1.007825032230
         H           -2.363170157908     2.238021057555     0.205386341125     1.007825032230
         H           -1.239940157908    -2.548819942445    -0.136385658875     1.007825032230
         H           -4.164534157908     0.558435057555     0.383589341125     1.007825032230
         H           -3.596575157908    -1.876328942445     0.179285341125     1.007825032230

  Basis Set: AUG-CC-PVTZ
    Blend: AUG-CC-PVTZ
  Basis Set: (AUG-CC-PVTZ AUX)
    Blend: AUG-CC-PVTZ-JKFIT
	 Reference Energy          =    -514.5826285565402713 [Eh]
	 Singles Energy            =      -0.0000000000000000 [Eh]
	 Same-Spin Energy          =      -0.5578608423622760 [Eh]
	 Opposite-Spin Energy      =      -1.7435540901813988 [Eh]
	 Correlation Energy        =      -2.3014149325436746 [Eh]
	 Total Energy              =    -516.8840434890839788 [Eh]

	 ================> DF-SCS-MP2 Energies <==================
	-----------------------------------------------------------
	 SCS Same-Spin Scale       =       0.3333333333333333 [-]
	 SCS Opposite-Spin Scale   =       1.2000000000000000 [-]
	 SCS Same-Spin Energy      =      -0.1859536141207586 [Eh]
	 SCS Opposite-Spin Energy  =      -2.0922649082176785 [Eh]
	 SCS Correlation Energy    =      -2.2782185223384372 [Eh]
	 SCS Total Energy          =    -516.8608470788786917 [Eh]
	-----------------------------------------------------------

  Dipole Moment: [D]
     X:    -2.7191      Y:     2.0669      Z:     0.0556     Total:     3.4159

*** Psi4 exiting successfully. Buy a developer a beer!
