                               Psi4 1.3.2 release

  ==> Input File <==

--------------------------------------------------------------------------
#psi4
#
memory 32 gb

molecule  {
0 1
  O        3.0005300    -1.5493530     0.0754490
  N        0.8224329    -1.1381792    -0.4202143
  C        0.1960040     1.9504030    -0.2395030
  C        1.6857700     1.6448450    -0.3508570
  C       -0.7674710     0.7851500    -0.1025020
  C        2.1481850     0.6250380     0.6971500
  C       -0.4596220    -0.5879500    -0.1790540
  C        2.0510250    -0.7686880     0.1361100
  C       -2.1103850     1.1321340     0.1249900
  C       -1.4919760    -1.5397800    -0.0852490
  C       -3.1313420     0.1920050     0.2149350
  C       -2.8150140    -1.1632860     0.1069400
  H       -0.1141940     2.5504580    -1.1051150
  H        0.0480080     2.5950730     0.6372840
  H        1.9308140     1.2745600    -1.3520490
  H        2.2359360     2.5841340    -0.2253410
  H        1.5370720     0.7103830     1.6057590
  H        3.1934550     0.7649280     0.9813470
  H        0.8461440    -2.0798130    -0.7458600
  H       -2.3558010     2.1909910     0.2008090
  H       -1.2325710    -2.5958500    -0.1409630
  H       -4.1571650     0.5114050     0.3790120
  H       -3.5892060    -1.9233590     0.1747080
units angstrom
no_reorient  #important for SAPT in psi4, default
symmetry c1  #important for SAPT in psi4, default
}

set PROPERTIES_ORIGIN ["COM"]
properties('MP2/aug-cc-pvtz', properties = ['dipole'])
--------------------------------------------------------------------------

    Molecular point group: c1
  Charge       = 0
  Multiplicity = 1
  Basis Set: AUG-CC-PVTZ
    Blend: AUG-CC-PVTZ
  Basis Set: (AUG-CC-PVTZ AUX)
    Blend: AUG-CC-PVTZ-JKFIT

    Orbital Energies [Eh]
    ---------------------

    Doubly Occupied:

       1A    -20.527012     2A    -15.593963     3A    -11.358602
       4A    -11.296655     5A    -11.255058     6A    -11.245730
       7A    -11.244972     8A    -11.244796     9A    -11.244095
      10A    -11.243254    11A    -11.242724    12A    -11.239187
      13A     -1.380254    14A     -1.252056    15A     -1.150796
      16A     -1.102248    17A     -1.038572    18A     -1.014921
      19A     -0.957971    20A     -0.879379    21A     -0.842393
      22A     -0.808114    23A     -0.767074    24A     -0.722705
      25A     -0.682398    26A     -0.670966    27A     -0.646334
      28A     -0.628657    29A     -0.611434    30A     -0.602471
      31A     -0.601101    32A     -0.580244    33A     -0.564884
      34A     -0.542019    35A     -0.517516    36A     -0.510606
      37A     -0.498353    38A     -0.492250    39A     -0.482702
      40A     -0.435212    41A     -0.426510    42A     -0.340040
      43A     -0.315020

  @DF-RHF Final Energy:  -514.59422284141294

   => Energetics <=

    Nuclear Repulsion Energy =            674.7668826465692291
    One-Electron Energy =               -2037.1197098499410458
    Two-Electron Energy =                 847.7586043619588736
    Total Energy =                       -514.5942228414129431
  Basis Set: (AUG-CC-PVTZ AUX)
    Blend: AUG-CC-PVTZ-RI
    Molecular point group: c1

    Geometry (in Angstrom), charge = 0, multiplicity = 1:

       Center              X                  Y                   Z               Mass
    ------------   -----------------  -----------------  -----------------  -----------------
         O            2.991209277421    -1.506847845446     0.077864978062    15.994914619570
         N            0.813112177421    -1.095674045446    -0.417798321938    14.003074004430
         C            0.186683277421     1.992908154554    -0.237087021938    12.000000000000
         C            1.676449277421     1.687350154554    -0.348441021938    12.000000000000
         C           -0.776791722579     0.827655154554    -0.100086021938    12.000000000000
         C            2.138864277421     0.667543154554     0.699565978062    12.000000000000
         C           -0.468942722579    -0.545444845446    -0.176638021938    12.000000000000
         C            2.041704277421    -0.726182845446     0.138525978062    12.000000000000
         C           -2.119705722579     1.174639154554     0.127405978062    12.000000000000
         C           -1.501296722579    -1.497274845446    -0.082833021938    12.000000000000
         C           -3.140662722579     0.234510154554     0.217350978062    12.000000000000
         C           -2.824334722579    -1.120780845446     0.109355978062    12.000000000000
         H           -0.123514722579     2.592963154554    -1.102699021938     1.007825032230
         H            0.038687277421     2.637578154554     0.639699978062     1.007825032230
         H            1.921493277421     1.317065154554    -1.349633021938     1.007825032230
         H            2.226615277421     2.626639154554    -0.222925021938     1.007825032230
         H            1.527751277421     0.752888154554     1.608174978062     1.007825032230
         H            3.184134277421     0.807433154554     0.983762978062     1.007825032230
         H            0.836823277421    -2.037307845446    -0.743444021938     1.007825032230
         H           -2.365121722579     2.233496154554     0.203224978062     1.007825032230
         H           -1.241891722579    -2.553344845446    -0.138547021938     1.007825032230
         H           -4.166485722579     0.553910154554     0.381427978062     1.007825032230
         H           -3.598526722579    -1.880853845446     0.177123978062     1.007825032230

  Basis Set: AUG-CC-PVTZ
    Blend: AUG-CC-PVTZ
  Basis Set: (AUG-CC-PVTZ AUX)
    Blend: AUG-CC-PVTZ-JKFIT
	 Reference Energy          =    -514.5942228414129431 [Eh]
	 Singles Energy            =      -0.0000000000000000 [Eh]
	 Same-Spin Energy          =      -0.5576676076498162 [Eh]
	 Opposite-Spin Energy      =      -1.7427658783023965 [Eh]
	 Correlation Energy        =      -2.3004334859522126 [Eh]
	 Total Energy              =    -516.8946563273651691 [Eh]

	 ================> DF-SCS-MP2 Energies <==================
	-----------------------------------------------------------
	 SCS Same-Spin Scale       =       0.3333333333333333 [-]
	 SCS Opposite-Spin Scale   =       1.2000000000000000 [-]
	 SCS Same-Spin Energy      =      -0.1858892025499387 [Eh]
	 SCS Opposite-Spin Energy  =      -2.0913190539628759 [Eh]
	 SCS Correlation Energy    =      -2.2772082565128144 [Eh]
	 SCS Total Energy          =    -516.8714310979257789 [Eh]
	-----------------------------------------------------------

  Dipole Moment: [D]
     X:    -2.6471      Y:     2.0788      Z:     0.0394     Total:     3.3660

*** Psi4 exiting successfully. Buy a developer a beer!
