                               Psi4 1.3.2 release

  ==> Input File <==

--------------------------------------------------------------------------
#psi4
#
memory 32 gb

molecule  {
0 1
  O        3.0005300    -1.5493530     0.0754490
  N        0.8317470    -1.1153310    -0.4215630
  C        0.1960040     1.9504030    -0.2395030
  C        1.6857700     1.6448450    -0.3508570
  C       -0.7674710     0.7851500    -0.1025020
  C        2.1481850     0.6250380     0.6971500
  C       -0.3963472    -0.6625382    -0.1881022
  C        2.0510250    -0.7686880     0.1361100
  C       -2.1103850     1.1321340     0.1249900
  C       -1.4919760    -1.5397800    -0.0852490
  C       -3.1313420     0.1920050     0.2149350
  C       -2.8150140    -1.1632860     0.1069400
  H       -0.1141940     2.5504580    -1.1051150
  H        0.0480080     2.5950730     0.6372840
  H        1.9308140     1.2745600    -1.3520490
  H        2.2359360     2.5841340    -0.2253410
  H        1.5370720     0.7103830     1.6057590
  H        3.1934550     0.7649280     0.9813470
  H        0.8461440    -2.0798130    -0.7458600
  H       -2.3558010     2.1909910     0.2008090
  H       -1.2325710    -2.5958500    -0.1409630
  H       -4.1571650     0.5114050     0.3790120
  H       -3.5892060    -1.9233590     0.1747080
units angstrom
no_reorient  #important for SAPT in psi4, default
symmetry c1  #important for SAPT in psi4, default
}

set PROPERTIES_ORIGIN ["COM"]
properties('MP2/aug-cc-pvtz', properties = ['dipole'])
--------------------------------------------------------------------------

    Molecular point group: c1
  Charge       = 0
  Multiplicity = 1
  Basis Set: AUG-CC-PVTZ
    Blend: AUG-CC-PVTZ
  Basis Set: (AUG-CC-PVTZ AUX)
    Blend: AUG-CC-PVTZ-JKFIT

    Orbital Energies [Eh]
    ---------------------

    Doubly Occupied:

       1A    -20.534092     2A    -15.603000     3A    -11.365067
       4A    -11.301283     5A    -11.259228     6A    -11.246133
       7A    -11.243914     8A    -11.243514     9A    -11.242356
      10A    -11.241573    11A    -11.240259    12A    -11.235557
      13A     -1.389802    14A     -1.280080    15A     -1.143553
      16A     -1.103017    17A     -1.034286    18A     -1.015147
      19A     -0.952699    20A     -0.889164    21A     -0.840691
      22A     -0.809619    23A     -0.769765    24A     -0.732048
      25A     -0.686782    26A     -0.671224    27A     -0.648757
      28A     -0.626142    29A     -0.613533    30A     -0.604948
      31A     -0.601413    32A     -0.577740    33A     -0.566427
      34A     -0.544794    35A     -0.517034    36A     -0.509363
      37A     -0.498098    38A     -0.487482    39A     -0.477375
      40A     -0.442613    41A     -0.433781    42A     -0.338175
      43A     -0.301654

  @DF-RHF Final Energy:  -514.58024243906982

   => Energetics <=

    Nuclear Repulsion Energy =            674.8924576728188640
    One-Electron Energy =               -2037.2190324069526923
    Two-Electron Energy =                 847.7463322950640077
    Total Energy =                       -514.5802424390698206
  Basis Set: (AUG-CC-PVTZ AUX)
    Blend: AUG-CC-PVTZ-RI
    Molecular point group: c1

    Geometry (in Angstrom), charge = 0, multiplicity = 1:

       Center              X                  Y                   Z               Mass
    ------------   -----------------  -----------------  -----------------  -----------------
         O            2.985685927627    -1.503277576915     0.078656268912    15.994914619570
         N            0.816902927627    -1.069255576915    -0.418355731088    14.003074004430
         C            0.181159927627     1.996478423085    -0.236295731088    12.000000000000
         C            1.670925927627     1.690920423085    -0.347649731088    12.000000000000
         C           -0.782315072373     0.831225423085    -0.099294731088    12.000000000000
         C            2.133340927627     0.671113423085     0.700357268912    12.000000000000
         C           -0.411191272373    -0.616462776915    -0.184894931088    12.000000000000
         C            2.036180927627    -0.722612576915     0.139317268912    12.000000000000
         C           -2.125229072373     1.178209423085     0.128197268912    12.000000000000
         C           -1.506820072373    -1.493704576915    -0.082041731088    12.000000000000
         C           -3.146186072373     0.238080423085     0.218142268912    12.000000000000
         C           -2.829858072373    -1.117210576915     0.110147268912    12.000000000000
         H           -0.129038072373     2.596533423085    -1.101907731088     1.007825032230
         H            0.033163927627     2.641148423085     0.640491268912     1.007825032230
         H            1.915969927627     1.320635423085    -1.348841731088     1.007825032230
         H            2.221091927627     2.630209423085    -0.222133731088     1.007825032230
         H            1.522227927627     0.756458423085     1.608966268912     1.007825032230
         H            3.178610927627     0.811003423085     0.984554268912     1.007825032230
         H            0.831299927627    -2.033737576915    -0.742652731088     1.007825032230
         H           -2.370645072373     2.237066423085     0.204016268912     1.007825032230
         H           -1.247415072373    -2.549774576915    -0.137755731088     1.007825032230
         H           -4.172009072373     0.557480423085     0.382219268912     1.007825032230
         H           -3.604050072373    -1.877283576915     0.177915268912     1.007825032230

  Basis Set: AUG-CC-PVTZ
    Blend: AUG-CC-PVTZ
  Basis Set: (AUG-CC-PVTZ AUX)
    Blend: AUG-CC-PVTZ-JKFIT
	 Reference Energy          =    -514.5802424390698206 [Eh]
	 Singles Energy            =      -0.0000000000000000 [Eh]
	 Same-Spin Energy          =      -0.5591145831933926 [Eh]
	 Opposite-Spin Energy      =      -1.7447988049681000 [Eh]
	 Correlation Energy        =      -2.3039133881614928 [Eh]
	 Total Energy              =    -516.8841558272313250 [Eh]

	 ================> DF-SCS-MP2 Energies <==================
	-----------------------------------------------------------
	 SCS Same-Spin Scale       =       0.3333333333333333 [-]
	 SCS Opposite-Spin Scale   =       1.2000000000000000 [-]
	 SCS Same-Spin Energy      =      -0.1863715277311309 [Eh]
	 SCS Opposite-Spin Energy  =      -2.0937585659617199 [Eh]
	 SCS Correlation Energy    =      -2.2801300936928506 [Eh]
	 SCS Total Energy          =    -516.8603725327626535 [Eh]
	-----------------------------------------------------------

  Dipole Moment: [D]
     X:    -2.1837      Y:     1.9331      Z:     0.0047     Total:     2.9164

*** Psi4 exiting successfully. Buy a developer a beer!
