                               Psi4 1.3.2 release

  ==> Input File <==

--------------------------------------------------------------------------
#psi4
#
memory 32 gb

molecule  {
0 1
  O        3.0005300    -1.5493530     0.0754490
  N        0.8491924    -1.0691596    -0.4240384
  C        0.1960040     1.9504030    -0.2395030
  C        1.6857700     1.6448450    -0.3508570
  C       -0.7674710     0.7851500    -0.1025020
  C        2.1481850     0.6250380     0.6971500
  C       -0.4596220    -0.5879500    -0.1790540
  C        2.0510250    -0.7686880     0.1361100
  C       -2.1103850     1.1321340     0.1249900
  C       -1.4919760    -1.5397800    -0.0852490
  C       -3.1313420     0.1920050     0.2149350
  C       -2.8150140    -1.1632860     0.1069400
  H       -0.1141940     2.5504580    -1.1051150
  H        0.0480080     2.5950730     0.6372840
  H        1.9308140     1.2745600    -1.3520490
  H        2.2359360     2.5841340    -0.2253410
  H        1.5370720     0.7103830     1.6057590
  H        3.1934550     0.7649280     0.9813470
  H        0.8461440    -2.0798130    -0.7458600
  H       -2.3558010     2.1909910     0.2008090
  H       -1.2325710    -2.5958500    -0.1409630
  H       -4.1571650     0.5114050     0.3790120
  H       -3.5892060    -1.9233590     0.1747080
units angstrom
no_reorient  #important for SAPT in psi4, default
symmetry c1  #important for SAPT in psi4, default
}

set PROPERTIES_ORIGIN ["COM"]
properties('MP2/aug-cc-pvtz', properties = ['dipole'])
--------------------------------------------------------------------------

    Molecular point group: c1
  Charge       = 0
  Multiplicity = 1
  Basis Set: AUG-CC-PVTZ
    Blend: AUG-CC-PVTZ
  Basis Set: (AUG-CC-PVTZ AUX)
    Blend: AUG-CC-PVTZ-JKFIT

    Orbital Energies [Eh]
    ---------------------

    Doubly Occupied:

       1A    -20.523194     2A    -15.600263     3A    -11.353880
       4A    -11.298811     5A    -11.255546     6A    -11.248063
       7A    -11.246737     8A    -11.245494     9A    -11.245008
      10A    -11.241420    11A    -11.241211    12A    -11.240126
      13A     -1.379872    14A     -1.255299    15A     -1.153138
      16A     -1.100919    17A     -1.039816    18A     -1.018533
      19A     -0.955672    20A     -0.882689    21A     -0.844108
      22A     -0.809684    23A     -0.763560    24A     -0.719481
      25A     -0.680221    26A     -0.671073    27A     -0.645641
      28A     -0.629704    29A     -0.611270    30A     -0.604303
      31A     -0.600431    32A     -0.576856    33A     -0.562300
      34A     -0.542209    35A     -0.517789    36A     -0.511229
      37A     -0.497973    38A     -0.490967    39A     -0.482838
      40A     -0.435601    41A     -0.424581    42A     -0.341614
      43A     -0.317988

  @DF-RHF Final Energy:  -514.59041195622433

   => Energetics <=

    Nuclear Repulsion Energy =            675.6633474858484760
    One-Electron Energy =               -2038.8932996860232834
    Two-Electron Energy =                 848.6395402439505915
    Total Energy =                       -514.5904119562243295
  Basis Set: (AUG-CC-PVTZ AUX)
    Blend: AUG-CC-PVTZ-RI
    Molecular point group: c1

    Geometry (in Angstrom), charge = 0, multiplicity = 1:

       Center              X                  Y                   Z               Mass
    ------------   -----------------  -----------------  -----------------  -----------------
         O            2.988883068052    -1.512847734837     0.078197407937    15.994914619570
         N            0.837545468052    -1.032654334837    -0.421289992063    14.003074004430
         C            0.184357068052     1.986908265163    -0.236754592063    12.000000000000
         C            1.674123068052     1.681350265163    -0.348108592063    12.000000000000
         C           -0.779117931948     0.821655265163    -0.099753592063    12.000000000000
         C            2.136538068052     0.661543265163     0.699898407937    12.000000000000
         C           -0.471268931948    -0.551444734837    -0.176305592063    12.000000000000
         C            2.039378068052    -0.732182734837     0.138858407937    12.000000000000
         C           -2.122031931948     1.168639265163     0.127738407937    12.000000000000
         C           -1.503622931948    -1.503274734837    -0.082500592063    12.000000000000
         C           -3.142988931948     0.228510265163     0.217683407937    12.000000000000
         C           -2.826660931948    -1.126780734837     0.109688407937    12.000000000000
         H           -0.125840931948     2.586963265163    -1.102366592063     1.007825032230
         H            0.036361068052     2.631578265163     0.640032407937     1.007825032230
         H            1.919167068052     1.311065265163    -1.349300592063     1.007825032230
         H            2.224289068052     2.620639265163    -0.222592592063     1.007825032230
         H            1.525425068052     0.746888265163     1.608507407937     1.007825032230
         H            3.181808068052     0.801433265163     0.984095407937     1.007825032230
         H            0.834497068052    -2.043307734837    -0.743111592063     1.007825032230
         H           -2.367447931948     2.227496265163     0.203557407937     1.007825032230
         H           -1.244217931948    -2.559344734837    -0.138214592063     1.007825032230
         H           -4.168811931948     0.547910265163     0.381760407937     1.007825032230
         H           -3.600852931948    -1.886853734837     0.177456407937     1.007825032230

  Basis Set: AUG-CC-PVTZ
    Blend: AUG-CC-PVTZ
  Basis Set: (AUG-CC-PVTZ AUX)
    Blend: AUG-CC-PVTZ-JKFIT
	 Reference Energy          =    -514.5904119562243295 [Eh]
	 Singles Energy            =      -0.0000000000000000 [Eh]
	 Same-Spin Energy          =      -0.5583989839277170 [Eh]
	 Opposite-Spin Energy      =      -1.7439043553260647 [Eh]
	 Correlation Energy        =      -2.3023033392537817 [Eh]
	 Total Energy              =    -516.8927152954780695 [Eh]

	 ================> DF-SCS-MP2 Energies <==================
	-----------------------------------------------------------
	 SCS Same-Spin Scale       =       0.3333333333333333 [-]
	 SCS Opposite-Spin Scale   =       1.2000000000000000 [-]
	 SCS Same-Spin Energy      =      -0.1861329946425723 [Eh]
	 SCS Opposite-Spin Energy  =      -2.0926852263912776 [Eh]
	 SCS Correlation Energy    =      -2.2788182210338501 [Eh]
	 SCS Total Energy          =    -516.8692301772581459 [Eh]
	-----------------------------------------------------------

  Dipole Moment: [D]
     X:    -2.9220      Y:     2.0325      Z:     0.0273     Total:     3.5594

*** Psi4 exiting successfully. Buy a developer a beer!
