                               Psi4 1.3.2 release

  ==> Input File <==

--------------------------------------------------------------------------
#psi4
#
memory 32 gb

molecule  {
0 1
  O        3.0005300    -1.5493530     0.0754490
  N        0.8317470    -1.1153310    -0.4215630
  C        0.1960040     1.9504030    -0.2395030
  C        1.6678323     1.5628341    -0.4172792
  C       -0.7674710     0.7851500    -0.1025020
  C        2.1481850     0.6250380     0.6971500
  C       -0.4596220    -0.5879500    -0.1790540
  C        2.0510250    -0.7686880     0.1361100
  C       -2.1103850     1.1321340     0.1249900
  C       -1.4919760    -1.5397800    -0.0852490
  C       -3.1313420     0.1920050     0.2149350
  C       -2.8150140    -1.1632860     0.1069400
  H       -0.1141940     2.5504580    -1.1051150
  H        0.0480080     2.5950730     0.6372840
  H        1.9308140     1.2745600    -1.3520490
  H        2.2359360     2.5841340    -0.2253410
  H        1.5370720     0.7103830     1.6057590
  H        3.1934550     0.7649280     0.9813470
  H        0.8461440    -2.0798130    -0.7458600
  H       -2.3558010     2.1909910     0.2008090
  H       -1.2325710    -2.5958500    -0.1409630
  H       -4.1571650     0.5114050     0.3790120
  H       -3.5892060    -1.9233590     0.1747080
units angstrom
no_reorient  #important for SAPT in psi4, default
symmetry c1  #important for SAPT in psi4, default
}

set PROPERTIES_ORIGIN ["COM"]
properties('MP2/aug-cc-pvtz', properties = ['dipole'])
--------------------------------------------------------------------------

    Molecular point group: c1
  Charge       = 0
  Multiplicity = 1
  Basis Set: AUG-CC-PVTZ
    Blend: AUG-CC-PVTZ
  Basis Set: (AUG-CC-PVTZ AUX)
    Blend: AUG-CC-PVTZ-JKFIT

    Orbital Energies [Eh]
    ---------------------

    Doubly Occupied:

       1A    -20.524694     2A    -15.595836     3A    -11.355653
       4A    -11.297155     5A    -11.253680     6A    -11.246844
       7A    -11.246284     8A    -11.244513     9A    -11.244358
      10A    -11.244176    11A    -11.243584    12A    -11.239594
      13A     -1.379624    14A     -1.253207    15A     -1.151281
      16A     -1.102671    17A     -1.039562    18A     -1.015784
      19A     -0.956398    20A     -0.879667    21A     -0.842600
      22A     -0.814290    23A     -0.763997    24A     -0.723460
      25A     -0.685027    26A     -0.670225    27A     -0.641208
      28A     -0.629635    29A     -0.611508    30A     -0.606462
      31A     -0.596990    32A     -0.577353    33A     -0.565760
      34A     -0.536865    35A     -0.529114    36A     -0.515608
      37A     -0.503385    38A     -0.494656    39A     -0.466030
      40A     -0.435093    41A     -0.422321    42A     -0.340352
      43A     -0.315813

  @DF-RHF Final Energy:  -514.58116985384868

   => Energetics <=

    Nuclear Repulsion Energy =            675.9244341048168963
    One-Electron Energy =               -2039.4065749803060044
    Two-Electron Energy =                 848.9009710216405438
    Total Energy =                       -514.5811698538486780
  Basis Set: (AUG-CC-PVTZ AUX)
    Blend: AUG-CC-PVTZ-RI
    Molecular point group: c1

    Geometry (in Angstrom), charge = 0, multiplicity = 1:

       Center              X                  Y                   Z               Mass
    ------------   -----------------  -----------------  -----------------  -----------------
         O            2.991735874319    -1.502724620913     0.082930360234    15.994914619570
         N            0.822952874319    -1.068702620913    -0.414081639766    14.003074004430
         C            0.187209874319     1.997031379087    -0.232021639766    12.000000000000
         C            1.659038174319     1.609462479087    -0.409797839766    12.000000000000
         C           -0.776265125681     0.831778379087    -0.095020639766    12.000000000000
         C            2.139390874319     0.671666379087     0.704631360234    12.000000000000
         C           -0.468416125681    -0.541321620913    -0.171572639766    12.000000000000
         C            2.042230874319    -0.722059620913     0.143591360234    12.000000000000
         C           -2.119179125681     1.178762379087     0.132471360234    12.000000000000
         C           -1.500770125681    -1.493151620913    -0.077767639766    12.000000000000
         C           -3.140136125681     0.238633379087     0.222416360234    12.000000000000
         C           -2.823808125681    -1.116657620913     0.114421360234    12.000000000000
         H           -0.122988125681     2.597086379087    -1.097633639766     1.007825032230
         H            0.039213874319     2.641701379087     0.644765360234     1.007825032230
         H            1.922019874319     1.321188379087    -1.344567639766     1.007825032230
         H            2.227141874319     2.630762379087    -0.217859639766     1.007825032230
         H            1.528277874319     0.757011379087     1.613240360234     1.007825032230
         H            3.184660874319     0.811556379087     0.988828360234     1.007825032230
         H            0.837349874319    -2.033184620913    -0.738378639766     1.007825032230
         H           -2.364595125681     2.237619379087     0.208290360234     1.007825032230
         H           -1.241365125681    -2.549221620913    -0.133481639766     1.007825032230
         H           -4.165959125681     0.558033379087     0.386493360234     1.007825032230
         H           -3.598000125681    -1.876730620913     0.182189360234     1.007825032230

  Basis Set: AUG-CC-PVTZ
    Blend: AUG-CC-PVTZ
  Basis Set: (AUG-CC-PVTZ AUX)
    Blend: AUG-CC-PVTZ-JKFIT
	 Reference Energy          =    -514.5811698538486780 [Eh]
	 Singles Energy            =      -0.0000000000000000 [Eh]
	 Same-Spin Energy          =      -0.5582004643152638 [Eh]
	 Opposite-Spin Energy      =      -1.7437312491559693 [Eh]
	 Correlation Energy        =      -2.3019317134712329 [Eh]
	 Total Energy              =    -516.8831015673199545 [Eh]

	 ================> DF-SCS-MP2 Energies <==================
	-----------------------------------------------------------
	 SCS Same-Spin Scale       =       0.3333333333333333 [-]
	 SCS Opposite-Spin Scale   =       1.2000000000000000 [-]
	 SCS Same-Spin Energy      =      -0.1860668214384213 [Eh]
	 SCS Opposite-Spin Energy  =      -2.0924774989871633 [Eh]
	 SCS Correlation Energy    =      -2.2785443204255844 [Eh]
	 SCS Total Energy          =    -516.8597141742742451 [Eh]
	-----------------------------------------------------------

  Dipole Moment: [D]
     X:    -2.7454      Y:     2.0357      Z:     0.0281     Total:     3.4179

*** Psi4 exiting successfully. Buy a developer a beer!
