                               Psi4 1.3.2 release

  ==> Input File <==

--------------------------------------------------------------------------
#psi4
#
memory 32 gb

molecule  {
0 1
  O        2.9744636    -1.5784918     0.0576480
  N        0.8317470    -1.1153310    -0.4215630
  C        0.1960040     1.9504030    -0.2395030
  C        1.6857700     1.6448450    -0.3508570
  C       -0.7674710     0.7851500    -0.1025020
  C        2.1481850     0.6250380     0.6971500
  C       -0.4596220    -0.5879500    -0.1790540
  C        2.0510250    -0.7686880     0.1361100
  C       -2.1103850     1.1321340     0.1249900
  C       -1.4919760    -1.5397800    -0.0852490
  C       -3.1313420     0.1920050     0.2149350
  C       -2.8150140    -1.1632860     0.1069400
  H       -0.1141940     2.5504580    -1.1051150
  H        0.0480080     2.5950730     0.6372840
  H        1.9308140     1.2745600    -1.3520490
  H        2.2359360     2.5841340    -0.2253410
  H        1.5370720     0.7103830     1.6057590
  H        3.1934550     0.7649280     0.9813470
  H        0.8461440    -2.0798130    -0.7458600
  H       -2.3558010     2.1909910     0.2008090
  H       -1.2325710    -2.5958500    -0.1409630
  H       -4.1571650     0.5114050     0.3790120
  H       -3.5892060    -1.9233590     0.1747080
units angstrom
no_reorient  #important for SAPT in psi4, default
symmetry c1  #important for SAPT in psi4, default
}

set PROPERTIES_ORIGIN ["COM"]
properties('MP2/aug-cc-pvtz', properties = ['dipole'])
--------------------------------------------------------------------------

    Molecular point group: c1
  Charge       = 0
  Multiplicity = 1
  Basis Set: AUG-CC-PVTZ
    Blend: AUG-CC-PVTZ
  Basis Set: (AUG-CC-PVTZ AUX)
    Blend: AUG-CC-PVTZ-JKFIT

    Orbital Energies [Eh]
    ---------------------

    Doubly Occupied:

       1A    -20.525312     2A    -15.593995     3A    -11.357177
       4A    -11.296357     5A    -11.254655     6A    -11.246009
       7A    -11.245242     8A    -11.245049     9A    -11.244685
      10A    -11.243754    11A    -11.243225    12A    -11.239311
      13A     -1.380905    14A     -1.250902    15A     -1.150739
      16A     -1.102569    17A     -1.039266    18A     -1.015363
      19A     -0.957760    20A     -0.880338    21A     -0.842213
      22A     -0.808747    23A     -0.765430    24A     -0.721288
      25A     -0.681736    26A     -0.670528    27A     -0.646130
      28A     -0.628685    29A     -0.611321    30A     -0.603087
      31A     -0.601054    32A     -0.579149    33A     -0.564291
      34A     -0.542333    35A     -0.517303    36A     -0.511272
      37A     -0.498273    38A     -0.492141    39A     -0.483189
      40A     -0.434202    41A     -0.427070    42A     -0.340173
      43A     -0.315023

  @DF-RHF Final Energy:  -514.59402043171372

   => Energetics <=

    Nuclear Repulsion Energy =            675.1767629265532378
    One-Electron Energy =               -2037.9470632868717530
    Two-Electron Energy =                 848.1762799286047994
    Total Energy =                       -514.5940204317137159
  Basis Set: (AUG-CC-PVTZ AUX)
    Blend: AUG-CC-PVTZ-RI
    Molecular point group: c1

    Geometry (in Angstrom), charge = 0, multiplicity = 1:

       Center              X                  Y                   Z               Mass
    ------------   -----------------  -----------------  -----------------  -----------------
         O            2.966921475525    -1.535079494366     0.061948779162    15.994914619570
         N            0.824204875525    -1.071918694366    -0.417262220838    14.003074004430
         C            0.188461875525     1.993815305634    -0.235202220838    12.000000000000
         C            1.678227875525     1.688257305634    -0.346556220838    12.000000000000
         C           -0.775013124475     0.828562305634    -0.098201220838    12.000000000000
         C            2.140642875525     0.668450305634     0.701450779162    12.000000000000
         C           -0.467164124475    -0.544537694366    -0.174753220838    12.000000000000
         C            2.043482875525    -0.725275694366     0.140410779162    12.000000000000
         C           -2.117927124475     1.175546305634     0.129290779162    12.000000000000
         C           -1.499518124475    -1.496367694366    -0.080948220838    12.000000000000
         C           -3.138884124475     0.235417305634     0.219235779162    12.000000000000
         C           -2.822556124475    -1.119873694366     0.111240779162    12.000000000000
         H           -0.121736124475     2.593870305634    -1.100814220838     1.007825032230
         H            0.040465875525     2.638485305634     0.641584779162     1.007825032230
         H            1.923271875525     1.317972305634    -1.347748220838     1.007825032230
         H            2.228393875525     2.627546305634    -0.221040220838     1.007825032230
         H            1.529529875525     0.753795305634     1.610059779162     1.007825032230
         H            3.185912875525     0.808340305634     0.985647779162     1.007825032230
         H            0.838601875525    -2.036400694366    -0.741559220838     1.007825032230
         H           -2.363343124475     2.234403305634     0.205109779162     1.007825032230
         H           -1.240113124475    -2.552437694366    -0.136662220838     1.007825032230
         H           -4.164707124475     0.554817305634     0.383312779162     1.007825032230
         H           -3.596748124475    -1.879946694366     0.179008779162     1.007825032230

  Basis Set: AUG-CC-PVTZ
    Blend: AUG-CC-PVTZ
  Basis Set: (AUG-CC-PVTZ AUX)
    Blend: AUG-CC-PVTZ-JKFIT
	 Reference Energy          =    -514.5940204317137159 [Eh]
	 Singles Energy            =      -0.0000000000000000 [Eh]
	 Same-Spin Energy          =      -0.5578965557884039 [Eh]
	 Opposite-Spin Energy      =      -1.7430286152245196 [Eh]
	 Correlation Energy        =      -2.3009251710129233 [Eh]
	 Total Energy              =    -516.8949456027266933 [Eh]

	 ================> DF-SCS-MP2 Energies <==================
	-----------------------------------------------------------
	 SCS Same-Spin Scale       =       0.3333333333333333 [-]
	 SCS Opposite-Spin Scale   =       1.2000000000000000 [-]
	 SCS Same-Spin Energy      =      -0.1859655185961346 [Eh]
	 SCS Opposite-Spin Energy  =      -2.0916343382694236 [Eh]
	 SCS Correlation Energy    =      -2.2775998568655584 [Eh]
	 SCS Total Energy          =    -516.8716202885792654 [Eh]
	-----------------------------------------------------------

  Dipole Moment: [D]
     X:    -2.6520      Y:     2.1382      Z:     0.0757     Total:     3.4075

*** Psi4 exiting successfully. Buy a developer a beer!
