                               Psi4 1.3.2 release

  ==> Input File <==

--------------------------------------------------------------------------
#psi4
#
memory 32 gb

molecule  {
0 1
  O        3.0005300    -1.5493530     0.0754490
  N        0.8317470    -1.1153310    -0.4215630
  C        0.1960040     1.9504030    -0.2395030
  C        1.6857700     1.6448450    -0.3508570
  C       -0.7674710     0.7851500    -0.1025020
  C        2.1481850     0.6250380     0.6971500
  C       -0.4596220    -0.5879500    -0.1790540
  C        1.8749364    -0.8187503     0.0555707
  C       -2.1103850     1.1321340     0.1249900
  C       -1.4919760    -1.5397800    -0.0852490
  C       -3.1313420     0.1920050     0.2149350
  C       -2.8150140    -1.1632860     0.1069400
  H       -0.1141940     2.5504580    -1.1051150
  H        0.0480080     2.5950730     0.6372840
  H        1.9308140     1.2745600    -1.3520490
  H        2.2359360     2.5841340    -0.2253410
  H        1.5370720     0.7103830     1.6057590
  H        3.1934550     0.7649280     0.9813470
  H        0.8461440    -2.0798130    -0.7458600
  H       -2.3558010     2.1909910     0.2008090
  H       -1.2325710    -2.5958500    -0.1409630
  H       -4.1571650     0.5114050     0.3790120
  H       -3.5892060    -1.9233590     0.1747080
units angstrom
no_reorient  #important for SAPT in psi4, default
symmetry c1  #important for SAPT in psi4, default
}

set PROPERTIES_ORIGIN ["COM"]
properties('MP2/aug-cc-pvtz', properties = ['dipole'])
--------------------------------------------------------------------------

    Molecular point group: c1
  Charge       = 0
  Multiplicity = 1
  Basis Set: AUG-CC-PVTZ
    Blend: AUG-CC-PVTZ
  Basis Set: (AUG-CC-PVTZ AUX)
    Blend: AUG-CC-PVTZ-JKFIT

    Orbital Energies [Eh]
    ---------------------

    Doubly Occupied:

       1A    -20.483805     2A    -15.624187     3A    -11.338899
       4A    -11.312466     5A    -11.270984     6A    -11.261731
       7A    -11.257664     8A    -11.255822     9A    -11.254196
      10A    -11.249018    11A    -11.240565    12A    -11.237567
      13A     -1.381037    14A     -1.244336    15A     -1.172792
      16A     -1.100973    17A     -1.045815    18A     -1.036598
      19A     -0.952576    20A     -0.902836    21A     -0.861178
      22A     -0.820277    23A     -0.787995    24A     -0.746856
      25A     -0.686235    26A     -0.666763    27A     -0.660453
      28A     -0.628727    29A     -0.617888    30A     -0.613611
      31A     -0.600612    32A     -0.582407    33A     -0.549188
      34A     -0.542855    35A     -0.521284    36A     -0.502859
      37A     -0.495346    38A     -0.494377    39A     -0.480177
      40A     -0.409157    41A     -0.382303    42A     -0.351827
      43A     -0.335122

  @DF-RHF Final Energy:  -514.53194936806176

   => Energetics <=

    Nuclear Repulsion Energy =            676.9463645968830861
    One-Electron Energy =               -2041.0338912673068990
    Two-Electron Energy =                 849.5555773023620532
    Total Energy =                       -514.5319493680617597
  Basis Set: (AUG-CC-PVTZ AUX)
    Blend: AUG-CC-PVTZ-RI
    Molecular point group: c1

    Geometry (in Angstrom), charge = 0, multiplicity = 1:

       Center              X                  Y                   Z               Mass
    ------------   -----------------  -----------------  -----------------  -----------------
         O            3.003517367491    -1.505104640330     0.083982017337    15.994914619570
         N            0.834734367491    -1.071082640330    -0.413029982663    14.003074004430
         C            0.198991367491     1.994651359670    -0.230969982663    12.000000000000
         C            1.688757367491     1.689093359670    -0.342323982663    12.000000000000
         C           -0.764483632509     0.829398359670    -0.093968982663    12.000000000000
         C            2.151172367491     0.669286359670     0.705683017337    12.000000000000
         C           -0.456634632509    -0.543701640330    -0.170520982663    12.000000000000
         C            1.877923767491    -0.774501940330     0.064103717337    12.000000000000
         C           -2.107397632509     1.176382359670     0.133523017337    12.000000000000
         C           -1.488988632509    -1.495531640330    -0.076715982663    12.000000000000
         C           -3.128354632509     0.236253359670     0.223468017337    12.000000000000
         C           -2.812026632509    -1.119037640330     0.115473017337    12.000000000000
         H           -0.111206632509     2.594706359670    -1.096581982663     1.007825032230
         H            0.050995367491     2.639321359670     0.645817017337     1.007825032230
         H            1.933801367491     1.318808359670    -1.343515982663     1.007825032230
         H            2.238923367491     2.628382359670    -0.216807982663     1.007825032230
         H            1.540059367491     0.754631359670     1.614292017337     1.007825032230
         H            3.196442367491     0.809176359670     0.989880017337     1.007825032230
         H            0.849131367491    -2.035564640330    -0.737326982663     1.007825032230
         H           -2.352813632509     2.235239359670     0.209342017337     1.007825032230
         H           -1.229583632509    -2.551601640330    -0.132429982663     1.007825032230
         H           -4.154177632509     0.555653359670     0.387545017337     1.007825032230
         H           -3.586218632509    -1.879110640330     0.183241017337     1.007825032230

  Basis Set: AUG-CC-PVTZ
    Blend: AUG-CC-PVTZ
  Basis Set: (AUG-CC-PVTZ AUX)
    Blend: AUG-CC-PVTZ-JKFIT
	 Reference Energy          =    -514.5319493680617597 [Eh]
	 Singles Energy            =      -0.0000000000000000 [Eh]
	 Same-Spin Energy          =      -0.5593575265077242 [Eh]
	 Opposite-Spin Energy      =      -1.7461153623664818 [Eh]
	 Correlation Energy        =      -2.3054728888742062 [Eh]
	 Total Energy              =    -516.8374222569359517 [Eh]

	 ================> DF-SCS-MP2 Energies <==================
	-----------------------------------------------------------
	 SCS Same-Spin Scale       =       0.3333333333333333 [-]
	 SCS Opposite-Spin Scale   =       1.2000000000000000 [-]
	 SCS Same-Spin Energy      =      -0.1864525088359081 [Eh]
	 SCS Opposite-Spin Energy  =      -2.0953384348397779 [Eh]
	 SCS Correlation Energy    =      -2.2817909436756860 [Eh]
	 SCS Total Energy          =    -516.8137403117374333 [Eh]
	-----------------------------------------------------------

  Dipole Moment: [D]
     X:    -4.8403      Y:     2.2931      Z:    -0.3367     Total:     5.3666

*** Psi4 exiting successfully. Buy a developer a beer!
