                               Psi4 1.3.2 release

  ==> Input File <==

--------------------------------------------------------------------------
#psi4
#
memory 32 gb

molecule  {
0 1
  O        3.0005300    -1.5493530     0.0754490
  N        0.8317470    -1.1153310    -0.4215630
  C        0.1136471     2.0154208    -0.2247008
  C        1.6857700     1.6448450    -0.3508570
  C       -0.7674710     0.7851500    -0.1025020
  C        2.1481850     0.6250380     0.6971500
  C       -0.4596220    -0.5879500    -0.1790540
  C        2.0510250    -0.7686880     0.1361100
  C       -2.1103850     1.1321340     0.1249900
  C       -1.4919760    -1.5397800    -0.0852490
  C       -3.1313420     0.1920050     0.2149350
  C       -2.8150140    -1.1632860     0.1069400
  H       -0.1141940     2.5504580    -1.1051150
  H        0.0480080     2.5950730     0.6372840
  H        1.9308140     1.2745600    -1.3520490
  H        2.2359360     2.5841340    -0.2253410
  H        1.5370720     0.7103830     1.6057590
  H        3.1934550     0.7649280     0.9813470
  H        0.8461440    -2.0798130    -0.7458600
  H       -2.3558010     2.1909910     0.2008090
  H       -1.2325710    -2.5958500    -0.1409630
  H       -4.1571650     0.5114050     0.3790120
  H       -3.5892060    -1.9233590     0.1747080
units angstrom
no_reorient  #important for SAPT in psi4, default
symmetry c1  #important for SAPT in psi4, default
}

set PROPERTIES_ORIGIN ["COM"]
properties('MP2/aug-cc-pvtz', properties = ['dipole'])
--------------------------------------------------------------------------

    Molecular point group: c1
  Charge       = 0
  Multiplicity = 1
  Basis Set: AUG-CC-PVTZ
    Blend: AUG-CC-PVTZ
  Basis Set: (AUG-CC-PVTZ AUX)
    Blend: AUG-CC-PVTZ-JKFIT

    Orbital Energies [Eh]
    ---------------------

    Doubly Occupied:

       1A    -20.525193     2A    -15.595744     3A    -11.356391
       4A    -11.299397     5A    -11.254092     6A    -11.246918
       7A    -11.244908     8A    -11.244294     9A    -11.243727
      10A    -11.242280    11A    -11.241084    12A    -11.238970
      13A     -1.379596    14A     -1.252488    15A     -1.151645
      16A     -1.093176    17A     -1.039602    18A     -1.015214
      19A     -0.954714    20A     -0.879505    21A     -0.842244
      22A     -0.812252    23A     -0.765638    24A     -0.721913
      25A     -0.680533    26A     -0.671011    27A     -0.645245
      28A     -0.629377    29A     -0.617562    30A     -0.605013
      31A     -0.597573    32A     -0.580199    33A     -0.565543
      34A     -0.540483    35A     -0.516447    36A     -0.512343
      37A     -0.504138    38A     -0.494227    39A     -0.463236
      40A     -0.435025    41A     -0.424839    42A     -0.342021
      43A     -0.316698

  @DF-RHF Final Energy:  -514.58472685544268

   => Energetics <=

    Nuclear Repulsion Energy =            673.8480394106238691
    One-Electron Energy =               -2035.3005367028422370
    Two-Electron Energy =                 846.8677704367756860
    Total Energy =                       -514.5847268554426819
  Basis Set: (AUG-CC-PVTZ AUX)
    Blend: AUG-CC-PVTZ-RI
    Molecular point group: c1

    Geometry (in Angstrom), charge = 0, multiplicity = 1:

       Center              X                  Y                   Z               Mass
    ------------   -----------------  -----------------  -----------------  -----------------
         O            2.996534799680    -1.513677562851     0.076879527049    15.994914619570
         N            0.827751799680    -1.079655562851    -0.420132472951    14.003074004430
         C            0.109651899680     2.051096237149    -0.223270272951    12.000000000000
         C            1.681774799680     1.680520437149    -0.349426472951    12.000000000000
         C           -0.771466200320     0.820825437149    -0.101071472951    12.000000000000
         C            2.144189799680     0.660713437149     0.698580527049    12.000000000000
         C           -0.463617200320    -0.552274562851    -0.177623472951    12.000000000000
         C            2.047029799680    -0.733012562851     0.137540527049    12.000000000000
         C           -2.114380200320     1.167809437149     0.126420527049    12.000000000000
         C           -1.495971200320    -1.504104562851    -0.083818472951    12.000000000000
         C           -3.135337200320     0.227680437149     0.216365527049    12.000000000000
         C           -2.819009200320    -1.127610562851     0.108370527049    12.000000000000
         H           -0.118189200320     2.586133437149    -1.103684472951     1.007825032230
         H            0.044012799680     2.630748437149     0.638714527049     1.007825032230
         H            1.926818799680     1.310235437149    -1.350618472951     1.007825032230
         H            2.231940799680     2.619809437149    -0.223910472951     1.007825032230
         H            1.533076799680     0.746058437149     1.607189527049     1.007825032230
         H            3.189459799680     0.800603437149     0.982777527049     1.007825032230
         H            0.842148799680    -2.044137562851    -0.744429472951     1.007825032230
         H           -2.359796200320     2.226666437149     0.202239527049     1.007825032230
         H           -1.236566200320    -2.560174562851    -0.139532472951     1.007825032230
         H           -4.161160200320     0.547080437149     0.380442527049     1.007825032230
         H           -3.593201200320    -1.887683562851     0.176138527049     1.007825032230

  Basis Set: AUG-CC-PVTZ
    Blend: AUG-CC-PVTZ
  Basis Set: (AUG-CC-PVTZ AUX)
    Blend: AUG-CC-PVTZ-JKFIT
	 Reference Energy          =    -514.5847268554426819 [Eh]
	 Singles Energy            =      -0.0000000000000000 [Eh]
	 Same-Spin Energy          =      -0.5575876598363196 [Eh]
	 Opposite-Spin Energy      =      -1.7431673714627727 [Eh]
	 Correlation Energy        =      -2.3007550312990923 [Eh]
	 Total Energy              =    -516.8854818867417862 [Eh]

	 ================> DF-SCS-MP2 Energies <==================
	-----------------------------------------------------------
	 SCS Same-Spin Scale       =       0.3333333333333333 [-]
	 SCS Opposite-Spin Scale   =       1.2000000000000000 [-]
	 SCS Same-Spin Energy      =      -0.1858625532787732 [Eh]
	 SCS Opposite-Spin Energy  =      -2.0918008457553272 [Eh]
	 SCS Correlation Energy    =      -2.2776633990341004 [Eh]
	 SCS Total Energy          =    -516.8623902544767361 [Eh]
	-----------------------------------------------------------

  Dipole Moment: [D]
     X:    -2.8026      Y:     2.0592      Z:     0.0492     Total:     3.4781

*** Psi4 exiting successfully. Buy a developer a beer!
