                               Psi4 1.4a3.dev225

  ==> Input File <==

--------------------------------------------------------------------------
#psi4
#
memory 32 gb

molecule  {
0 1
  O        3.0005300    -1.5493530     0.0754490
  N        0.8317470    -1.1153310    -0.4215630
  C        0.1960040     1.9504030    -0.2395030
  C        1.6857700     1.6448450    -0.3508570
  C       -0.7992023     0.7467733    -0.0979900
  C        2.1481850     0.6250380     0.6971500
  C       -0.4596220    -0.5879500    -0.1790540
  C        2.0510250    -0.7686880     0.1361100
  C       -2.1103850     1.1321340     0.1249900
  C       -1.4919760    -1.5397800    -0.0852490
  C       -3.1313420     0.1920050     0.2149350
  C       -2.8150140    -1.1632860     0.1069400
  H       -0.1141940     2.5504580    -1.1051150
  H        0.0480080     2.5950730     0.6372840
  H        1.9308140     1.2745600    -1.3520490
  H        2.2359360     2.5841340    -0.2253410
  H        1.5370720     0.7103830     1.6057590
  H        3.1934550     0.7649280     0.9813470
  H        0.8461440    -2.0798130    -0.7458600
  H       -2.3558010     2.1909910     0.2008090
  H       -1.2325710    -2.5958500    -0.1409630
  H       -4.1571650     0.5114050     0.3790120
  H       -3.5892060    -1.9233590     0.1747080
units angstrom
no_reorient  #important for SAPT in psi4, default
symmetry c1  #important for SAPT in psi4, default
}

set PROPERTIES_ORIGIN ["COM"]
properties('MP2/aug-cc-pvtz', properties = ['dipole'])
--------------------------------------------------------------------------

    Molecular point group: c1
  Charge       = 0
  Multiplicity = 1
  Basis Set: AUG-CC-PVTZ
    Blend: AUG-CC-PVTZ
  Basis Set: (AUG-CC-PVTZ AUX)
    Blend: AUG-CC-PVTZ-JKFIT

    Orbital Energies [Eh]
    ---------------------

    Doubly Occupied:

       1A    -20.525763     2A    -15.596939     3A    -11.357078
       4A    -11.293980     5A    -11.251850     6A    -11.246226
       7A    -11.246062     8A    -11.244525     9A    -11.243170
      10A    -11.242427    11A    -11.241396    12A    -11.239967
      13A     -1.380214    14A     -1.253988    15A     -1.155079
      16A     -1.098216    17A     -1.037867    18A     -1.018298
      19A     -0.957659    20A     -0.877090    21A     -0.845925
      22A     -0.809203    23A     -0.766077    24A     -0.723578
      25A     -0.681137    26A     -0.669895    27A     -0.644082
      28A     -0.631593    29A     -0.611073    30A     -0.603945
      31A     -0.599866    32A     -0.576784    33A     -0.564577
      34A     -0.542387    35A     -0.520062    36A     -0.510322
      37A     -0.499560    38A     -0.492017    39A     -0.473804
      40A     -0.435634    41A     -0.426023    42A     -0.343225
      43A     -0.318762

  @DF-RHF Final Energy:  -514.59290134671289

   => Energetics <=

    Nuclear Repulsion Energy =            675.3208377496440562
    One-Electron Energy =               -2038.2328266622369028
    Two-Electron Energy =                 848.3190875658798404
    Total Energy =                       -514.5929013467128925
  Basis Set: (AUG-CC-PVTZ AUX)
    Blend: AUG-CC-PVTZ-RI
    Molecular point group: c1

    Geometry (in Angstrom), charge = 0, multiplicity = 1:

       Center              X                  Y                   Z               Mass
    ------------   -----------------  -----------------  -----------------  -----------------
         O            2.992763432203    -1.505975162196     0.077646098222    15.994914619570
         N            0.823980432203    -1.071953162196    -0.419365901778    14.003074004430
         C            0.188237432203     1.993780837804    -0.237305901778    12.000000000000
         C            1.678003432203     1.688222837804    -0.348659901778    12.000000000000
         C           -0.806968867797     0.790151137804    -0.095792901778    12.000000000000
         C            2.140418432203     0.668415837804     0.699347098222    12.000000000000
         C           -0.467388567797    -0.544572162196    -0.176856901778    12.000000000000
         C            2.043258432203    -0.725310162196     0.138307098222    12.000000000000
         C           -2.118151567797     1.175511837804     0.127187098222    12.000000000000
         C           -1.499742567797    -1.496402162196    -0.083051901778    12.000000000000
         C           -3.139108567797     0.235382837804     0.217132098222    12.000000000000
         C           -2.822780567797    -1.119908162196     0.109137098222    12.000000000000
         H           -0.121960567797     2.593835837804    -1.102917901778     1.007825032230
         H            0.040241432203     2.638450837804     0.639481098222     1.007825032230
         H            1.923047432203     1.317937837804    -1.349851901778     1.007825032230
         H            2.228169432203     2.627511837804    -0.223143901778     1.007825032230
         H            1.529305432203     0.753760837804     1.607956098222     1.007825032230
         H            3.185688432203     0.808305837804     0.983544098222     1.007825032230
         H            0.838377432203    -2.036435162196    -0.743662901778     1.007825032230
         H           -2.363567567797     2.234368837804     0.203006098222     1.007825032230
         H           -1.240337567797    -2.552472162196    -0.138765901778     1.007825032230
         H           -4.164931567797     0.554782837804     0.381209098222     1.007825032230
         H           -3.596972567797    -1.879981162196     0.176905098222     1.007825032230

  Basis Set: AUG-CC-PVTZ
    Blend: AUG-CC-PVTZ
  Basis Set: (AUG-CC-PVTZ AUX)
    Blend: AUG-CC-PVTZ-JKFIT
	 Reference Energy          =    -514.5929013467128925 [Eh]
	 Singles Energy            =      -0.0000000000000000 [Eh]
	 Same-Spin Energy          =      -0.5574694096436654 [Eh]
	 Opposite-Spin Energy      =      -1.7424653100413414 [Eh]
	 Correlation Energy        =      -2.2999347196850071 [Eh]
	 Total Energy              =    -516.8928360663978765 [Eh]

	 ================> DF-SCS-MP2 Energies <==================
	-----------------------------------------------------------
	 SCS Same-Spin Scale       =       0.3333333333333333 [-]
	 SCS Opposite-Spin Scale   =       1.2000000000000000 [-]
	 SCS Same-Spin Energy      =      -0.1858231365478885 [Eh]
	 SCS Opposite-Spin Energy  =      -2.0909583720496094 [Eh]
	 SCS Correlation Energy    =      -2.2767815085974981 [Eh]
	 SCS Total Energy          =    -516.8696828553104297 [Eh]
	-----------------------------------------------------------

  Dipole Moment: [D]
     X:    -2.7801      Y:     2.0316      Z:     0.0438     Total:     3.4436

*** Psi4 exiting successfully. Buy a developer a beer!
