                               Psi4 1.3.2 release

  ==> Input File <==

--------------------------------------------------------------------------
#psi4
#
memory 32 gb

molecule  {
0 1
  O        3.0005300    -1.5493530     0.0754490
  N        0.8317470    -1.1153310    -0.4215630
  C        0.1960040     1.9504030    -0.2395030
  C        1.6857700     1.6448450    -0.3508570
  C       -0.7674710     0.7851500    -0.1025020
  C        2.1481850     0.6250380     0.6971500
  C       -0.4498996    -0.5722902    -0.1625962
  C        2.0510250    -0.7686880     0.1361100
  C       -2.1103850     1.1321340     0.1249900
  C       -1.4919760    -1.5397800    -0.0852490
  C       -3.1313420     0.1920050     0.2149350
  C       -2.8150140    -1.1632860     0.1069400
  H       -0.1141940     2.5504580    -1.1051150
  H        0.0480080     2.5950730     0.6372840
  H        1.9308140     1.2745600    -1.3520490
  H        2.2359360     2.5841340    -0.2253410
  H        1.5370720     0.7103830     1.6057590
  H        3.1934550     0.7649280     0.9813470
  H        0.8461440    -2.0798130    -0.7458600
  H       -2.3558010     2.1909910     0.2008090
  H       -1.2325710    -2.5958500    -0.1409630
  H       -4.1571650     0.5114050     0.3790120
  H       -3.5892060    -1.9233590     0.1747080
units angstrom
no_reorient  #important for SAPT in psi4, default
symmetry c1  #important for SAPT in psi4, default
}

set PROPERTIES_ORIGIN ["COM"]
properties('MP2/aug-cc-pvtz', properties = ['dipole'])
--------------------------------------------------------------------------

    Molecular point group: c1
  Charge       = 0
  Multiplicity = 1
  Basis Set: AUG-CC-PVTZ
    Blend: AUG-CC-PVTZ
  Basis Set: (AUG-CC-PVTZ AUX)
    Blend: AUG-CC-PVTZ-JKFIT

    Orbital Energies [Eh]
    ---------------------

    Doubly Occupied:

       1A    -20.525478     2A    -15.596392     3A    -11.356423
       4A    -11.297307     5A    -11.253753     6A    -11.246925
       7A    -11.245667     8A    -11.245283     9A    -11.244631
      10A    -11.242862    11A    -11.242124    12A    -11.239990
      13A     -1.379994    14A     -1.253104    15A     -1.151698
      16A     -1.101504    17A     -1.039782    18A     -1.014137
      19A     -0.957735    20A     -0.879757    21A     -0.844169
      22A     -0.808751    23A     -0.764493    24A     -0.721999
      25A     -0.681705    26A     -0.671991    27A     -0.646018
      28A     -0.628956    29A     -0.611113    30A     -0.602450
      31A     -0.600118    32A     -0.579741    33A     -0.564501
      34A     -0.541985    35A     -0.518631    36A     -0.510661
      37A     -0.498159    38A     -0.491557    39A     -0.482010
      40A     -0.435359    41A     -0.425632    42A     -0.340378
      43A     -0.316367

  @DF-RHF Final Energy:  -514.59381899879020

   => Energetics <=

    Nuclear Repulsion Energy =            675.1915424441184541
    One-Electron Energy =               -2037.9681426089705383
    Two-Electron Energy =                 848.1827811660617726
    Total Energy =                       -514.5938189987901978
  Basis Set: (AUG-CC-PVTZ AUX)
    Blend: AUG-CC-PVTZ-RI
    Molecular point group: c1

    Geometry (in Angstrom), charge = 0, multiplicity = 1:

       Center              X                  Y                   Z               Mass
    ------------   -----------------  -----------------  -----------------  -----------------
         O            2.989675327845    -1.510000625572     0.076756192688    15.994914619570
         N            0.820892327845    -1.075978625572    -0.420255807312    14.003074004430
         C            0.185149327845     1.989755374428    -0.238195807312    12.000000000000
         C            1.674915327845     1.684197374428    -0.349549807312    12.000000000000
         C           -0.778325672155     0.824502374428    -0.101194807312    12.000000000000
         C            2.137330327845     0.664390374428     0.698457192688    12.000000000000
         C           -0.460754272155    -0.532937825572    -0.161289007312    12.000000000000
         C            2.040170327845    -0.729335625572     0.137417192688    12.000000000000
         C           -2.121239672155     1.171486374428     0.126297192688    12.000000000000
         C           -1.502830672155    -1.500427625572    -0.083941807312    12.000000000000
         C           -3.142196672155     0.231357374428     0.216242192688    12.000000000000
         C           -2.825868672155    -1.123933625572     0.108247192688    12.000000000000
         H           -0.125048672155     2.589810374428    -1.103807807312     1.007825032230
         H            0.037153327845     2.634425374428     0.638591192688     1.007825032230
         H            1.919959327845     1.313912374428    -1.350741807312     1.007825032230
         H            2.225081327845     2.623486374428    -0.224033807312     1.007825032230
         H            1.526217327845     0.749735374428     1.607066192688     1.007825032230
         H            3.182600327845     0.804280374428     0.982654192688     1.007825032230
         H            0.835289327845    -2.040460625572    -0.744552807312     1.007825032230
         H           -2.366655672155     2.230343374428     0.202116192688     1.007825032230
         H           -1.243425672155    -2.556497625572    -0.139655807312     1.007825032230
         H           -4.168019672155     0.550757374428     0.380319192688     1.007825032230
         H           -3.600060672155    -1.884006625572     0.176015192688     1.007825032230

  Basis Set: AUG-CC-PVTZ
    Blend: AUG-CC-PVTZ
  Basis Set: (AUG-CC-PVTZ AUX)
    Blend: AUG-CC-PVTZ-JKFIT
	 Reference Energy          =    -514.5938189987901978 [Eh]
	 Singles Energy            =      -0.0000000000000000 [Eh]
	 Same-Spin Energy          =      -0.5578218150772040 [Eh]
	 Opposite-Spin Energy      =      -1.7430695220687800 [Eh]
	 Correlation Energy        =      -2.3008913371459840 [Eh]
	 Total Energy              =    -516.8947103359362245 [Eh]

	 ================> DF-SCS-MP2 Energies <==================
	-----------------------------------------------------------
	 SCS Same-Spin Scale       =       0.3333333333333333 [-]
	 SCS Opposite-Spin Scale   =       1.2000000000000000 [-]
	 SCS Same-Spin Energy      =      -0.1859406050257346 [Eh]
	 SCS Opposite-Spin Energy  =      -2.0916834264825357 [Eh]
	 SCS Correlation Energy    =      -2.2776240315082705 [Eh]
	 SCS Total Energy          =    -516.8714430302984510 [Eh]
	-----------------------------------------------------------

  Dipole Moment: [D]
     X:    -2.7432      Y:     2.0572      Z:     0.0328     Total:     3.4290

*** Psi4 exiting successfully. Buy a developer a beer!
