                               Psi4 1.3.2 release

  ==> Input File <==

--------------------------------------------------------------------------
#psi4
#
memory 32 gb

molecule  {
0 1
  O        3.0005300    -1.5493530     0.0754490
  N        0.8792802    -0.9751150    -0.4280911
  C        0.1960040     1.9504030    -0.2395030
  C        1.6857700     1.6448450    -0.3508570
  C       -0.7674710     0.7851500    -0.1025020
  C        2.1481850     0.6250380     0.6971500
  C       -0.4596220    -0.5879500    -0.1790540
  C        2.0510250    -0.7686880     0.1361100
  C       -2.1103850     1.1321340     0.1249900
  C       -1.4919760    -1.5397800    -0.0852490
  C       -3.1313420     0.1920050     0.2149350
  C       -2.8150140    -1.1632860     0.1069400
  H       -0.1141940     2.5504580    -1.1051150
  H        0.0480080     2.5950730     0.6372840
  H        1.9308140     1.2745600    -1.3520490
  H        2.2359360     2.5841340    -0.2253410
  H        1.5370720     0.7103830     1.6057590
  H        3.1934550     0.7649280     0.9813470
  H        0.8461440    -2.0798130    -0.7458600
  H       -2.3558010     2.1909910     0.2008090
  H       -1.2325710    -2.5958500    -0.1409630
  H       -4.1571650     0.5114050     0.3790120
  H       -3.5892060    -1.9233590     0.1747080
units angstrom
no_reorient  #important for SAPT in psi4, default
symmetry c1  #important for SAPT in psi4, default
}

set PROPERTIES_ORIGIN ["COM"]
properties('MP2/aug-cc-pvtz', properties = ['dipole'])
--------------------------------------------------------------------------

    Molecular point group: c1
  Charge       = 0
  Multiplicity = 1
  Basis Set: AUG-CC-PVTZ
    Blend: AUG-CC-PVTZ
  Basis Set: (AUG-CC-PVTZ AUX)
    Blend: AUG-CC-PVTZ-JKFIT

    Orbital Energies [Eh]
    ---------------------

    Doubly Occupied:

       1A    -20.519879     2A    -15.607742     3A    -11.348821
       4A    -11.302382     5A    -11.256236     6A    -11.252190
       7A    -11.249952     8A    -11.246352     9A    -11.245137
      10A    -11.243783    11A    -11.239570    12A    -11.235438
      13A     -1.380203    14A     -1.261098    15A     -1.156755
      16A     -1.099144    17A     -1.042468    18A     -1.022774
      19A     -0.953071    20A     -0.887180    21A     -0.847505
      22A     -0.809981    23A     -0.762247    24A     -0.714049
      25A     -0.677819    26A     -0.671782    27A     -0.645029
      28A     -0.631188    29A     -0.611832    30A     -0.606117
      31A     -0.599386    32A     -0.576185    33A     -0.551937
      34A     -0.542044    35A     -0.517042    36A     -0.512310
      37A     -0.497579    38A     -0.488380    39A     -0.481507
      40A     -0.436454    41A     -0.421830    42A     -0.343702
      43A     -0.321839

  @DF-RHF Final Energy:  -514.56767269382976

   => Energetics <=

    Nuclear Repulsion Energy =            676.8645929733780804
    One-Electron Energy =               -2041.2286897573908391
    Two-Electron Energy =                 849.7964240901831090
    Total Energy =                       -514.5676726938297634
  Basis Set: (AUG-CC-PVTZ AUX)
    Blend: AUG-CC-PVTZ-RI
    Molecular point group: c1

    Geometry (in Angstrom), charge = 0, multiplicity = 1:

       Center              X                  Y                   Z               Mass
    ------------   -----------------  -----------------  -----------------  -----------------
         O            2.986267528813    -1.521023053121     0.078549710062    15.994914619570
         N            0.865017728813    -0.946785053121    -0.424990389938    14.003074004430
         C            0.181741528813     1.978732946879    -0.236402289938    12.000000000000
         C            1.671507528813     1.673174946879    -0.347756289938    12.000000000000
         C           -0.781733471187     0.813479946879    -0.099401289938    12.000000000000
         C            2.133922528813     0.653367946879     0.700250710062    12.000000000000
         C           -0.473884471187    -0.559620053121    -0.175953289938    12.000000000000
         C            2.036762528813    -0.740358053121     0.139210710062    12.000000000000
         C           -2.124647471187     1.160463946879     0.128090710062    12.000000000000
         C           -1.506238471187    -1.511450053121    -0.082148289938    12.000000000000
         C           -3.145604471187     0.220334946879     0.218035710062    12.000000000000
         C           -2.829276471187    -1.134956053121     0.110040710062    12.000000000000
         H           -0.128456471187     2.578787946879    -1.102014289938     1.007825032230
         H            0.033745528813     2.623402946879     0.640384710062     1.007825032230
         H            1.916551528813     1.302889946879    -1.348948289938     1.007825032230
         H            2.221673528813     2.612463946879    -0.222240289938     1.007825032230
         H            1.522809528813     0.738712946879     1.608859710062     1.007825032230
         H            3.179192528813     0.793257946879     0.984447710062     1.007825032230
         H            0.831881528813    -2.051483053121    -0.742759289938     1.007825032230
         H           -2.370063471187     2.219320946879     0.203909710062     1.007825032230
         H           -1.246833471187    -2.567520053121    -0.137862289938     1.007825032230
         H           -4.171427471187     0.539734946879     0.382112710062     1.007825032230
         H           -3.603468471187    -1.895029053121     0.177808710062     1.007825032230

  Basis Set: AUG-CC-PVTZ
    Blend: AUG-CC-PVTZ
  Basis Set: (AUG-CC-PVTZ AUX)
    Blend: AUG-CC-PVTZ-JKFIT
	 Reference Energy          =    -514.5676726938297634 [Eh]
	 Singles Energy            =      -0.0000000000000000 [Eh]
	 Same-Spin Energy          =      -0.5598820936110827 [Eh]
	 Opposite-Spin Energy      =      -1.7467750316232740 [Eh]
	 Correlation Energy        =      -2.3066571252343566 [Eh]
	 Total Energy              =    -516.8743298190640871 [Eh]

	 ================> DF-SCS-MP2 Energies <==================
	-----------------------------------------------------------
	 SCS Same-Spin Scale       =       0.3333333333333333 [-]
	 SCS Opposite-Spin Scale   =       1.2000000000000000 [-]
	 SCS Same-Spin Energy      =      -0.1866273645370276 [Eh]
	 SCS Opposite-Spin Energy  =      -2.0961300379479288 [Eh]
	 SCS Correlation Energy    =      -2.2827574024849566 [Eh]
	 SCS Total Energy          =    -516.8504300963147671 [Eh]
	-----------------------------------------------------------

  Dipole Moment: [D]
     X:    -3.2404      Y:     1.9919      Z:     0.0249     Total:     3.8037

*** Psi4 exiting successfully. Buy a developer a beer!
