                               Psi4 1.4a3.dev225

  ==> Input File <==

--------------------------------------------------------------------------
#psi4
#
memory 32 gb

molecule  {
0 1
  O        3.0005300    -1.5493530     0.0754490
  N        0.8317470    -1.1153310    -0.4215630
  C        0.1960040     1.9504030    -0.2395030
  C        1.6857700     1.6448450    -0.3508570
  C       -0.7674710     0.7851500    -0.1025020
  C        2.1481850     0.6250380     0.6971500
  C       -0.4596220    -0.5879500    -0.1790540
  C        2.0510250    -0.7686880     0.1361100
  C       -2.0912763     1.1271967     0.1217529
  C       -1.4919760    -1.5397800    -0.0852490
  C       -3.1313420     0.1920050     0.2149350
  C       -2.8150140    -1.1632860     0.1069400
  H       -0.1141940     2.5504580    -1.1051150
  H        0.0480080     2.5950730     0.6372840
  H        1.9308140     1.2745600    -1.3520490
  H        2.2359360     2.5841340    -0.2253410
  H        1.5370720     0.7103830     1.6057590
  H        3.1934550     0.7649280     0.9813470
  H        0.8461440    -2.0798130    -0.7458600
  H       -2.3558010     2.1909910     0.2008090
  H       -1.2325710    -2.5958500    -0.1409630
  H       -4.1571650     0.5114050     0.3790120
  H       -3.5892060    -1.9233590     0.1747080
units angstrom
no_reorient  #important for SAPT in psi4, default
symmetry c1  #important for SAPT in psi4, default
}

set PROPERTIES_ORIGIN ["COM"]
properties('MP2/aug-cc-pvtz', properties = ['dipole'])
--------------------------------------------------------------------------

    Molecular point group: c1
  Charge       = 0
  Multiplicity = 1
  Basis Set: AUG-CC-PVTZ
    Blend: AUG-CC-PVTZ
  Basis Set: (AUG-CC-PVTZ AUX)
    Blend: AUG-CC-PVTZ-JKFIT

    Orbital Energies [Eh]
    ---------------------

    Doubly Occupied:

       1A    -20.525789     2A    -15.596331     3A    -11.357098
       4A    -11.297757     5A    -11.253348     6A    -11.246322
       7A    -11.244893     8A    -11.244830     9A    -11.243996
      10A    -11.242970    11A    -11.242152    12A    -11.240701
      13A     -1.380212    14A     -1.253312    15A     -1.152657
      16A     -1.101991    17A     -1.040292    18A     -1.014617
      19A     -0.957816    20A     -0.880008    21A     -0.842747
      22A     -0.809364    23A     -0.766192    24A     -0.721183
      25A     -0.681853    26A     -0.670982    27A     -0.645686
      28A     -0.629580    29A     -0.611390    30A     -0.602777
      31A     -0.599865    32A     -0.579286    33A     -0.564731
      34A     -0.542351    35A     -0.517755    36A     -0.510787
      37A     -0.498766    38A     -0.491842    39A     -0.482098
      40A     -0.434953    41A     -0.426055    42A     -0.342378
      43A     -0.315147

  @DF-RHF Final Energy:  -514.59384674361934

   => Energetics <=

    Nuclear Repulsion Energy =            675.3753743935869807
    One-Electron Energy =               -2038.3287212879235994
    Two-Electron Energy =                 848.3595001507172810
    Total Energy =                       -514.5938467436193378
  Basis Set: (AUG-CC-PVTZ AUX)
    Blend: AUG-CC-PVTZ-RI
    Molecular point group: c1

    Geometry (in Angstrom), charge = 0, multiplicity = 1:

       Center              X                  Y                   Z               Mass
    ------------   -----------------  -----------------  -----------------  -----------------
         O            2.988976092941    -1.508466239153     0.078223369479    15.994914619570
         N            0.820193092941    -1.074444239153    -0.418788630521    14.003074004430
         C            0.184450092941     1.991289760847    -0.236728630521    12.000000000000
         C            1.674216092941     1.685731760847    -0.348082630521    12.000000000000
         C           -0.779024907059     0.826036760847    -0.099727630521    12.000000000000
         C            2.136631092941     0.665924760847     0.699924369479    12.000000000000
         C           -0.471175907059    -0.547063239153    -0.176279630521    12.000000000000
         C            2.039471092941    -0.727801239153     0.138884369479    12.000000000000
         C           -2.102830207059     1.168083460847     0.124527269479    12.000000000000
         C           -1.503529907059    -1.498893239153    -0.082474630521    12.000000000000
         C           -3.142895907059     0.232891760847     0.217709369479    12.000000000000
         C           -2.826567907059    -1.122399239153     0.109714369479    12.000000000000
         H           -0.125747907059     2.591344760847    -1.102340630521     1.007825032230
         H            0.036454092941     2.635959760847     0.640058369479     1.007825032230
         H            1.919260092941     1.315446760847    -1.349274630521     1.007825032230
         H            2.224382092941     2.625020760847    -0.222566630521     1.007825032230
         H            1.525518092941     0.751269760847     1.608533369479     1.007825032230
         H            3.181901092941     0.805814760847     0.984121369479     1.007825032230
         H            0.834590092941    -2.038926239153    -0.743085630521     1.007825032230
         H           -2.367354907059     2.231877760847     0.203583369479     1.007825032230
         H           -1.244124907059    -2.554963239153    -0.138188630521     1.007825032230
         H           -4.168718907059     0.552291760847     0.381786369479     1.007825032230
         H           -3.600759907059    -1.882472239153     0.177482369479     1.007825032230

  Basis Set: AUG-CC-PVTZ
    Blend: AUG-CC-PVTZ
  Basis Set: (AUG-CC-PVTZ AUX)
    Blend: AUG-CC-PVTZ-JKFIT
	 Reference Energy          =    -514.5938467436193378 [Eh]
	 Singles Energy            =      -0.0000000000000000 [Eh]
	 Same-Spin Energy          =      -0.5579427327979802 [Eh]
	 Opposite-Spin Energy      =      -1.7430975986517225 [Eh]
	 Correlation Energy        =      -2.3010403314497028 [Eh]
	 Total Energy              =    -516.8948870750690503 [Eh]

	 ================> DF-SCS-MP2 Energies <==================
	-----------------------------------------------------------
	 SCS Same-Spin Scale       =       0.3333333333333333 [-]
	 SCS Opposite-Spin Scale   =       1.2000000000000000 [-]
	 SCS Same-Spin Energy      =      -0.1859809109326601 [Eh]
	 SCS Opposite-Spin Energy  =      -2.0917171183820669 [Eh]
	 SCS Correlation Energy    =      -2.2776980293147271 [Eh]
	 SCS Total Energy          =    -516.8715447729340440 [Eh]
	-----------------------------------------------------------

  Dipole Moment: [D]
     X:    -2.7381      Y:     2.0540      Z:     0.0348     Total:     3.4231

*** Psi4 exiting successfully. Buy a developer a beer!
