                               Psi4 1.3.2 release

  ==> Input File <==

--------------------------------------------------------------------------
#psi4
#
memory 32 gb

molecule  {
0 1
  O        3.0005300    -1.5493530     0.0754490
  N        0.8317470    -1.1153310    -0.4215630
  C        0.1960040     1.9504030    -0.2395030
  C        1.6614600     1.6336430    -0.3506894
  C       -0.7674710     0.7851500    -0.1025020
  C        2.1481850     0.6250380     0.6971500
  C       -0.4596220    -0.5879500    -0.1790540
  C        2.0510250    -0.7686880     0.1361100
  C       -2.1103850     1.1321340     0.1249900
  C       -1.4919760    -1.5397800    -0.0852490
  C       -3.1313420     0.1920050     0.2149350
  C       -2.8150140    -1.1632860     0.1069400
  H       -0.1141940     2.5504580    -1.1051150
  H        0.0480080     2.5950730     0.6372840
  H        1.9308140     1.2745600    -1.3520490
  H        2.2359360     2.5841340    -0.2253410
  H        1.5370720     0.7103830     1.6057590
  H        3.1934550     0.7649280     0.9813470
  H        0.8461440    -2.0798130    -0.7458600
  H       -2.3558010     2.1909910     0.2008090
  H       -1.2325710    -2.5958500    -0.1409630
  H       -4.1571650     0.5114050     0.3790120
  H       -3.5892060    -1.9233590     0.1747080
units angstrom
no_reorient  #important for SAPT in psi4, default
symmetry c1  #important for SAPT in psi4, default
}

set PROPERTIES_ORIGIN ["COM"]
properties('MP2/aug-cc-pvtz', properties = ['dipole'])
--------------------------------------------------------------------------

    Molecular point group: c1
  Charge       = 0
  Multiplicity = 1
  Basis Set: AUG-CC-PVTZ
    Blend: AUG-CC-PVTZ
  Basis Set: (AUG-CC-PVTZ AUX)
    Blend: AUG-CC-PVTZ-JKFIT

    Orbital Energies [Eh]
    ---------------------

    Doubly Occupied:

       1A    -20.525524     2A    -15.596011     3A    -11.356740
       4A    -11.297433     5A    -11.254978     6A    -11.246554
       7A    -11.245056     8A    -11.244520     9A    -11.244489
      10A    -11.243364    11A    -11.242760    12A    -11.239885
      13A     -1.380007    14A     -1.253108    15A     -1.151732
      16A     -1.104082    17A     -1.038881    18A     -1.016293
      19A     -0.959060    20A     -0.879227    21A     -0.842903
      22A     -0.807926    23A     -0.765766    24A     -0.721967
      25A     -0.682459    26A     -0.671237    27A     -0.645127
      28A     -0.629352    29A     -0.612857    30A     -0.603393
      31A     -0.600635    32A     -0.579153    33A     -0.564201
      34A     -0.540412    35A     -0.518447    36A     -0.510110
      37A     -0.501358    38A     -0.493002    39A     -0.479649
      40A     -0.435243    41A     -0.425501    42A     -0.340636
      43A     -0.316020

  @DF-RHF Final Energy:  -514.59336412349990

   => Energetics <=

    Nuclear Repulsion Energy =            675.5015992633523183
    One-Electron Energy =               -2038.5758069797411736
    Two-Electron Energy =                 848.4808435928889594
    Total Energy =                       -514.5933641234998959
  Basis Set: (AUG-CC-PVTZ AUX)
    Blend: AUG-CC-PVTZ-RI
    Molecular point group: c1

    Geometry (in Angstrom), charge = 0, multiplicity = 1:

       Center              X                  Y                   Z               Mass
    ------------   -----------------  -----------------  -----------------  -----------------
         O            2.992210580494    -1.507999548668     0.077969735451    15.994914619570
         N            0.823427580494    -1.073977548668    -0.419042264549    14.003074004430
         C            0.187684580494     1.991756451332    -0.236982264549    12.000000000000
         C            1.653140580494     1.674996451332    -0.348168664549    12.000000000000
         C           -0.775790419506     0.826503451332    -0.099981264549    12.000000000000
         C            2.139865580494     0.666391451332     0.699670735451    12.000000000000
         C           -0.467941419506    -0.546596548668    -0.176533264549    12.000000000000
         C            2.042705580494    -0.727334548668     0.138630735451    12.000000000000
         C           -2.118704419506     1.173487451332     0.127510735451    12.000000000000
         C           -1.500295419506    -1.498426548668    -0.082728264549    12.000000000000
         C           -3.139661419506     0.233358451332     0.217455735451    12.000000000000
         C           -2.823333419506    -1.121932548668     0.109460735451    12.000000000000
         H           -0.122513419506     2.591811451332    -1.102594264549     1.007825032230
         H            0.039688580494     2.636426451332     0.639804735451     1.007825032230
         H            1.922494580494     1.315913451332    -1.349528264549     1.007825032230
         H            2.227616580494     2.625487451332    -0.222820264549     1.007825032230
         H            1.528752580494     0.751736451332     1.608279735451     1.007825032230
         H            3.185135580494     0.806281451332     0.983867735451     1.007825032230
         H            0.837824580494    -2.038459548668    -0.743339264549     1.007825032230
         H           -2.364120419506     2.232344451332     0.203329735451     1.007825032230
         H           -1.240890419506    -2.554496548668    -0.138442264549     1.007825032230
         H           -4.165484419506     0.552758451332     0.381532735451     1.007825032230
         H           -3.597525419506    -1.882005548668     0.177228735451     1.007825032230

  Basis Set: AUG-CC-PVTZ
    Blend: AUG-CC-PVTZ
  Basis Set: (AUG-CC-PVTZ AUX)
    Blend: AUG-CC-PVTZ-JKFIT
	 Reference Energy          =    -514.5933641234998959 [Eh]
	 Singles Energy            =      -0.0000000000000000 [Eh]
	 Same-Spin Energy          =      -0.5580588762336516 [Eh]
	 Opposite-Spin Energy      =      -1.7432184055230140 [Eh]
	 Correlation Energy        =      -2.3012772817566658 [Eh]
	 Total Energy              =    -516.8946414052566070 [Eh]

	 ================> DF-SCS-MP2 Energies <==================
	-----------------------------------------------------------
	 SCS Same-Spin Scale       =       0.3333333333333333 [-]
	 SCS Opposite-Spin Scale   =       1.2000000000000000 [-]
	 SCS Same-Spin Energy      =      -0.1860196254112172 [Eh]
	 SCS Opposite-Spin Energy  =      -2.0918620866276165 [Eh]
	 SCS Correlation Energy    =      -2.2778817120388339 [Eh]
	 SCS Total Energy          =    -516.8712458355387298 [Eh]
	-----------------------------------------------------------

  Dipole Moment: [D]
     X:    -2.7508      Y:     2.0586      Z:     0.0361     Total:     3.4360

*** Psi4 exiting successfully. Buy a developer a beer!
