                               Psi4 1.3.2 release

  ==> Input File <==

--------------------------------------------------------------------------
#psi4
#
memory 32 gb

molecule  {
0 1
  O        3.0005300    -1.5493530     0.0754490
  N        0.8317470    -1.1153310    -0.4215630
  C        0.1773850     1.8467826    -0.2551278
  C        1.6857700     1.6448450    -0.3508570
  C       -0.7674710     0.7851500    -0.1025020
  C        2.1481850     0.6250380     0.6971500
  C       -0.4596220    -0.5879500    -0.1790540
  C        2.0510250    -0.7686880     0.1361100
  C       -2.1103850     1.1321340     0.1249900
  C       -1.4919760    -1.5397800    -0.0852490
  C       -3.1313420     0.1920050     0.2149350
  C       -2.8150140    -1.1632860     0.1069400
  H       -0.1141940     2.5504580    -1.1051150
  H        0.0480080     2.5950730     0.6372840
  H        1.9308140     1.2745600    -1.3520490
  H        2.2359360     2.5841340    -0.2253410
  H        1.5370720     0.7103830     1.6057590
  H        3.1934550     0.7649280     0.9813470
  H        0.8461440    -2.0798130    -0.7458600
  H       -2.3558010     2.1909910     0.2008090
  H       -1.2325710    -2.5958500    -0.1409630
  H       -4.1571650     0.5114050     0.3790120
  H       -3.5892060    -1.9233590     0.1747080
units angstrom
no_reorient  #important for SAPT in psi4, default
symmetry c1  #important for SAPT in psi4, default
}

set PROPERTIES_ORIGIN ["COM"]
properties('MP2/aug-cc-pvtz', properties = ['dipole'])
--------------------------------------------------------------------------

    Molecular point group: c1
  Charge       = 0
  Multiplicity = 1
  Basis Set: AUG-CC-PVTZ
    Blend: AUG-CC-PVTZ
  Basis Set: (AUG-CC-PVTZ AUX)
    Blend: AUG-CC-PVTZ-JKFIT

    Orbital Energies [Eh]
    ---------------------

    Doubly Occupied:

       1A    -20.525818     2A    -15.596883     3A    -11.357255
       4A    -11.297006     5A    -11.252895     6A    -11.249729
       7A    -11.246922     8A    -11.246146     9A    -11.244848
      10A    -11.244508    11A    -11.242171    12A    -11.240921
      13A     -1.380345    14A     -1.254554    15A     -1.155447
      16A     -1.106072    17A     -1.045037    18A     -1.017014
      19A     -0.953202    20A     -0.886116    21A     -0.845552
      22A     -0.806111    23A     -0.765421    24A     -0.721610
      25A     -0.682003    26A     -0.675425    27A     -0.648789
      28A     -0.630263    29A     -0.609598    30A     -0.603682
      31A     -0.597450    32A     -0.582980    33A     -0.565148
      34A     -0.542868    35A     -0.518398    36A     -0.514597
      37A     -0.497014    38A     -0.484801    39A     -0.481877
      40A     -0.435809    41A     -0.425172    42A     -0.337979
      43A     -0.314934

  @DF-RHF Final Energy:  -514.58104565937344

   => Energetics <=

    Nuclear Repulsion Energy =            676.8937373549613312
    One-Electron Energy =               -2041.2888286542815877
    Two-Electron Energy =                 849.8140456399468121
    Total Energy =                       -514.5810456593734443
  Basis Set: (AUG-CC-PVTZ AUX)
    Blend: AUG-CC-PVTZ-RI
    Molecular point group: c1

    Geometry (in Angstrom), charge = 0, multiplicity = 1:

       Center              X                  Y                   Z               Mass
    ------------   -----------------  -----------------  -----------------  -----------------
         O            2.991786627942    -1.501114815488     0.079146194470    15.994914619570
         N            0.823003627942    -1.067092815488    -0.417865805530    14.003074004430
         C            0.168641627942     1.895020784512    -0.251430605530    12.000000000000
         C            1.677026627942     1.693083184512    -0.347159805530    12.000000000000
         C           -0.776214372058     0.833388184512    -0.098804805530    12.000000000000
         C            2.139441627942     0.673276184512     0.700847194470    12.000000000000
         C           -0.468365372058    -0.539711815488    -0.175356805530    12.000000000000
         C            2.042281627942    -0.720449815488     0.139807194470    12.000000000000
         C           -2.119128372058     1.180372184512     0.128687194470    12.000000000000
         C           -1.500719372058    -1.491541815488    -0.081551805530    12.000000000000
         C           -3.140085372058     0.240243184512     0.218632194470    12.000000000000
         C           -2.823757372058    -1.115047815488     0.110637194470    12.000000000000
         H           -0.122937372058     2.598696184512    -1.101417805530     1.007825032230
         H            0.039264627942     2.643311184512     0.640981194470     1.007825032230
         H            1.922070627942     1.322798184512    -1.348351805530     1.007825032230
         H            2.227192627942     2.632372184512    -0.221643805530     1.007825032230
         H            1.528328627942     0.758621184512     1.609456194470     1.007825032230
         H            3.184711627942     0.813166184512     0.985044194470     1.007825032230
         H            0.837400627942    -2.031574815488    -0.742162805530     1.007825032230
         H           -2.364544372058     2.239229184512     0.204506194470     1.007825032230
         H           -1.241314372058    -2.547611815488    -0.137265805530     1.007825032230
         H           -4.165908372058     0.559643184512     0.382709194470     1.007825032230
         H           -3.597949372058    -1.875120815488     0.178405194470     1.007825032230

  Basis Set: AUG-CC-PVTZ
    Blend: AUG-CC-PVTZ
  Basis Set: (AUG-CC-PVTZ AUX)
    Blend: AUG-CC-PVTZ-JKFIT
	 Reference Energy          =    -514.5810456593734443 [Eh]
	 Singles Energy            =      -0.0000000000000000 [Eh]
	 Same-Spin Energy          =      -0.5591925880638624 [Eh]
	 Opposite-Spin Energy      =      -1.7449062909671249 [Eh]
	 Correlation Energy        =      -2.3040988790309873 [Eh]
	 Total Energy              =    -516.8851445384044609 [Eh]

	 ================> DF-SCS-MP2 Energies <==================
	-----------------------------------------------------------
	 SCS Same-Spin Scale       =       0.3333333333333333 [-]
	 SCS Opposite-Spin Scale   =       1.2000000000000000 [-]
	 SCS Same-Spin Energy      =      -0.1863975293546208 [Eh]
	 SCS Opposite-Spin Energy  =      -2.0938875491605500 [Eh]
	 SCS Correlation Energy    =      -2.2802850785151709 [Eh]
	 SCS Total Energy          =    -516.8613307378885793 [Eh]
	-----------------------------------------------------------

  Dipole Moment: [D]
     X:    -2.7273      Y:     2.0312      Z:     0.0154     Total:     3.4006

*** Psi4 exiting successfully. Buy a developer a beer!
