                               Psi4 1.3.2 release

  ==> Input File <==

--------------------------------------------------------------------------
#psi4
#
memory 32 gb

molecule  {
0 1
  O        3.0005300    -1.5493530     0.0754490
  N        0.8317470    -1.1153310    -0.4215630
  C        0.2158766     1.9332483    -0.2430923
  C        1.6857700     1.6448450    -0.3508570
  C       -0.7674710     0.7851500    -0.1025020
  C        2.1481850     0.6250380     0.6971500
  C       -0.4596220    -0.5879500    -0.1790540
  C        2.0510250    -0.7686880     0.1361100
  C       -2.1103850     1.1321340     0.1249900
  C       -1.4919760    -1.5397800    -0.0852490
  C       -3.1313420     0.1920050     0.2149350
  C       -2.8150140    -1.1632860     0.1069400
  H       -0.1141940     2.5504580    -1.1051150
  H        0.0480080     2.5950730     0.6372840
  H        1.9308140     1.2745600    -1.3520490
  H        2.2359360     2.5841340    -0.2253410
  H        1.5370720     0.7103830     1.6057590
  H        3.1934550     0.7649280     0.9813470
  H        0.8461440    -2.0798130    -0.7458600
  H       -2.3558010     2.1909910     0.2008090
  H       -1.2325710    -2.5958500    -0.1409630
  H       -4.1571650     0.5114050     0.3790120
  H       -3.5892060    -1.9233590     0.1747080
units angstrom
no_reorient  #important for SAPT in psi4, default
symmetry c1  #important for SAPT in psi4, default
}

set PROPERTIES_ORIGIN ["COM"]
properties('MP2/aug-cc-pvtz', properties = ['dipole'])
--------------------------------------------------------------------------

    Molecular point group: c1
  Charge       = 0
  Multiplicity = 1
  Basis Set: AUG-CC-PVTZ
    Blend: AUG-CC-PVTZ
  Basis Set: (AUG-CC-PVTZ AUX)
    Blend: AUG-CC-PVTZ-JKFIT

    Orbital Energies [Eh]
    ---------------------

    Doubly Occupied:

       1A    -20.525764     2A    -15.596253     3A    -11.357143
       4A    -11.296829     5A    -11.255709     6A    -11.246419
       7A    -11.246393     8A    -11.245416     9A    -11.244377
      10A    -11.242938    11A    -11.241673    12A    -11.240121
      13A     -1.380210    14A     -1.253202    15A     -1.151578
      16A     -1.104512    17A     -1.038820    18A     -1.016403
      19A     -0.958059    20A     -0.880659    21A     -0.843054
      22A     -0.807830    23A     -0.765695    24A     -0.721790
      25A     -0.682153    26A     -0.670994    27A     -0.646733
      28A     -0.629066    29A     -0.611790    30A     -0.602940
      31A     -0.600637    32A     -0.578699    33A     -0.564161
      34A     -0.542442    35A     -0.518013    36A     -0.510797
      37A     -0.499710    38A     -0.490105    39A     -0.483344
      40A     -0.435386    41A     -0.426075    42A     -0.340165
      43A     -0.315804

  @DF-RHF Final Energy:  -514.59329139614351

   => Energetics <=

    Nuclear Repulsion Energy =            675.3889547351748206
    One-Electron Energy =               -2038.3447769134872942
    Two-Electron Energy =                 848.3625307821689603
    Total Energy =                       -514.5932913961435133
  Basis Set: (AUG-CC-PVTZ AUX)
    Blend: AUG-CC-PVTZ-RI
    Molecular point group: c1

    Geometry (in Angstrom), charge = 0, multiplicity = 1:

       Center              X                  Y                   Z               Mass
    ------------   -----------------  -----------------  -----------------  -----------------
         O            2.988919186008    -1.507556100705     0.078249606711    15.994914619570
         N            0.820136186008    -1.073534100705    -0.418762393289    14.003074004430
         C            0.204265786008     1.975045199295    -0.240291693289    12.000000000000
         C            1.674159186008     1.686641899295    -0.348056393289    12.000000000000
         C           -0.779081813992     0.826946899295    -0.099701393289    12.000000000000
         C            2.136574186008     0.666834899295     0.699950606711    12.000000000000
         C           -0.471232813992    -0.546153100705    -0.176253393289    12.000000000000
         C            2.039414186008    -0.726891100705     0.138910606711    12.000000000000
         C           -2.121995813992     1.173930899295     0.127790606711    12.000000000000
         C           -1.503586813992    -1.497983100705    -0.082448393289    12.000000000000
         C           -3.142952813992     0.233801899295     0.217735606711    12.000000000000
         C           -2.826624813992    -1.121489100705     0.109740606711    12.000000000000
         H           -0.125804813992     2.592254899295    -1.102314393289     1.007825032230
         H            0.036397186008     2.636869899295     0.640084606711     1.007825032230
         H            1.919203186008     1.316356899295    -1.349248393289     1.007825032230
         H            2.224325186008     2.625930899295    -0.222540393289     1.007825032230
         H            1.525461186008     0.752179899295     1.608559606711     1.007825032230
         H            3.181844186008     0.806724899295     0.984147606711     1.007825032230
         H            0.834533186008    -2.038016100705    -0.743059393289     1.007825032230
         H           -2.367411813992     2.232787899295     0.203609606711     1.007825032230
         H           -1.244181813992    -2.554053100705    -0.138162393289     1.007825032230
         H           -4.168775813992     0.553201899295     0.381812606711     1.007825032230
         H           -3.600816813992    -1.881562100705     0.177508606711     1.007825032230

  Basis Set: AUG-CC-PVTZ
    Blend: AUG-CC-PVTZ
  Basis Set: (AUG-CC-PVTZ AUX)
    Blend: AUG-CC-PVTZ-JKFIT
	 Reference Energy          =    -514.5932913961435133 [Eh]
	 Singles Energy            =      -0.0000000000000000 [Eh]
	 Same-Spin Energy          =      -0.5580875355249026 [Eh]
	 Opposite-Spin Energy      =      -1.7432813731650389 [Eh]
	 Correlation Energy        =      -2.3013689086899416 [Eh]
	 Total Energy              =    -516.8946603048334509 [Eh]

	 ================> DF-SCS-MP2 Energies <==================
	-----------------------------------------------------------
	 SCS Same-Spin Scale       =       0.3333333333333333 [-]
	 SCS Opposite-Spin Scale   =       1.2000000000000000 [-]
	 SCS Same-Spin Energy      =      -0.1860291785083009 [Eh]
	 SCS Opposite-Spin Energy  =      -2.0919376477980465 [Eh]
	 SCS Correlation Energy    =      -2.2779668263063475 [Eh]
	 SCS Total Energy          =    -516.8712582224499101 [Eh]
	-----------------------------------------------------------

  Dipole Moment: [D]
     X:    -2.7246      Y:     2.0586      Z:     0.0310     Total:     3.4150

*** Psi4 exiting successfully. Buy a developer a beer!
