                               Psi4 1.3.2 release

  ==> Input File <==

--------------------------------------------------------------------------
#psi4
#
memory 32 gb

molecule  {
0 1
  O        3.0005300    -1.5493530     0.0754490
  N        0.8317470    -1.1153310    -0.4215630
  C        0.1960040     1.9504030    -0.2395030
  C        1.7102208     1.6557364    -0.3507054
  C       -0.7674710     0.7851500    -0.1025020
  C        2.1481850     0.6250380     0.6971500
  C       -0.4596220    -0.5879500    -0.1790540
  C        2.0510250    -0.7686880     0.1361100
  C       -2.1103850     1.1321340     0.1249900
  C       -1.4919760    -1.5397800    -0.0852490
  C       -3.1313420     0.1920050     0.2149350
  C       -2.8150140    -1.1632860     0.1069400
  H       -0.1141940     2.5504580    -1.1051150
  H        0.0480080     2.5950730     0.6372840
  H        1.9308140     1.2745600    -1.3520490
  H        2.2359360     2.5841340    -0.2253410
  H        1.5370720     0.7103830     1.6057590
  H        3.1934550     0.7649280     0.9813470
  H        0.8461440    -2.0798130    -0.7458600
  H       -2.3558010     2.1909910     0.2008090
  H       -1.2325710    -2.5958500    -0.1409630
  H       -4.1571650     0.5114050     0.3790120
  H       -3.5892060    -1.9233590     0.1747080
units angstrom
no_reorient  #important for SAPT in psi4, default
symmetry c1  #important for SAPT in psi4, default
}

set PROPERTIES_ORIGIN ["COM"]
properties('MP2/aug-cc-pvtz', properties = ['dipole'])
--------------------------------------------------------------------------

    Molecular point group: c1
  Charge       = 0
  Multiplicity = 1
  Basis Set: AUG-CC-PVTZ
    Blend: AUG-CC-PVTZ
  Basis Set: (AUG-CC-PVTZ AUX)
    Blend: AUG-CC-PVTZ-JKFIT

    Orbital Energies [Eh]
    ---------------------

    Doubly Occupied:

       1A    -20.525766     2A    -15.596257     3A    -11.357230
       4A    -11.297209     5A    -11.255444     6A    -11.246408
       7A    -11.245479     8A    -11.245019     9A    -11.244402
      10A    -11.242680    11A    -11.241522    12A    -11.239842
      13A     -1.380154    14A     -1.252947    15A     -1.151346
      16A     -1.099705    17A     -1.039006    18A     -1.015972
      19A     -0.955353    20A     -0.881788    21A     -0.842788
      22A     -0.809605    23A     -0.765501    24A     -0.721609
      25A     -0.680922    26A     -0.670714    27A     -0.647315
      28A     -0.628760    29A     -0.609927    30A     -0.603403
      31A     -0.600729    32A     -0.578642    33A     -0.564912
      34A     -0.543954    35A     -0.517501    36A     -0.511389
      37A     -0.496964    38A     -0.489375    39A     -0.484111
      40A     -0.435392    41A     -0.426191    42A     -0.340490
      43A     -0.315994

  @DF-RHF Final Energy:  -514.59389966883873

   => Energetics <=

    Nuclear Repulsion Energy =            674.6332557280425135
    One-Electron Energy =               -2036.8548807801853400
    Two-Electron Energy =                 847.6277253833040959
    Total Energy =                       -514.5938996688387306
  Basis Set: (AUG-CC-PVTZ AUX)
    Blend: AUG-CC-PVTZ-RI
    Molecular point group: c1

    Geometry (in Angstrom), charge = 0, multiplicity = 1:

       Center              X                  Y                   Z               Mass
    ------------   -----------------  -----------------  -----------------  -----------------
         O            2.988578131787    -1.509645402351     0.077970927375    15.994914619570
         N            0.819795131787    -1.075623402351    -0.419041072625    14.003074004430
         C            0.184052131787     1.990110597649    -0.236981072625    12.000000000000
         C            1.698268931787     1.695443997649    -0.348183472625    12.000000000000
         C           -0.779422868213     0.824857597649    -0.099980072625    12.000000000000
         C            2.136233131787     0.664745597649     0.699671927375    12.000000000000
         C           -0.471573868213    -0.548242402351    -0.176532072625    12.000000000000
         C            2.039073131787    -0.728980402351     0.138631927375    12.000000000000
         C           -2.122336868213     1.171841597649     0.127511927375    12.000000000000
         C           -1.503927868213    -1.500072402351    -0.082727072625    12.000000000000
         C           -3.143293868213     0.231712597649     0.217456927375    12.000000000000
         C           -2.826965868213    -1.123578402351     0.109461927375    12.000000000000
         H           -0.126145868213     2.590165597649    -1.102593072625     1.007825032230
         H            0.036056131787     2.634780597649     0.639805927375     1.007825032230
         H            1.918862131787     1.314267597649    -1.349527072625     1.007825032230
         H            2.223984131787     2.623841597649    -0.222819072625     1.007825032230
         H            1.525120131787     0.750090597649     1.608280927375     1.007825032230
         H            3.181503131787     0.804635597649     0.983868927375     1.007825032230
         H            0.834192131787    -2.040105402351    -0.743338072625     1.007825032230
         H           -2.367752868213     2.230698597649     0.203330927375     1.007825032230
         H           -1.244522868213    -2.556142402351    -0.138441072625     1.007825032230
         H           -4.169116868213     0.551112597649     0.381533927375     1.007825032230
         H           -3.601157868213    -1.883651402351     0.177229927375     1.007825032230

  Basis Set: AUG-CC-PVTZ
    Blend: AUG-CC-PVTZ
  Basis Set: (AUG-CC-PVTZ AUX)
    Blend: AUG-CC-PVTZ-JKFIT
	 Reference Energy          =    -514.5938996688387306 [Eh]
	 Singles Energy            =      -0.0000000000000000 [Eh]
	 Same-Spin Energy          =      -0.5577412518712278 [Eh]
	 Opposite-Spin Energy      =      -1.7429711781536734 [Eh]
	 Correlation Energy        =      -2.3007124300249013 [Eh]
	 Total Energy              =    -516.8946120988636039 [Eh]

	 ================> DF-SCS-MP2 Energies <==================
	-----------------------------------------------------------
	 SCS Same-Spin Scale       =       0.3333333333333333 [-]
	 SCS Opposite-Spin Scale   =       1.2000000000000000 [-]
	 SCS Same-Spin Energy      =      -0.1859137506237426 [Eh]
	 SCS Opposite-Spin Energy  =      -2.0915654137844082 [Eh]
	 SCS Correlation Energy    =      -2.2774791644081507 [Eh]
	 SCS Total Energy          =    -516.8713788332469221 [Eh]
	-----------------------------------------------------------

  Dipole Moment: [D]
     X:    -2.7330      Y:     2.0631      Z:     0.0336     Total:     3.4245

*** Psi4 exiting successfully. Buy a developer a beer!
