                               Psi4 1.4a3.dev225

  ==> Input File <==

--------------------------------------------------------------------------
#psi4
#
memory 32 gb

molecule  {
0 1
  O        3.0005300    -1.5493530     0.0754490
  N        0.8317470    -1.1153310    -0.4215630
  C        0.1960040     1.9504030    -0.2395030
  C        1.6857700     1.6448450    -0.3508570
  C       -0.7674710     0.7851500    -0.1025020
  C        2.1481850     0.6250380     0.6971500
  C       -0.4596220    -0.5879500    -0.1790540
  C        2.0510250    -0.7686880     0.1361100
  C       -2.1103850     1.1321340     0.1249900
  C       -1.4919760    -1.5397800    -0.0852490
  C       -3.1313420     0.1920050     0.2149350
  C       -2.8150140    -1.1632860     0.1069400
  H       -0.1198443     2.5613881    -1.1208823
  H        0.0480080     2.5950730     0.6372840
  H        1.9308140     1.2745600    -1.3520490
  H        2.2359360     2.5841340    -0.2253410
  H        1.5370720     0.7103830     1.6057590
  H        3.1934550     0.7649280     0.9813470
  H        0.8461440    -2.0798130    -0.7458600
  H       -2.3558010     2.1909910     0.2008090
  H       -1.2325710    -2.5958500    -0.1409630
  H       -4.1571650     0.5114050     0.3790120
  H       -3.5892060    -1.9233590     0.1747080
units angstrom
no_reorient  #important for SAPT in psi4, default
symmetry c1  #important for SAPT in psi4, default
}

set PROPERTIES_ORIGIN ["COM"]
properties('MP2/aug-cc-pvtz', properties = ['dipole'])
--------------------------------------------------------------------------

    Molecular point group: c1
  Charge       = 0
  Multiplicity = 1
  Basis Set: AUG-CC-PVTZ
    Blend: AUG-CC-PVTZ
  Basis Set: (AUG-CC-PVTZ AUX)
    Blend: AUG-CC-PVTZ-JKFIT

    Orbital Energies [Eh]
    ---------------------

    Doubly Occupied:

       1A    -20.525713     2A    -15.596203     3A    -11.357059
       4A    -11.297414     5A    -11.255342     6A    -11.247354
       7A    -11.246536     8A    -11.245071     9A    -11.244503
      10A    -11.243041    11A    -11.242322    12A    -11.239887
      13A     -1.380148    14A     -1.253088    15A     -1.151517
      16A     -1.101546    17A     -1.038882    18A     -1.016160
      19A     -0.956446    20A     -0.880371    21A     -0.842885
      22A     -0.808305    23A     -0.765446    24A     -0.721819
      25A     -0.681401    26A     -0.670743    27A     -0.646096
      28A     -0.629073    29A     -0.609952    30A     -0.602889
      31A     -0.600755    32A     -0.579009    33A     -0.564307
      34A     -0.542156    35A     -0.517608    36A     -0.510867
      37A     -0.498315    38A     -0.490757    39A     -0.482949
      40A     -0.435363    41A     -0.425977    42A     -0.340469
      43A     -0.316035

  @DF-RHF Final Energy:  -514.59381370942117

   => Energetics <=

    Nuclear Repulsion Energy =            674.9589359272024467
    One-Electron Energy =               -2037.5019398189945150
    Two-Electron Energy =                 847.9491901823708986
    Total Energy =                       -514.5938137094211697
  Basis Set: (AUG-CC-PVTZ AUX)
    Blend: AUG-CC-PVTZ-RI
    Molecular point group: c1

    Geometry (in Angstrom), charge = 0, multiplicity = 1:

       Center              X                  Y                   Z               Mass
    ------------   -----------------  -----------------  -----------------  -----------------
         O            2.990434951800    -1.508902428970     0.078080869223    15.994914619570
         N            0.821651951800    -1.074880428970    -0.418931130777    14.003074004430
         C            0.185908951800     1.990853571030    -0.236871130777    12.000000000000
         C            1.675674951800     1.685295571030    -0.348225130777    12.000000000000
         C           -0.777566048200     0.825600571030    -0.099870130777    12.000000000000
         C            2.138089951800     0.665488571030     0.699781869223    12.000000000000
         C           -0.469717048200    -0.547499428970    -0.176422130777    12.000000000000
         C            2.040929951800    -0.728237428970     0.138741869223    12.000000000000
         C           -2.120480048200     1.172584571030     0.127621869223    12.000000000000
         C           -1.502071048200    -1.499329428970    -0.082617130777    12.000000000000
         C           -3.141437048200     0.232455571030     0.217566869223    12.000000000000
         C           -2.825109048200    -1.122835428970     0.109571869223    12.000000000000
         H           -0.129939348200     2.601838671030    -1.118250430777     1.007825032230
         H            0.037912951800     2.635523571030     0.639915869223     1.007825032230
         H            1.920718951800     1.315010571030    -1.349417130777     1.007825032230
         H            2.225840951800     2.624584571030    -0.222709130777     1.007825032230
         H            1.526976951800     0.750833571030     1.608390869223     1.007825032230
         H            3.183359951800     0.805378571030     0.983978869223     1.007825032230
         H            0.836048951800    -2.039362428970    -0.743228130777     1.007825032230
         H           -2.365896048200     2.231441571030     0.203440869223     1.007825032230
         H           -1.242666048200    -2.555399428970    -0.138331130777     1.007825032230
         H           -4.167260048200     0.551855571030     0.381643869223     1.007825032230
         H           -3.599301048200    -1.882908428970     0.177339869223     1.007825032230

  Basis Set: AUG-CC-PVTZ
    Blend: AUG-CC-PVTZ
  Basis Set: (AUG-CC-PVTZ AUX)
    Blend: AUG-CC-PVTZ-JKFIT
	 Reference Energy          =    -514.5938137094211697 [Eh]
	 Singles Energy            =      -0.0000000000000000 [Eh]
	 Same-Spin Energy          =      -0.5578927112610301 [Eh]
	 Opposite-Spin Energy      =      -1.7431964985795745 [Eh]
	 Correlation Energy        =      -2.3010892098406046 [Eh]
	 Total Energy              =    -516.8949029192617672 [Eh]

	 ================> DF-SCS-MP2 Energies <==================
	-----------------------------------------------------------
	 SCS Same-Spin Scale       =       0.3333333333333333 [-]
	 SCS Opposite-Spin Scale   =       1.2000000000000000 [-]
	 SCS Same-Spin Energy      =      -0.1859642370870100 [Eh]
	 SCS Opposite-Spin Energy  =      -2.0918357982954894 [Eh]
	 SCS Correlation Energy    =      -2.2778000353824992 [Eh]
	 SCS Total Energy          =    -516.8716137448036534 [Eh]
	-----------------------------------------------------------

  Dipole Moment: [D]
     X:    -2.7384      Y:     2.0523      Z:     0.0410     Total:     3.4224

*** Psi4 exiting successfully. Buy a developer a beer!
