                               Psi4 1.3.2 release

  ==> Input File <==

--------------------------------------------------------------------------
#psi4
#
memory 32 gb

molecule  {
0 1
  O        3.0005300    -1.5493530     0.0754490
  N        0.8902332    -1.2448601    -0.4500828
  C        0.1960040     1.9504030    -0.2395030
  C        1.6857700     1.6448450    -0.3508570
  C       -0.7674710     0.7851500    -0.1025020
  C        2.1481850     0.6250380     0.6971500
  C       -0.4596220    -0.5879500    -0.1790540
  C        2.0510250    -0.7686880     0.1361100
  C       -2.1103850     1.1321340     0.1249900
  C       -1.4919760    -1.5397800    -0.0852490
  C       -3.1313420     0.1920050     0.2149350
  C       -2.8150140    -1.1632860     0.1069400
  H       -0.1141940     2.5504580    -1.1051150
  H        0.0480080     2.5950730     0.6372840
  H        1.9308140     1.2745600    -1.3520490
  H        2.2359360     2.5841340    -0.2253410
  H        1.5370720     0.7103830     1.6057590
  H        3.1934550     0.7649280     0.9813470
  H        0.8461440    -2.0798130    -0.7458600
  H       -2.3558010     2.1909910     0.2008090
  H       -1.2325710    -2.5958500    -0.1409630
  H       -4.1571650     0.5114050     0.3790120
  H       -3.5892060    -1.9233590     0.1747080
units angstrom
no_reorient  #important for SAPT in psi4, default
symmetry c1  #important for SAPT in psi4, default
}

set PROPERTIES_ORIGIN ["COM"]
properties('MP2/aug-cc-pvtz', properties = ['dipole'])
--------------------------------------------------------------------------

    Molecular point group: c1
  Charge       = 0
  Multiplicity = 1
  Basis Set: AUG-CC-PVTZ
    Blend: AUG-CC-PVTZ
  Basis Set: (AUG-CC-PVTZ AUX)
    Blend: AUG-CC-PVTZ-JKFIT

    Orbital Energies [Eh]
    ---------------------

    Doubly Occupied:

       1A    -20.515140     2A    -15.583309     3A    -11.352137
       4A    -11.301426     5A    -11.261319     6A    -11.247544
       7A    -11.247471     8A    -11.247364     9A    -11.246803
      10A    -11.246246    11A    -11.244052    12A    -11.243340
      13A     -1.376885    14A     -1.235996    15A     -1.155994
      16A     -1.103852    17A     -1.039484    18A     -1.016741
      19A     -0.963915    20A     -0.876607    21A     -0.841393
      22A     -0.806113    23A     -0.790023    24A     -0.712525
      25A     -0.684058    26A     -0.667746    27A     -0.649118
      28A     -0.628929    29A     -0.613846    30A     -0.602398
      31A     -0.600392    32A     -0.577285    33A     -0.565629
      34A     -0.540573    35A     -0.516208    36A     -0.511471
      37A     -0.499222    38A     -0.494794    39A     -0.482929
      40A     -0.425282    41A     -0.418749    42A     -0.341909
      43A     -0.323939

  @DF-RHF Final Energy:  -514.56762257374407

   => Energetics <=

    Nuclear Repulsion Energy =            672.7737832141634726
    One-Electron Energy =               -2033.0824990571252329
    Two-Electron Energy =                 845.7410932692175720
    Total Energy =                       -514.5676225737440745
  Basis Set: (AUG-CC-PVTZ AUX)
    Blend: AUG-CC-PVTZ-RI
    Molecular point group: c1

    Geometry (in Angstrom), charge = 0, multiplicity = 1:

       Center              X                  Y                   Z               Mass
    ------------   -----------------  -----------------  -----------------  -----------------
         O            2.985315382053    -1.497574050754     0.080461453502    15.994914619570
         N            0.875018582053    -1.193081150754    -0.445070346498    14.003074004430
         C            0.180789382053     2.002181949246    -0.234490546498    12.000000000000
         C            1.670555382053     1.696623949246    -0.345844546498    12.000000000000
         C           -0.782685617947     0.836928949246    -0.097489546498    12.000000000000
         C            2.132970382053     0.676816949246     0.702162453502    12.000000000000
         C           -0.474836617947    -0.536171050754    -0.174041546498    12.000000000000
         C            2.035810382053    -0.716909050754     0.141122453502    12.000000000000
         C           -2.125599617947     1.183912949246     0.130002453502    12.000000000000
         C           -1.507190617947    -1.488001050754    -0.080236546498    12.000000000000
         C           -3.146556617947     0.243783949246     0.219947453502    12.000000000000
         C           -2.830228617947    -1.111507050754     0.111952453502    12.000000000000
         H           -0.129408617947     2.602236949246    -1.100102546498     1.007825032230
         H            0.032793382053     2.646851949246     0.642296453502     1.007825032230
         H            1.915599382053     1.326338949246    -1.347036546498     1.007825032230
         H            2.220721382053     2.635912949246    -0.220328546498     1.007825032230
         H            1.521857382053     0.762161949246     1.610771453502     1.007825032230
         H            3.178240382053     0.816706949246     0.986359453502     1.007825032230
         H            0.830929382053    -2.028034050754    -0.740847546498     1.007825032230
         H           -2.371015617947     2.242769949246     0.205821453502     1.007825032230
         H           -1.247785617947    -2.544071050754    -0.135950546498     1.007825032230
         H           -4.172379617947     0.563183949246     0.384024453502     1.007825032230
         H           -3.604420617947    -1.871580050754     0.179720453502     1.007825032230

  Basis Set: AUG-CC-PVTZ
    Blend: AUG-CC-PVTZ
  Basis Set: (AUG-CC-PVTZ AUX)
    Blend: AUG-CC-PVTZ-JKFIT
	 Reference Energy          =    -514.5676225737440745 [Eh]
	 Singles Energy            =      -0.0000000000000000 [Eh]
	 Same-Spin Energy          =      -0.5560742154007058 [Eh]
	 Opposite-Spin Energy      =      -1.7413853574868852 [Eh]
	 Correlation Energy        =      -2.2974595728875911 [Eh]
	 Total Energy              =    -516.8650821466317211 [Eh]

	 ================> DF-SCS-MP2 Energies <==================
	-----------------------------------------------------------
	 SCS Same-Spin Scale       =       0.3333333333333333 [-]
	 SCS Opposite-Spin Scale   =       1.2000000000000000 [-]
	 SCS Same-Spin Energy      =      -0.1853580718002353 [Eh]
	 SCS Opposite-Spin Energy  =      -2.0896624289842620 [Eh]
	 SCS Correlation Energy    =      -2.2750205007844975 [Eh]
	 SCS Total Energy          =    -516.8426430745286098 [Eh]
	-----------------------------------------------------------

  Dipole Moment: [D]
     X:    -3.0155      Y:     2.3265      Z:     0.1022     Total:     3.8100

*** Psi4 exiting successfully. Buy a developer a beer!
