                               Psi4 1.3.2 release

  ==> Input File <==

--------------------------------------------------------------------------
#psi4
#
memory 32 gb

molecule  {
0 1
  O        3.0005300    -1.5493530     0.0754490
  N        0.8317470    -1.1153310    -0.4215630
  C        0.1960040     1.9504030    -0.2395030
  C        1.6810708     1.6247929    -0.3679543
  C       -0.7674710     0.7851500    -0.1025020
  C        2.1481850     0.6250380     0.6971500
  C       -0.4596220    -0.5879500    -0.1790540
  C        2.0510250    -0.7686880     0.1361100
  C       -2.1103850     1.1321340     0.1249900
  C       -1.4919760    -1.5397800    -0.0852490
  C       -3.1313420     0.1920050     0.2149350
  C       -2.8150140    -1.1632860     0.1069400
  H       -0.1141940     2.5504580    -1.1051150
  H        0.0480080     2.5950730     0.6372840
  H        1.9308140     1.2745600    -1.3520490
  H        2.2359360     2.5841340    -0.2253410
  H        1.5370720     0.7103830     1.6057590
  H        3.1934550     0.7649280     0.9813470
  H        0.8461440    -2.0798130    -0.7458600
  H       -2.3558010     2.1909910     0.2008090
  H       -1.2325710    -2.5958500    -0.1409630
  H       -4.1571650     0.5114050     0.3790120
  H       -3.5892060    -1.9233590     0.1747080
units angstrom
no_reorient  #important for SAPT in psi4, default
symmetry c1  #important for SAPT in psi4, default
}

set PROPERTIES_ORIGIN ["COM"]
properties('MP2/aug-cc-pvtz', properties = ['dipole'])
--------------------------------------------------------------------------

    Molecular point group: c1
  Charge       = 0
  Multiplicity = 1
  Basis Set: AUG-CC-PVTZ
    Blend: AUG-CC-PVTZ
  Basis Set: (AUG-CC-PVTZ AUX)
    Blend: AUG-CC-PVTZ-JKFIT

    Orbital Energies [Eh]
    ---------------------

    Doubly Occupied:

       1A    -20.525363     2A    -15.596018     3A    -11.356583
       4A    -11.297244     5A    -11.254790     6A    -11.246402
       7A    -11.245255     8A    -11.244875     9A    -11.244406
      10A    -11.243010    11A    -11.242268    12A    -11.239769
      13A     -1.379917    14A     -1.253017    15A     -1.151433
      16A     -1.101982    17A     -1.039007    18A     -1.016010
      19A     -0.956963    20A     -0.879989    21A     -0.842741
      22A     -0.809728    23A     -0.765201    24A     -0.722187
      25A     -0.682411    26A     -0.670749    27A     -0.644749
      28A     -0.629185    29A     -0.611055    30A     -0.603628
      31A     -0.600172    32A     -0.578411    33A     -0.564447
      34A     -0.540791    35A     -0.518211    36A     -0.513528
      37A     -0.500781    38A     -0.492720    39A     -0.479072
      40A     -0.435282    41A     -0.425175    42A     -0.340485
      43A     -0.315935

  @DF-RHF Final Energy:  -514.59352238584029

   => Energetics <=

    Nuclear Repulsion Energy =            675.2798226773364831
    One-Electron Energy =               -2038.1448003947300549
    Two-Electron Energy =                 848.2714553315533976
    Total Energy =                       -514.5935223858402878
  Basis Set: (AUG-CC-PVTZ AUX)
    Blend: AUG-CC-PVTZ-RI
    Molecular point group: c1

    Geometry (in Angstrom), charge = 0, multiplicity = 1:

       Center              X                  Y                   Z               Mass
    ------------   -----------------  -----------------  -----------------  -----------------
         O            2.990749668756    -1.507340258125     0.079255888748    15.994914619570
         N            0.821966668756    -1.073318258125    -0.417756111252    14.003074004430
         C            0.186223668756     1.992415741875    -0.235696111252    12.000000000000
         C            1.671290468756     1.666805641875    -0.364147411252    12.000000000000
         C           -0.777251331244     0.827162741875    -0.098695111252    12.000000000000
         C            2.138404668756     0.667050741875     0.700956888748    12.000000000000
         C           -0.469402331244    -0.545937258125    -0.175247111252    12.000000000000
         C            2.041244668756    -0.726675258125     0.139916888748    12.000000000000
         C           -2.120165331244     1.174146741875     0.128796888748    12.000000000000
         C           -1.501756331244    -1.497767258125    -0.081442111252    12.000000000000
         C           -3.141122331244     0.234017741875     0.218741888748    12.000000000000
         C           -2.824794331244    -1.121273258125     0.110746888748    12.000000000000
         H           -0.123974331244     2.592470741875    -1.101308111252     1.007825032230
         H            0.038227668756     2.637085741875     0.641090888748     1.007825032230
         H            1.921033668756     1.316572741875    -1.348242111252     1.007825032230
         H            2.226155668756     2.626146741875    -0.221534111252     1.007825032230
         H            1.527291668756     0.752395741875     1.609565888748     1.007825032230
         H            3.183674668756     0.806940741875     0.985153888748     1.007825032230
         H            0.836363668756    -2.037800258125    -0.742053111252     1.007825032230
         H           -2.365581331244     2.233003741875     0.204615888748     1.007825032230
         H           -1.242351331244    -2.553837258125    -0.137156111252     1.007825032230
         H           -4.166945331244     0.553417741875     0.382818888748     1.007825032230
         H           -3.598986331244    -1.881346258125     0.178514888748     1.007825032230

  Basis Set: AUG-CC-PVTZ
    Blend: AUG-CC-PVTZ
  Basis Set: (AUG-CC-PVTZ AUX)
    Blend: AUG-CC-PVTZ-JKFIT
	 Reference Energy          =    -514.5935223858402878 [Eh]
	 Singles Energy            =      -0.0000000000000000 [Eh]
	 Same-Spin Energy          =      -0.5579134660320195 [Eh]
	 Opposite-Spin Energy      =      -1.7430902651601370 [Eh]
	 Correlation Energy        =      -2.3010037311921563 [Eh]
	 Total Energy              =    -516.8945261170324557 [Eh]

	 ================> DF-SCS-MP2 Energies <==================
	-----------------------------------------------------------
	 SCS Same-Spin Scale       =       0.3333333333333333 [-]
	 SCS Opposite-Spin Scale   =       1.2000000000000000 [-]
	 SCS Same-Spin Energy      =      -0.1859711553440065 [Eh]
	 SCS Opposite-Spin Energy  =      -2.0917083181921643 [Eh]
	 SCS Correlation Energy    =      -2.2776794735361707 [Eh]
	 SCS Total Energy          =    -516.8712018593764697 [Eh]
	-----------------------------------------------------------

  Dipole Moment: [D]
     X:    -2.7391      Y:     2.0582      Z:     0.0299     Total:     3.4263

*** Psi4 exiting successfully. Buy a developer a beer!
