                               Psi4 1.3.2 release

  ==> Input File <==

--------------------------------------------------------------------------
#psi4
#
memory 32 gb

molecule  {
0 1
  O        3.0005300    -1.5493530     0.0754490
  N        0.8317470    -1.1153310    -0.4215630
  C        0.1960040     1.9504030    -0.2395030
  C        1.6857700     1.6448450    -0.3508570
  C       -0.7674710     0.7851500    -0.1025020
  C        2.1481850     0.6250380     0.6971500
  C       -0.4596220    -0.5879500    -0.1790540
  C        2.0144936    -0.6807994     0.1529735
  C       -2.1103850     1.1321340     0.1249900
  C       -1.4919760    -1.5397800    -0.0852490
  C       -3.1313420     0.1920050     0.2149350
  C       -2.8150140    -1.1632860     0.1069400
  H       -0.1141940     2.5504580    -1.1051150
  H        0.0480080     2.5950730     0.6372840
  H        1.9308140     1.2745600    -1.3520490
  H        2.2359360     2.5841340    -0.2253410
  H        1.5370720     0.7103830     1.6057590
  H        3.1934550     0.7649280     0.9813470
  H        0.8461440    -2.0798130    -0.7458600
  H       -2.3558010     2.1909910     0.2008090
  H       -1.2325710    -2.5958500    -0.1409630
  H       -4.1571650     0.5114050     0.3790120
  H       -3.5892060    -1.9233590     0.1747080
units angstrom
no_reorient  #important for SAPT in psi4, default
symmetry c1  #important for SAPT in psi4, default
}

set PROPERTIES_ORIGIN ["COM"]
properties('MP2/aug-cc-pvtz', properties = ['dipole'])
--------------------------------------------------------------------------

    Molecular point group: c1
  Charge       = 0
  Multiplicity = 1
  Basis Set: AUG-CC-PVTZ
    Blend: AUG-CC-PVTZ
  Basis Set: (AUG-CC-PVTZ AUX)
    Blend: AUG-CC-PVTZ-JKFIT

    Orbital Energies [Eh]
    ---------------------

    Doubly Occupied:

       1A    -20.513824     2A    -15.602983     3A    -11.362987
       4A    -11.297741     5A    -11.257400     6A    -11.248861
       7A    -11.248195     8A    -11.248194     9A    -11.247126
      10A    -11.245894    11A    -11.245773    12A    -11.241465
      13A     -1.338764    14A     -1.242718    15A     -1.152139
      16A     -1.113580    17A     -1.048526    18A     -1.016922
      19A     -0.968889    20A     -0.885474    21A     -0.844420
      22A     -0.813776    23A     -0.771994    24A     -0.722871
      25A     -0.688364    26A     -0.672140    27A     -0.647351
      28A     -0.628967    29A     -0.608913    30A     -0.605705
      31A     -0.602861    32A     -0.575040    33A     -0.558931
      34A     -0.544688    35A     -0.516142    36A     -0.510907
      37A     -0.499221    38A     -0.494620    39A     -0.479198
      40A     -0.422682    41A     -0.420570    42A     -0.342556
      43A     -0.316628

  @DF-RHF Final Energy:  -514.57246606670662

   => Energetics <=

    Nuclear Repulsion Energy =            675.4707959976491338
    One-Electron Energy =               -2038.4545165185836595
    Two-Electron Energy =                 848.4112544542280148
    Total Energy =                       -514.5724660667066246
  Basis Set: (AUG-CC-PVTZ AUX)
    Blend: AUG-CC-PVTZ-RI
    Molecular point group: c1

    Geometry (in Angstrom), charge = 0, multiplicity = 1:

       Center              X                  Y                   Z               Mass
    ------------   -----------------  -----------------  -----------------  -----------------
         O            2.993121016924    -1.515381329154     0.076725969959    15.994914619570
         N            0.824338016924    -1.081359329154    -0.420286030041    14.003074004430
         C            0.188595016924     1.984374670846    -0.238226030041    12.000000000000
         C            1.678361016924     1.678816670846    -0.349580030041    12.000000000000
         C           -0.774879983076     0.819121670846    -0.101225030041    12.000000000000
         C            2.140776016924     0.659009670846     0.698426969959    12.000000000000
         C           -0.467030983076    -0.553978329154    -0.177777030041    12.000000000000
         C            2.007084616924    -0.646827729154     0.154250469959    12.000000000000
         C           -2.117793983076     1.166105670846     0.126266969959    12.000000000000
         C           -1.499384983076    -1.505808329154    -0.083972030041    12.000000000000
         C           -3.138750983076     0.225976670846     0.216211969959    12.000000000000
         C           -2.822422983076    -1.129314329154     0.108216969959    12.000000000000
         H           -0.121602983076     2.584429670846    -1.103838030041     1.007825032230
         H            0.040599016924     2.629044670846     0.638560969959     1.007825032230
         H            1.923405016924     1.308531670846    -1.350772030041     1.007825032230
         H            2.228527016924     2.618105670846    -0.224064030041     1.007825032230
         H            1.529663016924     0.744354670846     1.607035969959     1.007825032230
         H            3.186046016924     0.798899670846     0.982623969959     1.007825032230
         H            0.838735016924    -2.045841329154    -0.744583030041     1.007825032230
         H           -2.363209983076     2.224962670846     0.202085969959     1.007825032230
         H           -1.239979983076    -2.561878329154    -0.139686030041     1.007825032230
         H           -4.164573983076     0.545376670846     0.380288969959     1.007825032230
         H           -3.596614983076    -1.889387329154     0.175984969959     1.007825032230

  Basis Set: AUG-CC-PVTZ
    Blend: AUG-CC-PVTZ
  Basis Set: (AUG-CC-PVTZ AUX)
    Blend: AUG-CC-PVTZ-JKFIT
	 Reference Energy          =    -514.5724660667066246 [Eh]
	 Singles Energy            =      -0.0000000000000000 [Eh]
	 Same-Spin Energy          =      -0.5605986033360963 [Eh]
	 Opposite-Spin Energy      =      -1.7480043278611848 [Eh]
	 Correlation Energy        =      -2.3086029311972811 [Eh]
	 Total Energy              =    -516.8810689979038671 [Eh]

	 ================> DF-SCS-MP2 Energies <==================
	-----------------------------------------------------------
	 SCS Same-Spin Scale       =       0.3333333333333333 [-]
	 SCS Opposite-Spin Scale   =       1.2000000000000000 [-]
	 SCS Same-Spin Energy      =      -0.1868662011120321 [Eh]
	 SCS Opposite-Spin Energy  =      -2.0976051934334214 [Eh]
	 SCS Correlation Energy    =      -2.2844713945454536 [Eh]
	 SCS Total Energy          =    -516.8569374612520733 [Eh]
	-----------------------------------------------------------

  Dipole Moment: [D]
     X:    -3.0696      Y:     2.4727      Z:     0.0679     Total:     3.9422

*** Psi4 exiting successfully. Buy a developer a beer!
