                               Psi4 1.3.2 release

  ==> Input File <==

--------------------------------------------------------------------------
#psi4
#
memory 32 gb

molecule  {
0 1
  O        3.0005300    -1.5493530     0.0754490
  N        0.8497868    -1.1590005    -0.4317653
  C        0.1960040     1.9504030    -0.2395030
  C        1.6857700     1.6448450    -0.3508570
  C       -0.7674710     0.7851500    -0.1025020
  C        2.1481850     0.6250380     0.6971500
  C       -0.4596220    -0.5879500    -0.1790540
  C        2.0510250    -0.7686880     0.1361100
  C       -2.1103850     1.1321340     0.1249900
  C       -1.4919760    -1.5397800    -0.0852490
  C       -3.1313420     0.1920050     0.2149350
  C       -2.8150140    -1.1632860     0.1069400
  H       -0.1141940     2.5504580    -1.1051150
  H        0.0480080     2.5950730     0.6372840
  H        1.9308140     1.2745600    -1.3520490
  H        2.2359360     2.5841340    -0.2253410
  H        1.5370720     0.7103830     1.6057590
  H        3.1934550     0.7649280     0.9813470
  H        0.8461440    -2.0798130    -0.7458600
  H       -2.3558010     2.1909910     0.2008090
  H       -1.2325710    -2.5958500    -0.1409630
  H       -4.1571650     0.5114050     0.3790120
  H       -3.5892060    -1.9233590     0.1747080
units angstrom
no_reorient  #important for SAPT in psi4, default
symmetry c1  #important for SAPT in psi4, default
}

set PROPERTIES_ORIGIN ["COM"]
properties('MP2/aug-cc-pvtz', properties = ['dipole'])
--------------------------------------------------------------------------

    Molecular point group: c1
  Charge       = 0
  Multiplicity = 1
  Basis Set: AUG-CC-PVTZ
    Blend: AUG-CC-PVTZ
  Basis Set: (AUG-CC-PVTZ AUX)
    Blend: AUG-CC-PVTZ-JKFIT

    Orbital Energies [Eh]
    ---------------------

    Doubly Occupied:

       1A    -20.521905     2A    -15.591907     3A    -11.354811
       4A    -11.298791     5A    -11.257357     6A    -11.246831
       7A    -11.245884     8A    -11.245570     9A    -11.245135
      10A    -11.244226    11A    -11.242774    12A    -11.241099
      13A     -1.378623    14A     -1.246307    15A     -1.152873
      16A     -1.102390    17A     -1.038861    18A     -1.016357
      19A     -0.959392    20A     -0.878395    21A     -0.841900
      22A     -0.807422    23A     -0.772618    24A     -0.719947
      25A     -0.682074    26A     -0.670498    27A     -0.647034
      28A     -0.628763    29A     -0.611795    30A     -0.602780
      31A     -0.601180    32A     -0.579165    33A     -0.565326
      34A     -0.541668    35A     -0.517354    36A     -0.511063
      37A     -0.498240    38A     -0.493390    39A     -0.482868
      40A     -0.432093    41A     -0.423702    42A     -0.341052
      43A     -0.318718

  @DF-RHF Final Energy:  -514.59306132414554

   => Energetics <=

    Nuclear Repulsion Energy =            674.2766426657227612
    One-Electron Energy =               -2036.1391355222958737
    Two-Electron Energy =                 847.2694315324276886
    Total Energy =                       -514.5930613241455376
  Basis Set: (AUG-CC-PVTZ AUX)
    Blend: AUG-CC-PVTZ-RI
    Molecular point group: c1

    Geometry (in Angstrom), charge = 0, multiplicity = 1:

       Center              X                  Y                   Z               Mass
    ------------   -----------------  -----------------  -----------------  -----------------
         O            2.988831396726    -1.505037845142     0.078869109097    15.994914619570
         N            0.838088196726    -1.114685345142    -0.428345190903    14.003074004430
         C            0.184305396726     1.994718154858    -0.236082890903    12.000000000000
         C            1.674071396726     1.689160154858    -0.347436890903    12.000000000000
         C           -0.779169603274     0.829465154858    -0.099081890903    12.000000000000
         C            2.136486396726     0.669353154858     0.700570109097    12.000000000000
         C           -0.471320603274    -0.543634845142    -0.175633890903    12.000000000000
         C            2.039326396726    -0.724372845142     0.139530109097    12.000000000000
         C           -2.122083603274     1.176449154858     0.128410109097    12.000000000000
         C           -1.503674603274    -1.495464845142    -0.081828890903    12.000000000000
         C           -3.143040603274     0.236320154858     0.218355109097    12.000000000000
         C           -2.826712603274    -1.118970845142     0.110360109097    12.000000000000
         H           -0.125892603274     2.594773154858    -1.101694890903     1.007825032230
         H            0.036309396726     2.639388154858     0.640704109097     1.007825032230
         H            1.919115396726     1.318875154858    -1.348628890903     1.007825032230
         H            2.224237396726     2.628449154858    -0.221920890903     1.007825032230
         H            1.525373396726     0.754698154858     1.609179109097     1.007825032230
         H            3.181756396726     0.809243154858     0.984767109097     1.007825032230
         H            0.834445396726    -2.035497845142    -0.742439890903     1.007825032230
         H           -2.367499603274     2.235306154858     0.204229109097     1.007825032230
         H           -1.244269603274    -2.551534845142    -0.137542890903     1.007825032230
         H           -4.168863603274     0.555720154858     0.382432109097     1.007825032230
         H           -3.600904603274    -1.879043845142     0.178128109097     1.007825032230

  Basis Set: AUG-CC-PVTZ
    Blend: AUG-CC-PVTZ
  Basis Set: (AUG-CC-PVTZ AUX)
    Blend: AUG-CC-PVTZ-JKFIT
	 Reference Energy          =    -514.5930613241455376 [Eh]
	 Singles Energy            =      -0.0000000000000000 [Eh]
	 Same-Spin Energy          =      -0.5570917985660404 [Eh]
	 Opposite-Spin Energy      =      -1.7420320889089655 [Eh]
	 Correlation Energy        =      -2.2991238874750062 [Eh]
	 Total Energy              =    -516.8921852116205855 [Eh]

	 ================> DF-SCS-MP2 Energies <==================
	-----------------------------------------------------------
	 SCS Same-Spin Scale       =       0.3333333333333333 [-]
	 SCS Opposite-Spin Scale   =       1.2000000000000000 [-]
	 SCS Same-Spin Energy      =      -0.1856972661886801 [Eh]
	 SCS Opposite-Spin Energy  =      -2.0904385066907585 [Eh]
	 SCS Correlation Energy    =      -2.2761357728794387 [Eh]
	 SCS Total Energy          =    -516.8691970970249940 [Eh]
	-----------------------------------------------------------

  Dipole Moment: [D]
     X:    -2.8408      Y:     2.1457      Z:     0.0544     Total:     3.5605

*** Psi4 exiting successfully. Buy a developer a beer!
