                               Psi4 1.4a3.dev225

  ==> Input File <==

--------------------------------------------------------------------------
#psi4
#
memory 32 gb

molecule  {
0 1
  O        3.0005300    -1.5493530     0.0754490
  N        0.8317470    -1.1153310    -0.4215630
  C        0.1960040     1.9504030    -0.2395030
  C        1.6857700     1.6448450    -0.3508570
  C       -0.7674710     0.7851500    -0.1025020
  C        2.1481850     0.6250380     0.6971500
  C       -0.4140173    -0.6065744    -0.1876182
  C        2.0510250    -0.7686880     0.1361100
  C       -2.1103850     1.1321340     0.1249900
  C       -1.4919760    -1.5397800    -0.0852490
  C       -3.1313420     0.1920050     0.2149350
  C       -2.8150140    -1.1632860     0.1069400
  H       -0.1141940     2.5504580    -1.1051150
  H        0.0480080     2.5950730     0.6372840
  H        1.9308140     1.2745600    -1.3520490
  H        2.2359360     2.5841340    -0.2253410
  H        1.5370720     0.7103830     1.6057590
  H        3.1934550     0.7649280     0.9813470
  H        0.8461440    -2.0798130    -0.7458600
  H       -2.3558010     2.1909910     0.2008090
  H       -1.2325710    -2.5958500    -0.1409630
  H       -4.1571650     0.5114050     0.3790120
  H       -3.5892060    -1.9233590     0.1747080
units angstrom
no_reorient  #important for SAPT in psi4, default
symmetry c1  #important for SAPT in psi4, default
}

set PROPERTIES_ORIGIN ["COM"]
properties('MP2/aug-cc-pvtz', properties = ['dipole'])
--------------------------------------------------------------------------

    Molecular point group: c1
  Charge       = 0
  Multiplicity = 1
  Basis Set: AUG-CC-PVTZ
    Blend: AUG-CC-PVTZ
  Basis Set: (AUG-CC-PVTZ AUX)
    Blend: AUG-CC-PVTZ-JKFIT

    Orbital Energies [Eh]
    ---------------------

    Doubly Occupied:

       1A    -20.529959     2A    -15.600418     3A    -11.360969
       4A    -11.299770     5A    -11.255865     6A    -11.245337
       7A    -11.244588     8A    -11.244031     9A    -11.243575
      10A    -11.243243    11A    -11.242619    12A    -11.237608
      13A     -1.385166    14A     -1.267693    15A     -1.147219
      16A     -1.102001    17A     -1.037158    18A     -1.012963
      19A     -0.955254    20A     -0.884498    21A     -0.842226
      22A     -0.810403    23A     -0.766330    24A     -0.728249
      25A     -0.684333    26A     -0.672311    27A     -0.647118
      28A     -0.627081    29A     -0.612473    30A     -0.603856
      31A     -0.600193    32A     -0.579455    33A     -0.565773
      34A     -0.543247    35A     -0.518127    36A     -0.509884
      37A     -0.497720    38A     -0.489398    39A     -0.480176
      40A     -0.439677    41A     -0.429979    42A     -0.338555
      43A     -0.308458

  @DF-RHF Final Energy:  -514.59015382895643

   => Energetics <=

    Nuclear Repulsion Energy =            675.0914469791941883
    One-Electron Energy =               -2037.6932955902586855
    Two-Electron Energy =                 848.0116947821080657
    Total Energy =                       -514.5901538289564314
  Basis Set: (AUG-CC-PVTZ AUX)
    Blend: AUG-CC-PVTZ-RI
    Molecular point group: c1

    Geometry (in Angstrom), charge = 0, multiplicity = 1:

       Center              X                  Y                   Z               Mass
    ------------   -----------------  -----------------  -----------------  -----------------
         O            2.987002266405    -1.507446615015     0.078620213204    15.994914619570
         N            0.818219266405    -1.073424615015    -0.418391786796    14.003074004430
         C            0.182476266405     1.992309384985    -0.236331786796    12.000000000000
         C            1.672242266405     1.686751384985    -0.347685786796    12.000000000000
         C           -0.780998733595     0.827056384985    -0.099330786796    12.000000000000
         C            2.134657266405     0.666944384985     0.700321213204    12.000000000000
         C           -0.427545033595    -0.564668015015    -0.184446986796    12.000000000000
         C            2.037497266405    -0.726781615015     0.139281213204    12.000000000000
         C           -2.123912733595     1.174040384985     0.128161213204    12.000000000000
         C           -1.505503733595    -1.497873615015    -0.082077786796    12.000000000000
         C           -3.144869733595     0.233911384985     0.218106213204    12.000000000000
         C           -2.828541733595    -1.121379615015     0.110111213204    12.000000000000
         H           -0.127721733595     2.592364384985    -1.101943786796     1.007825032230
         H            0.034480266405     2.636979384985     0.640455213204     1.007825032230
         H            1.917286266405     1.316466384985    -1.348877786796     1.007825032230
         H            2.222408266405     2.626040384985    -0.222169786796     1.007825032230
         H            1.523544266405     0.752289384985     1.608930213204     1.007825032230
         H            3.179927266405     0.806834384985     0.984518213204     1.007825032230
         H            0.832616266405    -2.037906615015    -0.742688786796     1.007825032230
         H           -2.369328733595     2.232897384985     0.203980213204     1.007825032230
         H           -1.246098733595    -2.553943615015    -0.137791786796     1.007825032230
         H           -4.170692733595     0.553311384985     0.382183213204     1.007825032230
         H           -3.602733733595    -1.881452615015     0.177879213204     1.007825032230

  Basis Set: AUG-CC-PVTZ
    Blend: AUG-CC-PVTZ
  Basis Set: (AUG-CC-PVTZ AUX)
    Blend: AUG-CC-PVTZ-JKFIT
	 Reference Energy          =    -514.5901538289564314 [Eh]
	 Singles Energy            =      -0.0000000000000000 [Eh]
	 Same-Spin Energy          =      -0.5585023364822757 [Eh]
	 Opposite-Spin Energy      =      -1.7438544256489883 [Eh]
	 Correlation Energy        =      -2.3023567621312639 [Eh]
	 Total Energy              =    -516.8925105910876709 [Eh]

	 ================> DF-SCS-MP2 Energies <==================
	-----------------------------------------------------------
	 SCS Same-Spin Scale       =       0.3333333333333333 [-]
	 SCS Opposite-Spin Scale   =       1.2000000000000000 [-]
	 SCS Same-Spin Energy      =      -0.1861674454940919 [Eh]
	 SCS Opposite-Spin Energy  =      -2.0926253107787858 [Eh]
	 SCS Correlation Energy    =      -2.2787927562728778 [Eh]
	 SCS Total Energy          =    -516.8689465852293097 [Eh]
	-----------------------------------------------------------

  Dipole Moment: [D]
     X:    -2.4392      Y:     1.9850      Z:     0.0102     Total:     3.1449

*** Psi4 exiting successfully. Buy a developer a beer!
