                               Psi4 1.3.2 release

  ==> Input File <==

--------------------------------------------------------------------------
#psi4
#
memory 32 gb

molecule  {
0 1
  O        3.0005300    -1.5493530     0.0754490
  N        0.8317470    -1.1153310    -0.4215630
  C        0.1930195     1.9163493    -0.1987072
  C        1.6857700     1.6448450    -0.3508570
  C       -0.7674710     0.7851500    -0.1025020
  C        2.1481850     0.6250380     0.6971500
  C       -0.4596220    -0.5879500    -0.1790540
  C        2.0510250    -0.7686880     0.1361100
  C       -2.1103850     1.1321340     0.1249900
  C       -1.4919760    -1.5397800    -0.0852490
  C       -3.1313420     0.1920050     0.2149350
  C       -2.8150140    -1.1632860     0.1069400
  H       -0.1141940     2.5504580    -1.1051150
  H        0.0480080     2.5950730     0.6372840
  H        1.9308140     1.2745600    -1.3520490
  H        2.2359360     2.5841340    -0.2253410
  H        1.5370720     0.7103830     1.6057590
  H        3.1934550     0.7649280     0.9813470
  H        0.8461440    -2.0798130    -0.7458600
  H       -2.3558010     2.1909910     0.2008090
  H       -1.2325710    -2.5958500    -0.1409630
  H       -4.1571650     0.5114050     0.3790120
  H       -3.5892060    -1.9233590     0.1747080
units angstrom
no_reorient  #important for SAPT in psi4, default
symmetry c1  #important for SAPT in psi4, default
}

set PROPERTIES_ORIGIN ["COM"]
properties('MP2/aug-cc-pvtz', properties = ['dipole'])
--------------------------------------------------------------------------

    Molecular point group: c1
  Charge       = 0
  Multiplicity = 1
  Basis Set: AUG-CC-PVTZ
    Blend: AUG-CC-PVTZ
  Basis Set: (AUG-CC-PVTZ AUX)
    Blend: AUG-CC-PVTZ-JKFIT

    Orbital Energies [Eh]
    ---------------------

    Doubly Occupied:

       1A    -20.525588     2A    -15.596332     3A    -11.356916
       4A    -11.297277     5A    -11.254598     6A    -11.246607
       7A    -11.246320     8A    -11.245371     9A    -11.244639
      10A    -11.243079    11A    -11.241852    12A    -11.240201
      13A     -1.380065    14A     -1.253463    15A     -1.152764
      16A     -1.103622    17A     -1.040870    18A     -1.016423
      19A     -0.955214    20A     -0.882376    21A     -0.843755
      22A     -0.808555    23A     -0.765107    24A     -0.722169
      25A     -0.681764    26A     -0.672607    27A     -0.647222
      28A     -0.629594    29A     -0.607895    30A     -0.602805
      31A     -0.599683    32A     -0.582264    33A     -0.564674
      34A     -0.542530    35A     -0.518073    36A     -0.511768
      37A     -0.499631    38A     -0.488787    39A     -0.482517
      40A     -0.435507    41A     -0.425397    42A     -0.339614
      43A     -0.315895

  @DF-RHF Final Energy:  -514.59094846227947

   => Energetics <=

    Nuclear Repulsion Energy =            675.7671040028112657
    One-Electron Energy =               -2039.0933204251748521
    Two-Electron Energy =                 848.7352679600841157
    Total Energy =                       -514.5909484622794707
  Basis Set: (AUG-CC-PVTZ AUX)
    Blend: AUG-CC-PVTZ-RI
    Molecular point group: c1

    Geometry (in Angstrom), charge = 0, multiplicity = 1:

       Center              X                  Y                   Z               Mass
    ------------   -----------------  -----------------  -----------------  -----------------
         O            2.990621931725    -1.506297205226     0.074943126934    15.994914619570
         N            0.821838931725    -1.072275205226    -0.422068873066    14.003074004430
         C            0.183111431725     1.959405094774    -0.199213073066    12.000000000000
         C            1.675861931725     1.687900794774    -0.351362873066    12.000000000000
         C           -0.777379068275     0.828205794774    -0.103007873066    12.000000000000
         C            2.138276931725     0.668093794774     0.696644126934    12.000000000000
         C           -0.469530068275    -0.544894205226    -0.179559873066    12.000000000000
         C            2.041116931725    -0.725632205226     0.135604126934    12.000000000000
         C           -2.120293068275     1.175189794774     0.124484126934    12.000000000000
         C           -1.501884068275    -1.496724205226    -0.085754873066    12.000000000000
         C           -3.141250068275     0.235060794774     0.214429126934    12.000000000000
         C           -2.824922068275    -1.120230205226     0.106434126934    12.000000000000
         H           -0.124102068275     2.593513794774    -1.105620873066     1.007825032230
         H            0.038099931725     2.638128794774     0.636778126934     1.007825032230
         H            1.920905931725     1.317615794774    -1.352554873066     1.007825032230
         H            2.226027931725     2.627189794774    -0.225846873066     1.007825032230
         H            1.527163931725     0.753438794774     1.605253126934     1.007825032230
         H            3.183546931725     0.807983794774     0.980841126934     1.007825032230
         H            0.836235931725    -2.036757205226    -0.746365873066     1.007825032230
         H           -2.365709068275     2.234046794774     0.200303126934     1.007825032230
         H           -1.242479068275    -2.552794205226    -0.141468873066     1.007825032230
         H           -4.167073068275     0.554460794774     0.378506126934     1.007825032230
         H           -3.599114068275    -1.880303205226     0.174202126934     1.007825032230

  Basis Set: AUG-CC-PVTZ
    Blend: AUG-CC-PVTZ
  Basis Set: (AUG-CC-PVTZ AUX)
    Blend: AUG-CC-PVTZ-JKFIT
	 Reference Energy          =    -514.5909484622794707 [Eh]
	 Singles Energy            =      -0.0000000000000000 [Eh]
	 Same-Spin Energy          =      -0.5582639240176619 [Eh]
	 Opposite-Spin Energy      =      -1.7435782143593357 [Eh]
	 Correlation Energy        =      -2.3018421383769976 [Eh]
	 Total Energy              =    -516.8927906006564399 [Eh]

	 ================> DF-SCS-MP2 Energies <==================
	-----------------------------------------------------------
	 SCS Same-Spin Scale       =       0.3333333333333333 [-]
	 SCS Opposite-Spin Scale   =       1.2000000000000000 [-]
	 SCS Same-Spin Energy      =      -0.1860879746725539 [Eh]
	 SCS Opposite-Spin Energy  =      -2.0922938572312026 [Eh]
	 SCS Correlation Energy    =      -2.2783818319037565 [Eh]
	 SCS Total Energy          =    -516.8693302941832144 [Eh]
	-----------------------------------------------------------

  Dipole Moment: [D]
     X:    -2.7322      Y:     2.0585      Z:     0.0609     Total:     3.4214

*** Psi4 exiting successfully. Buy a developer a beer!
