                               Psi4 1.3.2 release

  ==> Input File <==

--------------------------------------------------------------------------
#psi4
#
memory 32 gb

molecule  {
0 1
  O        3.0005300    -1.5493530     0.0754490
  N        0.8317470    -1.1153310    -0.4215630
  C        0.1960040     1.9504030    -0.2395030
  C        1.6857700     1.6448450    -0.3508570
  C       -0.8309335     0.7083967    -0.0934780
  C        2.1481850     0.6250380     0.6971500
  C       -0.4596220    -0.5879500    -0.1790540
  C        2.0510250    -0.7686880     0.1361100
  C       -2.1103850     1.1321340     0.1249900
  C       -1.4919760    -1.5397800    -0.0852490
  C       -3.1313420     0.1920050     0.2149350
  C       -2.8150140    -1.1632860     0.1069400
  H       -0.1141940     2.5504580    -1.1051150
  H        0.0480080     2.5950730     0.6372840
  H        1.9308140     1.2745600    -1.3520490
  H        2.2359360     2.5841340    -0.2253410
  H        1.5370720     0.7103830     1.6057590
  H        3.1934550     0.7649280     0.9813470
  H        0.8461440    -2.0798130    -0.7458600
  H       -2.3558010     2.1909910     0.2008090
  H       -1.2325710    -2.5958500    -0.1409630
  H       -4.1571650     0.5114050     0.3790120
  H       -3.5892060    -1.9233590     0.1747080
units angstrom
no_reorient  #important for SAPT in psi4, default
symmetry c1  #important for SAPT in psi4, default
}

set PROPERTIES_ORIGIN ["COM"]
properties('MP2/aug-cc-pvtz', properties = ['dipole'])
--------------------------------------------------------------------------

    Molecular point group: c1
  Charge       = 0
  Multiplicity = 1
  Basis Set: AUG-CC-PVTZ
    Blend: AUG-CC-PVTZ
  Basis Set: (AUG-CC-PVTZ AUX)
    Blend: AUG-CC-PVTZ-JKFIT

    Orbital Energies [Eh]
    ---------------------

    Doubly Occupied:

       1A    -20.525900     2A    -15.597781     3A    -11.357186
       4A    -11.290788     5A    -11.248942     6A    -11.247037
       7A    -11.245787     8A    -11.244539     9A    -11.241991
      10A    -11.241670    11A    -11.240615    12A    -11.240059
      13A     -1.380364    14A     -1.255061    15A     -1.159220
      16A     -1.095177    17A     -1.037158    18A     -1.020911
      19A     -0.957832    20A     -0.874011    21A     -0.849085
      22A     -0.809441    23A     -0.766498    24A     -0.725423
      25A     -0.680826    26A     -0.669738    27A     -0.642374
      28A     -0.634701    29A     -0.611383    30A     -0.604165
      31A     -0.598639    32A     -0.575194    33A     -0.564476
      34A     -0.542987    35A     -0.522924    36A     -0.510557
      37A     -0.499806    38A     -0.491784    39A     -0.462557
      40A     -0.435702    41A     -0.426116    42A     -0.345902
      43A     -0.321236

  @DF-RHF Final Energy:  -514.58563913244564

   => Energetics <=

    Nuclear Repulsion Energy =            675.6058711317187999
    One-Electron Energy =               -2038.7959365368328690
    Two-Electron Energy =                 848.6044262726685474
    Total Energy =                       -514.5856391324456354
  Basis Set: (AUG-CC-PVTZ AUX)
    Blend: AUG-CC-PVTZ-RI
    Molecular point group: c1

    Geometry (in Angstrom), charge = 0, multiplicity = 1:

       Center              X                  Y                   Z               Mass
    ------------   -----------------  -----------------  -----------------  -----------------
         O            2.995127256349    -1.503116287217     0.077309975588    15.994914619570
         N            0.826344256349    -1.069094287217    -0.419702024412    14.003074004430
         C            0.190601256349     1.996639712783    -0.237642024412    12.000000000000
         C            1.680367256349     1.691081712783    -0.348996024412    12.000000000000
         C           -0.836336243651     0.754633412783    -0.091617024412    12.000000000000
         C            2.142782256349     0.671274712783     0.699010975588    12.000000000000
         C           -0.465024743651    -0.541713287217    -0.177193024412    12.000000000000
         C            2.045622256349    -0.722451287217     0.137970975588    12.000000000000
         C           -2.115787743651     1.178370712783     0.126850975588    12.000000000000
         C           -1.497378743651    -1.493543287217    -0.083388024412    12.000000000000
         C           -3.136744743651     0.238241712783     0.216795975588    12.000000000000
         C           -2.820416743651    -1.117049287217     0.108800975588    12.000000000000
         H           -0.119596743651     2.596694712783    -1.103254024412     1.007825032230
         H            0.042605256349     2.641309712783     0.639144975588     1.007825032230
         H            1.925411256349     1.320796712783    -1.350188024412     1.007825032230
         H            2.230533256349     2.630370712783    -0.223480024412     1.007825032230
         H            1.531669256349     0.756619712783     1.607619975588     1.007825032230
         H            3.188052256349     0.811164712783     0.983207975588     1.007825032230
         H            0.840741256349    -2.033576287217    -0.743999024412     1.007825032230
         H           -2.361203743651     2.237227712783     0.202669975588     1.007825032230
         H           -1.237973743651    -2.549613287217    -0.139102024412     1.007825032230
         H           -4.162567743651     0.557641712783     0.380872975588     1.007825032230
         H           -3.594608743651    -1.877122287217     0.176568975588     1.007825032230

  Basis Set: AUG-CC-PVTZ
    Blend: AUG-CC-PVTZ
  Basis Set: (AUG-CC-PVTZ AUX)
    Blend: AUG-CC-PVTZ-JKFIT
	 Reference Energy          =    -514.5856391324456354 [Eh]
	 Singles Energy            =      -0.0000000000000000 [Eh]
	 Same-Spin Energy          =      -0.5573387838183941 [Eh]
	 Opposite-Spin Energy      =      -1.7423508052852790 [Eh]
	 Correlation Energy        =      -2.2996895891036733 [Eh]
	 Total Energy              =    -516.8853287215492855 [Eh]

	 ================> DF-SCS-MP2 Energies <==================
	-----------------------------------------------------------
	 SCS Same-Spin Scale       =       0.3333333333333333 [-]
	 SCS Opposite-Spin Scale   =       1.2000000000000000 [-]
	 SCS Same-Spin Energy      =      -0.1857795946061314 [Eh]
	 SCS Opposite-Spin Energy  =      -2.0908209663423345 [Eh]
	 SCS Correlation Energy    =      -2.2766005609484656 [Eh]
	 SCS Total Energy          =    -516.8622396933941445 [Eh]
	-----------------------------------------------------------

  Dipole Moment: [D]
     X:    -2.8164      Y:     2.0026      Z:     0.0525     Total:     3.4561

*** Psi4 exiting successfully. Buy a developer a beer!
