                               Psi4 1.3.2 release

  ==> Input File <==

--------------------------------------------------------------------------
#psi4
#
memory 32 gb

molecule  {
0 1
  O        3.0005300    -1.5493530     0.0754490
  N        0.8317470    -1.1153310    -0.4215630
  C        0.1960040     1.9504030    -0.2395030
  C        1.6857700     1.6448450    -0.3508570
  C       -0.7674710     0.7851500    -0.1025020
  C        2.1481850     0.6250380     0.6971500
  C       -0.4694859    -0.6095763    -0.1858083
  C        2.0510250    -0.7686880     0.1361100
  C       -2.1103850     1.1321340     0.1249900
  C       -1.4919760    -1.5397800    -0.0852490
  C       -3.1313420     0.1920050     0.2149350
  C       -2.8150140    -1.1632860     0.1069400
  H       -0.1141940     2.5504580    -1.1051150
  H        0.0480080     2.5950730     0.6372840
  H        1.9308140     1.2745600    -1.3520490
  H        2.2359360     2.5841340    -0.2253410
  H        1.5370720     0.7103830     1.6057590
  H        3.1934550     0.7649280     0.9813470
  H        0.8461440    -2.0798130    -0.7458600
  H       -2.3558010     2.1909910     0.2008090
  H       -1.2325710    -2.5958500    -0.1409630
  H       -4.1571650     0.5114050     0.3790120
  H       -3.5892060    -1.9233590     0.1747080
units angstrom
no_reorient  #important for SAPT in psi4, default
symmetry c1  #important for SAPT in psi4, default
}

set PROPERTIES_ORIGIN ["COM"]
properties('MP2/aug-cc-pvtz', properties = ['dipole'])
--------------------------------------------------------------------------

    Molecular point group: c1
  Charge       = 0
  Multiplicity = 1
  Basis Set: AUG-CC-PVTZ
    Blend: AUG-CC-PVTZ
  Basis Set: (AUG-CC-PVTZ AUX)
    Blend: AUG-CC-PVTZ-JKFIT

    Orbital Energies [Eh]
    ---------------------

    Doubly Occupied:

       1A    -20.525910     2A    -15.595800     3A    -11.357544
       4A    -11.297168     5A    -11.257182     6A    -11.246352
       7A    -11.245384     8A    -11.244598     9A    -11.242939
      10A    -11.242301    11A    -11.242190    12A    -11.239761
      13A     -1.380232    14A     -1.252997    15A     -1.151308
      16A     -1.102219    17A     -1.037805    18A     -1.018696
      19A     -0.956427    20A     -0.881218    21A     -0.840963
      22A     -0.808563    23A     -0.767255    24A     -0.721477
      25A     -0.681667    26A     -0.669825    27A     -0.646355
      28A     -0.628923    29A     -0.611476    30A     -0.604246
      31A     -0.601284    32A     -0.577890    33A     -0.564488
      34A     -0.542362    35A     -0.516499    36A     -0.510871
      37A     -0.498284    38A     -0.491851    39A     -0.483664
      40A     -0.435421    41A     -0.426257    42A     -0.341145
      43A     -0.315271

  @DF-RHF Final Energy:  -514.59360820369648

   => Energetics <=

    Nuclear Repulsion Energy =            674.9180214601494754
    One-Electron Energy =               -2037.4151266788703651
    Two-Electron Energy =                 847.9034970150244135
    Total Energy =                       -514.5936082036964763
  Basis Set: (AUG-CC-PVTZ AUX)
    Blend: AUG-CC-PVTZ-RI
    Molecular point group: c1

    Geometry (in Angstrom), charge = 0, multiplicity = 1:

       Center              X                  Y                   Z               Mass
    ------------   -----------------  -----------------  -----------------  -----------------
         O            2.991134414450    -1.507222987679     0.078485384224    15.994914619570
         N            0.822351414450    -1.073200987679    -0.418526615776    14.003074004430
         C            0.186608414450     1.992533012321    -0.236466615776    12.000000000000
         C            1.676374414450     1.686975012321    -0.347820615776    12.000000000000
         C           -0.776866585550     0.827280012321    -0.099465615776    12.000000000000
         C            2.138789414450     0.667168012321     0.700186384224    12.000000000000
         C           -0.478881485550    -0.567446287679    -0.182771915776    12.000000000000
         C            2.041629414450    -0.726557987679     0.139146384224    12.000000000000
         C           -2.119780585550     1.174264012321     0.128026384224    12.000000000000
         C           -1.501371585550    -1.497649987679    -0.082212615776    12.000000000000
         C           -3.140737585550     0.234135012321     0.217971384224    12.000000000000
         C           -2.824409585550    -1.121155987679     0.109976384224    12.000000000000
         H           -0.123589585550     2.592588012321    -1.102078615776     1.007825032230
         H            0.038612414450     2.637203012321     0.640320384224     1.007825032230
         H            1.921418414450     1.316690012321    -1.349012615776     1.007825032230
         H            2.226540414450     2.626264012321    -0.222304615776     1.007825032230
         H            1.527676414450     0.752513012321     1.608795384224     1.007825032230
         H            3.184059414450     0.807058012321     0.984383384224     1.007825032230
         H            0.836748414450    -2.037682987679    -0.742823615776     1.007825032230
         H           -2.365196585550     2.233121012321     0.203845384224     1.007825032230
         H           -1.241966585550    -2.553719987679    -0.137926615776     1.007825032230
         H           -4.166560585550     0.553535012321     0.382048384224     1.007825032230
         H           -3.598601585550    -1.881228987679     0.177744384224     1.007825032230

  Basis Set: AUG-CC-PVTZ
    Blend: AUG-CC-PVTZ
  Basis Set: (AUG-CC-PVTZ AUX)
    Blend: AUG-CC-PVTZ-JKFIT
	 Reference Energy          =    -514.5936082036964763 [Eh]
	 Singles Energy            =      -0.0000000000000000 [Eh]
	 Same-Spin Energy          =      -0.5579242854467741 [Eh]
	 Opposite-Spin Energy      =      -1.7430890555993139 [Eh]
	 Correlation Energy        =      -2.3010133410460880 [Eh]
	 Total Energy              =    -516.8946215447425629 [Eh]

	 ================> DF-SCS-MP2 Energies <==================
	-----------------------------------------------------------
	 SCS Same-Spin Scale       =       0.3333333333333333 [-]
	 SCS Opposite-Spin Scale   =       1.2000000000000000 [-]
	 SCS Same-Spin Energy      =      -0.1859747618155914 [Eh]
	 SCS Opposite-Spin Energy  =      -2.0917068667191767 [Eh]
	 SCS Correlation Energy    =      -2.2776816285347681 [Eh]
	 SCS Total Energy          =    -516.8712898322312412 [Eh]
	-----------------------------------------------------------

  Dipole Moment: [D]
     X:    -2.7348      Y:     2.0646      Z:     0.0397     Total:     3.4268

*** Psi4 exiting successfully. Buy a developer a beer!
