                               Psi4 1.3.2 release

  ==> Input File <==

--------------------------------------------------------------------------
#psi4
#
memory 32 gb

molecule  {
0 1
  O        3.0005300    -1.5493530     0.0754490
  N        0.8317470    -1.1153310    -0.4215630
  C        0.2158222     2.0501669    -0.3625047
  C        1.6857700     1.6448450    -0.3508570
  C       -0.7674710     0.7851500    -0.1025020
  C        2.1481850     0.6250380     0.6971500
  C       -0.4596220    -0.5879500    -0.1790540
  C        2.0510250    -0.7686880     0.1361100
  C       -2.1103850     1.1321340     0.1249900
  C       -1.4919760    -1.5397800    -0.0852490
  C       -3.1313420     0.1920050     0.2149350
  C       -2.8150140    -1.1632860     0.1069400
  H       -0.1141940     2.5504580    -1.1051150
  H        0.0480080     2.5950730     0.6372840
  H        1.9308140     1.2745600    -1.3520490
  H        2.2359360     2.5841340    -0.2253410
  H        1.5370720     0.7103830     1.6057590
  H        3.1934550     0.7649280     0.9813470
  H        0.8461440    -2.0798130    -0.7458600
  H       -2.3558010     2.1909910     0.2008090
  H       -1.2325710    -2.5958500    -0.1409630
  H       -4.1571650     0.5114050     0.3790120
  H       -3.5892060    -1.9233590     0.1747080
units angstrom
no_reorient  #important for SAPT in psi4, default
symmetry c1  #important for SAPT in psi4, default
}

set PROPERTIES_ORIGIN ["COM"]
properties('MP2/aug-cc-pvtz', properties = ['dipole'])
--------------------------------------------------------------------------

    Molecular point group: c1
  Charge       = 0
  Multiplicity = 1
  Basis Set: AUG-CC-PVTZ
    Blend: AUG-CC-PVTZ
  Basis Set: (AUG-CC-PVTZ AUX)
    Blend: AUG-CC-PVTZ-JKFIT

    Orbital Energies [Eh]
    ---------------------

    Doubly Occupied:

       1A    -20.526250     2A    -15.595849     3A    -11.357677
       4A    -11.297216     5A    -11.257513     6A    -11.246301
       7A    -11.245989     8A    -11.245768     9A    -11.244102
      10A    -11.243904    11A    -11.242766    12A    -11.238900
      13A     -1.380547    14A     -1.252136    15A     -1.148515
      16A     -1.098360    17A     -1.034036    18A     -1.015371
      19A     -0.965078    20A     -0.876757    21A     -0.840424
      22A     -0.813721    23A     -0.767688    24A     -0.721330
      25A     -0.685322    26A     -0.668574    27A     -0.644064
      28A     -0.629448    29A     -0.627331    30A     -0.603327
      31A     -0.598181    32A     -0.572255    33A     -0.562720
      34A     -0.540975    35A     -0.523704    36A     -0.509425
      37A     -0.508169    38A     -0.488096    39A     -0.461329
      40A     -0.434540    41A     -0.427177    42A     -0.341480
      43A     -0.315524

  @DF-RHF Final Energy:  -514.56582748166397

   => Energetics <=

    Nuclear Repulsion Energy =            672.9542705364459607
    One-Electron Energy =               -2033.4445182982356073
    Two-Electron Energy =                 845.9244202801257870
    Total Energy =                       -514.5658274816639732
  Basis Set: (AUG-CC-PVTZ AUX)
    Blend: AUG-CC-PVTZ-RI
    Molecular point group: c1

    Geometry (in Angstrom), charge = 0, multiplicity = 1:

       Center              X                  Y                   Z               Mass
    ------------   -----------------  -----------------  -----------------  -----------------
         O            2.988923238551    -1.516265982772     0.087145265069    15.994914619570
         N            0.820140238551    -1.082243982772    -0.409866734931    14.003074004430
         C            0.204215438551     2.083253917228    -0.350808434931    12.000000000000
         C            1.674163238551     1.677932017228    -0.339160734931    12.000000000000
         C           -0.779077761449     0.818237017228    -0.090805734931    12.000000000000
         C            2.136578238551     0.658125017228     0.708846265069    12.000000000000
         C           -0.471228761449    -0.554862982772    -0.167357734931    12.000000000000
         C            2.039418238551    -0.735600982772     0.147806265069    12.000000000000
         C           -2.121991761449     1.165221017228     0.136686265069    12.000000000000
         C           -1.503582761449    -1.506692982772    -0.073552734931    12.000000000000
         C           -3.142948761449     0.225092017228     0.226631265069    12.000000000000
         C           -2.826620761449    -1.130198982772     0.118636265069    12.000000000000
         H           -0.125800761449     2.583545017228    -1.093418734931     1.007825032230
         H            0.036401238551     2.628160017228     0.648980265069     1.007825032230
         H            1.919207238551     1.307647017228    -1.340352734931     1.007825032230
         H            2.224329238551     2.617221017228    -0.213644734931     1.007825032230
         H            1.525465238551     0.743470017228     1.617455265069     1.007825032230
         H            3.181848238551     0.798015017228     0.993043265069     1.007825032230
         H            0.834537238551    -2.046725982772    -0.734163734931     1.007825032230
         H           -2.367407761449     2.224078017228     0.212505265069     1.007825032230
         H           -1.244177761449    -2.562762982772    -0.129266734931     1.007825032230
         H           -4.168771761449     0.544492017228     0.390708265069     1.007825032230
         H           -3.600812761449    -1.890271982772     0.186404265069     1.007825032230

  Basis Set: AUG-CC-PVTZ
    Blend: AUG-CC-PVTZ
  Basis Set: (AUG-CC-PVTZ AUX)
    Blend: AUG-CC-PVTZ-JKFIT
	 Reference Energy          =    -514.5658274816639732 [Eh]
	 Singles Energy            =      -0.0000000000000000 [Eh]
	 Same-Spin Energy          =      -0.5576698861654101 [Eh]
	 Opposite-Spin Energy      =      -1.7436657842615486 [Eh]
	 Correlation Energy        =      -2.3013356704269587 [Eh]
	 Total Energy              =    -516.8671631520909386 [Eh]

	 ================> DF-SCS-MP2 Energies <==================
	-----------------------------------------------------------
	 SCS Same-Spin Scale       =       0.3333333333333333 [-]
	 SCS Opposite-Spin Scale   =       1.2000000000000000 [-]
	 SCS Same-Spin Energy      =      -0.1858899620551367 [Eh]
	 SCS Opposite-Spin Energy  =      -2.0923989411138582 [Eh]
	 SCS Correlation Energy    =      -2.2782889031689950 [Eh]
	 SCS Total Energy          =    -516.8441163848330007 [Eh]
	-----------------------------------------------------------

  Dipole Moment: [D]
     X:    -2.7252      Y:     2.0365      Z:    -0.0238     Total:     3.4021

*** Psi4 exiting successfully. Buy a developer a beer!
