                               Psi4 1.3.2 release

  ==> Input File <==

--------------------------------------------------------------------------
#psi4
#
memory 32 gb

molecule  {
0 1
  O        3.0005300    -1.5493530     0.0754490
  N        0.8409219    -1.0923879    -0.4213414
  C        0.1960040     1.9504030    -0.2395030
  C        1.6857700     1.6448450    -0.3508570
  C       -0.7674710     0.7851500    -0.1025020
  C        2.1481850     0.6250380     0.6971500
  C       -0.4596220    -0.5879500    -0.1790540
  C        2.0510250    -0.7686880     0.1361100
  C       -2.1103850     1.1321340     0.1249900
  C       -1.4919760    -1.5397800    -0.0852490
  C       -3.1313420     0.1920050     0.2149350
  C       -2.8150140    -1.1632860     0.1069400
  H       -0.1141940     2.5504580    -1.1051150
  H        0.0480080     2.5950730     0.6372840
  H        1.9308140     1.2745600    -1.3520490
  H        2.2359360     2.5841340    -0.2253410
  H        1.5370720     0.7103830     1.6057590
  H        3.1934550     0.7649280     0.9813470
  H        0.8461440    -2.0798130    -0.7458600
  H       -2.3558010     2.1909910     0.2008090
  H       -1.2325710    -2.5958500    -0.1409630
  H       -4.1571650     0.5114050     0.3790120
  H       -3.5892060    -1.9233590     0.1747080
units angstrom
no_reorient  #important for SAPT in psi4, default
symmetry c1  #important for SAPT in psi4, default
}

set PROPERTIES_ORIGIN ["COM"]
properties('MP2/aug-cc-pvtz', properties = ['dipole'])
--------------------------------------------------------------------------

    Molecular point group: c1
  Charge       = 0
  Multiplicity = 1
  Basis Set: AUG-CC-PVTZ
    Blend: AUG-CC-PVTZ
  Basis Set: (AUG-CC-PVTZ AUX)
    Blend: AUG-CC-PVTZ-JKFIT

    Orbital Energies [Eh]
    ---------------------

    Doubly Occupied:

       1A    -20.524193     2A    -15.598283     3A    -11.355268
       4A    -11.298090     5A    -11.255406     6A    -11.247276
       7A    -11.245673     8A    -11.245287     9A    -11.244996
      10A    -11.241972    11A    -11.241251    12A    -11.240568
      13A     -1.379909    14A     -1.254180    15A     -1.152362
      16A     -1.101362    17A     -1.039356    18A     -1.017412
      19A     -0.956393    20A     -0.881662    21A     -0.843446
      22A     -0.809362    23A     -0.764479    24A     -0.720707
      25A     -0.680922    26A     -0.671031    27A     -0.645876
      28A     -0.629353    29A     -0.611298    30A     -0.603763
      31A     -0.600674    32A     -0.577708    33A     -0.563674
      34A     -0.542154    35A     -0.517779    36A     -0.511013
      37A     -0.498095    38A     -0.491457    39A     -0.482855
      40A     -0.435401    41A     -0.425185    42A     -0.341110
      43A     -0.317025

  @DF-RHF Final Energy:  -514.59306512166756

   => Energetics <=

    Nuclear Repulsion Energy =            675.3779526739876928
    One-Electron Energy =               -2038.3315063643649410
    Two-Electron Energy =                 848.3604885687096839
    Total Energy =                       -514.5930651216675642
  Basis Set: (AUG-CC-PVTZ AUX)
    Blend: AUG-CC-PVTZ-RI
    Molecular point group: c1

    Geometry (in Angstrom), charge = 0, multiplicity = 1:

       Center              X                  Y                   Z               Mass
    ------------   -----------------  -----------------  -----------------  -----------------
         O            2.989602024481    -1.510828493481     0.077962957119    15.994914619570
         N            0.829993924481    -1.053863393481    -0.418827442881    14.003074004430
         C            0.185076024481     1.988927506519    -0.236989042881    12.000000000000
         C            1.674842024481     1.683369506519    -0.348343042881    12.000000000000
         C           -0.778398975519     0.823674506519    -0.099988042881    12.000000000000
         C            2.137257024481     0.663562506519     0.699663957119    12.000000000000
         C           -0.470549975519    -0.549425493481    -0.176540042881    12.000000000000
         C            2.040097024481    -0.730163493481     0.138623957119    12.000000000000
         C           -2.121312975519     1.170658506519     0.127503957119    12.000000000000
         C           -1.502903975519    -1.501255493481    -0.082735042881    12.000000000000
         C           -3.142269975519     0.230529506519     0.217448957119    12.000000000000
         C           -2.825941975519    -1.124761493481     0.109453957119    12.000000000000
         H           -0.125121975519     2.588982506519    -1.102601042881     1.007825032230
         H            0.037080024481     2.633597506519     0.639797957119     1.007825032230
         H            1.919886024481     1.313084506519    -1.349535042881     1.007825032230
         H            2.225008024481     2.622658506519    -0.222827042881     1.007825032230
         H            1.526144024481     0.748907506519     1.608272957119     1.007825032230
         H            3.182527024481     0.803452506519     0.983860957119     1.007825032230
         H            0.835216024481    -2.041288493481    -0.743346042881     1.007825032230
         H           -2.366728975519     2.229515506519     0.203322957119     1.007825032230
         H           -1.243498975519    -2.557325493481    -0.138449042881     1.007825032230
         H           -4.168092975519     0.549929506519     0.381525957119     1.007825032230
         H           -3.600133975519    -1.884834493481     0.177221957119     1.007825032230

  Basis Set: AUG-CC-PVTZ
    Blend: AUG-CC-PVTZ
  Basis Set: (AUG-CC-PVTZ AUX)
    Blend: AUG-CC-PVTZ-JKFIT
	 Reference Energy          =    -514.5930651216675642 [Eh]
	 Singles Energy            =      -0.0000000000000000 [Eh]
	 Same-Spin Energy          =      -0.5581221029090797 [Eh]
	 Opposite-Spin Energy      =      -1.7434215748636663 [Eh]
	 Correlation Energy        =      -2.3015436777727460 [Eh]
	 Total Energy              =    -516.8946087994403342 [Eh]

	 ================> DF-SCS-MP2 Energies <==================
	-----------------------------------------------------------
	 SCS Same-Spin Scale       =       0.3333333333333333 [-]
	 SCS Opposite-Spin Scale   =       1.2000000000000000 [-]
	 SCS Same-Spin Energy      =      -0.1860407009696932 [Eh]
	 SCS Opposite-Spin Energy  =      -2.0921058898363993 [Eh]
	 SCS Correlation Energy    =      -2.2781465908060925 [Eh]
	 SCS Total Energy          =    -516.8712117124736096 [Eh]
	-----------------------------------------------------------

  Dipole Moment: [D]
     X:    -2.8389      Y:     2.0471      Z:     0.0278     Total:     3.5001

*** Psi4 exiting successfully. Buy a developer a beer!
