                               Psi4 1.3.2 release

  ==> Input File <==

--------------------------------------------------------------------------
#psi4
#
memory 32 gb

molecule  {
0 1
  O        3.0005300    -1.5493530     0.0754490
  N        0.8317470    -1.1153310    -0.4215630
  C        0.1960040     1.9504030    -0.2395030
  C        1.6857700     1.6448450    -0.3508570
  C       -0.7737860     0.7614464    -0.1023038
  C        2.1481850     0.6250380     0.6971500
  C       -0.4596220    -0.5879500    -0.1790540
  C        2.0510250    -0.7686880     0.1361100
  C       -2.1103850     1.1321340     0.1249900
  C       -1.4919760    -1.5397800    -0.0852490
  C       -3.1313420     0.1920050     0.2149350
  C       -2.8150140    -1.1632860     0.1069400
  H       -0.1141940     2.5504580    -1.1051150
  H        0.0480080     2.5950730     0.6372840
  H        1.9308140     1.2745600    -1.3520490
  H        2.2359360     2.5841340    -0.2253410
  H        1.5370720     0.7103830     1.6057590
  H        3.1934550     0.7649280     0.9813470
  H        0.8461440    -2.0798130    -0.7458600
  H       -2.3558010     2.1909910     0.2008090
  H       -1.2325710    -2.5958500    -0.1409630
  H       -4.1571650     0.5114050     0.3790120
  H       -3.5892060    -1.9233590     0.1747080
units angstrom
no_reorient  #important for SAPT in psi4, default
symmetry c1  #important for SAPT in psi4, default
}

set PROPERTIES_ORIGIN ["COM"]
properties('MP2/aug-cc-pvtz', properties = ['dipole'])
--------------------------------------------------------------------------

    Molecular point group: c1
  Charge       = 0
  Multiplicity = 1
  Basis Set: AUG-CC-PVTZ
    Blend: AUG-CC-PVTZ
  Basis Set: (AUG-CC-PVTZ AUX)
    Blend: AUG-CC-PVTZ-JKFIT

    Orbital Energies [Eh]
    ---------------------

    Doubly Occupied:

       1A    -20.525501     2A    -15.596053     3A    -11.356865
       4A    -11.294885     5A    -11.253559     6A    -11.246468
       7A    -11.245744     8A    -11.245251     9A    -11.244683
      10A    -11.242539    11A    -11.241579    12A    -11.240041
      13A     -1.379962    14A     -1.253550    15A     -1.152599
      16A     -1.100093    17A     -1.038370    18A     -1.016859
      19A     -0.957630    20A     -0.878680    21A     -0.844874
      22A     -0.808910    23A     -0.765242    24A     -0.722536
      25A     -0.681296    26A     -0.670502    27A     -0.645131
      28A     -0.630242    29A     -0.611271    30A     -0.603220
      31A     -0.600422    32A     -0.577987    33A     -0.564388
      34A     -0.541941    35A     -0.518700    36A     -0.510346
      37A     -0.498949    38A     -0.492304    39A     -0.478833
      40A     -0.435361    41A     -0.425800    42A     -0.340732
      43A     -0.318353

  @DF-RHF Final Energy:  -514.59433844768398

   => Energetics <=

    Nuclear Repulsion Energy =            675.2497974767245523
    One-Electron Energy =               -2038.0917737272300201
    Two-Electron Energy =                 848.2476378028214867
    Total Energy =                       -514.5943384476839810
  Basis Set: (AUG-CC-PVTZ AUX)
    Blend: AUG-CC-PVTZ-RI
    Molecular point group: c1

    Geometry (in Angstrom), charge = 0, multiplicity = 1:

       Center              X                  Y                   Z               Mass
    ------------   -----------------  -----------------  -----------------  -----------------
         O            2.990870038204    -1.507068238666     0.077967455896    15.994914619570
         N            0.822087038204    -1.073046238666    -0.419044544104    14.003074004430
         C            0.186344038204     1.992687761334    -0.236984544104    12.000000000000
         C            1.676110038204     1.687129761334    -0.348338544104    12.000000000000
         C           -0.783445961796     0.803731161334    -0.099785344104    12.000000000000
         C            2.138525038204     0.667322761334     0.699668455896    12.000000000000
         C           -0.469281961796    -0.545665238666    -0.176535544104    12.000000000000
         C            2.041365038204    -0.726403238666     0.138628455896    12.000000000000
         C           -2.120044961796     1.174418761334     0.127508455896    12.000000000000
         C           -1.501635961796    -1.497495238666    -0.082730544104    12.000000000000
         C           -3.141001961796     0.234289761334     0.217453455896    12.000000000000
         C           -2.824673961796    -1.121001238666     0.109458455896    12.000000000000
         H           -0.123853961796     2.592742761334    -1.102596544104     1.007825032230
         H            0.038348038204     2.637357761334     0.639802455896     1.007825032230
         H            1.921154038204     1.316844761334    -1.349530544104     1.007825032230
         H            2.226276038204     2.626418761334    -0.222822544104     1.007825032230
         H            1.527412038204     0.752667761334     1.608277455896     1.007825032230
         H            3.183795038204     0.807212761334     0.983865455896     1.007825032230
         H            0.836484038204    -2.037528238666    -0.743341544104     1.007825032230
         H           -2.365460961796     2.233275761334     0.203327455896     1.007825032230
         H           -1.242230961796    -2.553565238666    -0.138444544104     1.007825032230
         H           -4.166824961796     0.553689761334     0.381530455896     1.007825032230
         H           -3.598865961796    -1.881074238666     0.177226455896     1.007825032230

  Basis Set: AUG-CC-PVTZ
    Blend: AUG-CC-PVTZ
  Basis Set: (AUG-CC-PVTZ AUX)
    Blend: AUG-CC-PVTZ-JKFIT
	 Reference Energy          =    -514.5943384476839810 [Eh]
	 Singles Energy            =      -0.0000000000000000 [Eh]
	 Same-Spin Energy          =      -0.5576165940543618 [Eh]
	 Opposite-Spin Energy      =      -1.7427404934835806 [Eh]
	 Correlation Energy        =      -2.3003570875379422 [Eh]
	 Total Energy              =    -516.8946955352218993 [Eh]

	 ================> DF-SCS-MP2 Energies <==================
	-----------------------------------------------------------
	 SCS Same-Spin Scale       =       0.3333333333333333 [-]
	 SCS Opposite-Spin Scale   =       1.2000000000000000 [-]
	 SCS Same-Spin Energy      =      -0.1858721980181206 [Eh]
	 SCS Opposite-Spin Energy  =      -2.0912885921802968 [Eh]
	 SCS Correlation Energy    =      -2.2771607901984172 [Eh]
	 SCS Total Energy          =    -516.8714992378824036 [Eh]
	-----------------------------------------------------------

  Dipole Moment: [D]
     X:    -2.7755      Y:     2.0519      Z:     0.0403     Total:     3.4518

*** Psi4 exiting successfully. Buy a developer a beer!
