                               Psi4 1.3.2 release

  ==> Input File <==

--------------------------------------------------------------------------
#psi4
#
memory 32 gb

molecule  {
0 1
  O        3.0005300    -1.5493530     0.0754490
  N        0.8317470    -1.1153310    -0.4215630
  C        0.1960040     1.9504030    -0.2395030
  C        1.6857700     1.6448450    -0.3508570
  C       -0.7674710     0.7851500    -0.1025020
  C        2.1481850     0.6250380     0.6971500
  C       -0.4596220    -0.5879500    -0.1790540
  C        2.0510250    -0.7686880     0.1361100
  C       -2.1103850     1.1321340     0.1249900
  C       -1.4186197    -1.4721455    -0.0919145
  C       -3.1313420     0.1920050     0.2149350
  C       -2.8150140    -1.1632860     0.1069400
  H       -0.1141940     2.5504580    -1.1051150
  H        0.0480080     2.5950730     0.6372840
  H        1.9308140     1.2745600    -1.3520490
  H        2.2359360     2.5841340    -0.2253410
  H        1.5370720     0.7103830     1.6057590
  H        3.1934550     0.7649280     0.9813470
  H        0.8461440    -2.0798130    -0.7458600
  H       -2.3558010     2.1909910     0.2008090
  H       -1.2325710    -2.5958500    -0.1409630
  H       -4.1571650     0.5114050     0.3790120
  H       -3.5892060    -1.9233590     0.1747080
units angstrom
no_reorient  #important for SAPT in psi4, default
symmetry c1  #important for SAPT in psi4, default
}

set PROPERTIES_ORIGIN ["COM"]
properties('MP2/aug-cc-pvtz', properties = ['dipole'])
--------------------------------------------------------------------------

    Molecular point group: c1
  Charge       = 0
  Multiplicity = 1
  Basis Set: AUG-CC-PVTZ
    Blend: AUG-CC-PVTZ
  Basis Set: (AUG-CC-PVTZ AUX)
    Blend: AUG-CC-PVTZ-JKFIT

    Orbital Energies [Eh]
    ---------------------

    Doubly Occupied:

       1A    -20.524178     2A    -15.593088     3A    -11.355545
       4A    -11.285584     5A    -11.257549     6A    -11.251491
       7A    -11.245213     8A    -11.243984     9A    -11.242652
      10A    -11.242542    11A    -11.242035    12A    -11.241003
      13A     -1.378794    14A     -1.256340    15A     -1.153648
      16A     -1.102490    17A     -1.036364    18A     -1.024669
      19A     -0.957429    20A     -0.879809    21A     -0.838504
      22A     -0.809928    23A     -0.769464    24A     -0.722392
      25A     -0.681440    26A     -0.663853    27A     -0.650779
      28A     -0.630058    29A     -0.611837    30A     -0.602448
      31A     -0.601586    32A     -0.577539    33A     -0.560909
      34A     -0.545225    35A     -0.512815    36A     -0.507476
      37A     -0.497463    38A     -0.492961    39A     -0.484908
      40A     -0.434091    41A     -0.424466    42A     -0.338115
      43A     -0.322226

  @DF-RHF Final Energy:  -514.58090519765892

   => Energetics <=

    Nuclear Repulsion Energy =            676.7706816507230769
    One-Electron Energy =               -2041.1133911246618027
    Two-Electron Energy =                 849.7618042762796904
    Total Energy =                       -514.5809051976589217
  Basis Set: (AUG-CC-PVTZ AUX)
    Blend: AUG-CC-PVTZ-RI
    Molecular point group: c1

    Geometry (in Angstrom), charge = 0, multiplicity = 1:

       Center              X                  Y                   Z               Mass
    ------------   -----------------  -----------------  -----------------  -----------------
         O            2.984934903615    -1.513872494611     0.078478769045    15.994914619570
         N            0.816151903615    -1.079850494611    -0.418533230955    14.003074004430
         C            0.180408903615     1.985883505389    -0.236473230955    12.000000000000
         C            1.670174903615     1.680325505389    -0.347827230955    12.000000000000
         C           -0.783066096385     0.820630505389    -0.099472230955    12.000000000000
         C            2.132589903615     0.660518505389     0.700179769045    12.000000000000
         C           -0.475217096385    -0.552469494611    -0.176024230955    12.000000000000
         C            2.035429903615    -0.733207494611     0.139139769045    12.000000000000
         C           -2.125980096385     1.167614505389     0.128019769045    12.000000000000
         C           -1.434214796385    -1.436664994611    -0.088884730955    12.000000000000
         C           -3.146937096385     0.227485505389     0.217964769045    12.000000000000
         C           -2.830609096385    -1.127805494611     0.109969769045    12.000000000000
         H           -0.129789096385     2.585938505389    -1.102085230955     1.007825032230
         H            0.032412903615     2.630553505389     0.640313769045     1.007825032230
         H            1.915218903615     1.310040505389    -1.349019230955     1.007825032230
         H            2.220340903615     2.619614505389    -0.222311230955     1.007825032230
         H            1.521476903615     0.745863505389     1.608788769045     1.007825032230
         H            3.177859903615     0.800408505389     0.984376769045     1.007825032230
         H            0.830548903615    -2.044332494611    -0.742830230955     1.007825032230
         H           -2.371396096385     2.226471505389     0.203838769045     1.007825032230
         H           -1.248166096385    -2.560369494611    -0.137933230955     1.007825032230
         H           -4.172760096385     0.546885505389     0.382041769045     1.007825032230
         H           -3.604801096385    -1.887878494611     0.177737769045     1.007825032230

  Basis Set: AUG-CC-PVTZ
    Blend: AUG-CC-PVTZ
  Basis Set: (AUG-CC-PVTZ AUX)
    Blend: AUG-CC-PVTZ-JKFIT
	 Reference Energy          =    -514.5809051976589217 [Eh]
	 Singles Energy            =      -0.0000000000000000 [Eh]
	 Same-Spin Energy          =      -0.5580205169618646 [Eh]
	 Opposite-Spin Energy      =      -1.7436715466897132 [Eh]
	 Correlation Energy        =      -2.3016920636515779 [Eh]
	 Total Energy              =    -516.8825972613104796 [Eh]

	 ================> DF-SCS-MP2 Energies <==================
	-----------------------------------------------------------
	 SCS Same-Spin Scale       =       0.3333333333333333 [-]
	 SCS Opposite-Spin Scale   =       1.2000000000000000 [-]
	 SCS Same-Spin Energy      =      -0.1860068389872882 [Eh]
	 SCS Opposite-Spin Energy  =      -2.0924058560276557 [Eh]
	 SCS Correlation Energy    =      -2.2784126950149437 [Eh]
	 SCS Total Energy          =    -516.8593178926738574 [Eh]
	-----------------------------------------------------------

  Dipole Moment: [D]
     X:    -2.8757      Y:     2.1099      Z:     0.0484     Total:     3.5671

*** Psi4 exiting successfully. Buy a developer a beer!
