                               Psi4 1.3.2 release

  ==> Input File <==

--------------------------------------------------------------------------
#psi4
#
memory 32 gb

molecule  {
0 1
  O        3.0005300    -1.5493530     0.0754490
  N        0.8317470    -1.1153310    -0.4215630
  C        0.1960040     1.9504030    -0.2395030
  C        1.6372983     1.6221337    -0.3502026
  C       -0.7674710     0.7851500    -0.1025020
  C        2.1481850     0.6250380     0.6971500
  C       -0.4596220    -0.5879500    -0.1790540
  C        2.0510250    -0.7686880     0.1361100
  C       -2.1103850     1.1321340     0.1249900
  C       -1.4919760    -1.5397800    -0.0852490
  C       -3.1313420     0.1920050     0.2149350
  C       -2.8150140    -1.1632860     0.1069400
  H       -0.1141940     2.5504580    -1.1051150
  H        0.0480080     2.5950730     0.6372840
  H        1.9308140     1.2745600    -1.3520490
  H        2.2359360     2.5841340    -0.2253410
  H        1.5370720     0.7103830     1.6057590
  H        3.1934550     0.7649280     0.9813470
  H        0.8461440    -2.0798130    -0.7458600
  H       -2.3558010     2.1909910     0.2008090
  H       -1.2325710    -2.5958500    -0.1409630
  H       -4.1571650     0.5114050     0.3790120
  H       -3.5892060    -1.9233590     0.1747080
units angstrom
no_reorient  #important for SAPT in psi4, default
symmetry c1  #important for SAPT in psi4, default
}

set PROPERTIES_ORIGIN ["COM"]
properties('MP2/aug-cc-pvtz', properties = ['dipole'])
--------------------------------------------------------------------------

    Molecular point group: c1
  Charge       = 0
  Multiplicity = 1
  Basis Set: AUG-CC-PVTZ
    Blend: AUG-CC-PVTZ
  Basis Set: (AUG-CC-PVTZ AUX)
    Blend: AUG-CC-PVTZ-JKFIT

    Orbital Energies [Eh]
    ---------------------

    Doubly Occupied:

       1A    -20.525438     2A    -15.595913     3A    -11.356533
       4A    -11.297565     5A    -11.254751     6A    -11.246641
       7A    -11.245082     8A    -11.244596     9A    -11.244578
      10A    -11.243682    11A    -11.243202    12A    -11.239917
      13A     -1.379967    14A     -1.253233    15A     -1.151987
      16A     -1.106516    17A     -1.038867    18A     -1.016486
      19A     -0.961016    20A     -0.878062    21A     -0.842985
      22A     -0.807070    23A     -0.765904    24A     -0.722169
      25A     -0.683325    26A     -0.671535    27A     -0.644370
      28A     -0.629806    29A     -0.614426    30A     -0.604047
      31A     -0.600180    32A     -0.579408    33A     -0.563913
      34A     -0.538947    35A     -0.520197    36A     -0.509416
      37A     -0.504761    38A     -0.492819    39A     -0.475747
      40A     -0.435168    41A     -0.424922    42A     -0.340721
      43A     -0.316045

  @DF-RHF Final Energy:  -514.59087132477521

   => Energetics <=

    Nuclear Repulsion Energy =            675.9458343592725669
    One-Electron Energy =               -2039.4495857804963634
    Two-Electron Energy =                 848.9128800964485890
    Total Energy =                       -514.5908713247752075
  Basis Set: (AUG-CC-PVTZ AUX)
    Blend: AUG-CC-PVTZ-RI
    Molecular point group: c1

    Geometry (in Angstrom), charge = 0, multiplicity = 1:

       Center              X                  Y                   Z               Mass
    ------------   -----------------  -----------------  -----------------  -----------------
         O            2.994010512734    -1.507142160317     0.077933471156    15.994914619570
         N            0.825227512734    -1.073120160317    -0.419078528844    14.003074004430
         C            0.189484512734     1.992613839683    -0.237018528844    12.000000000000
         C            1.630778812734     1.664344539683    -0.347718128844    12.000000000000
         C           -0.773990487266     0.827360839683    -0.100017528844    12.000000000000
         C            2.141665512734     0.667248839683     0.699634471156    12.000000000000
         C           -0.466141487266    -0.545739160317    -0.176569528844    12.000000000000
         C            2.044505512734    -0.726477160317     0.138594471156    12.000000000000
         C           -2.116904487266     1.174344839683     0.127474471156    12.000000000000
         C           -1.498495487266    -1.497569160317    -0.082764528844    12.000000000000
         C           -3.137861487266     0.234215839683     0.217419471156    12.000000000000
         C           -2.821533487266    -1.121075160317     0.109424471156    12.000000000000
         H           -0.120713487266     2.592668839683    -1.102630528844     1.007825032230
         H            0.041488512734     2.637283839683     0.639768471156     1.007825032230
         H            1.924294512734     1.316770839683    -1.349564528844     1.007825032230
         H            2.229416512734     2.626344839683    -0.222856528844     1.007825032230
         H            1.530552512734     0.752593839683     1.608243471156     1.007825032230
         H            3.186935512734     0.807138839683     0.983831471156     1.007825032230
         H            0.839624512734    -2.037602160317    -0.743375528844     1.007825032230
         H           -2.362320487266     2.233201839683     0.203293471156     1.007825032230
         H           -1.239090487266    -2.553639160317    -0.138478528844     1.007825032230
         H           -4.163684487266     0.553615839683     0.381496471156     1.007825032230
         H           -3.595725487266    -1.881148160317     0.177192471156     1.007825032230

  Basis Set: AUG-CC-PVTZ
    Blend: AUG-CC-PVTZ
  Basis Set: (AUG-CC-PVTZ AUX)
    Blend: AUG-CC-PVTZ-JKFIT
	 Reference Energy          =    -514.5908713247752075 [Eh]
	 Singles Energy            =      -0.0000000000000000 [Eh]
	 Same-Spin Energy          =      -0.5582930292464756 [Eh]
	 Opposite-Spin Energy      =      -1.7434891314198762 [Eh]
	 Correlation Energy        =      -2.3017821606663516 [Eh]
	 Total Energy              =    -516.8926534854415422 [Eh]

	 ================> DF-SCS-MP2 Energies <==================
	-----------------------------------------------------------
	 SCS Same-Spin Scale       =       0.3333333333333333 [-]
	 SCS Opposite-Spin Scale   =       1.2000000000000000 [-]
	 SCS Same-Spin Energy      =      -0.1860976764154919 [Eh]
	 SCS Opposite-Spin Energy  =      -2.0921869577038512 [Eh]
	 SCS Correlation Energy    =      -2.2782846341193430 [Eh]
	 SCS Total Energy          =    -516.8691559588945665 [Eh]
	-----------------------------------------------------------

  Dipole Moment: [D]
     X:    -2.7618      Y:     2.0535      Z:     0.0381     Total:     3.4418

*** Psi4 exiting successfully. Buy a developer a beer!
