                               Psi4 1.3.2 release

  ==> Input File <==

--------------------------------------------------------------------------
#psi4
#
memory 32 gb

molecule  {
0 1
  O        3.0005300    -1.5493530     0.0754490
  N        0.8317470    -1.1153310    -0.4215630
  C        0.1906647     1.9246178    -0.2433613
  C        1.6857700     1.6448450    -0.3508570
  C       -0.7674710     0.7851500    -0.1025020
  C        2.1481850     0.6250380     0.6971500
  C       -0.4596220    -0.5879500    -0.1790540
  C        2.0510250    -0.7686880     0.1361100
  C       -2.1103850     1.1321340     0.1249900
  C       -1.4919760    -1.5397800    -0.0852490
  C       -3.1313420     0.1920050     0.2149350
  C       -2.8150140    -1.1632860     0.1069400
  H       -0.1141940     2.5504580    -1.1051150
  H        0.0480080     2.5950730     0.6372840
  H        1.9308140     1.2745600    -1.3520490
  H        2.2359360     2.5841340    -0.2253410
  H        1.5370720     0.7103830     1.6057590
  H        3.1934550     0.7649280     0.9813470
  H        0.8461440    -2.0798130    -0.7458600
  H       -2.3558010     2.1909910     0.2008090
  H       -1.2325710    -2.5958500    -0.1409630
  H       -4.1571650     0.5114050     0.3790120
  H       -3.5892060    -1.9233590     0.1747080
units angstrom
no_reorient  #important for SAPT in psi4, default
symmetry c1  #important for SAPT in psi4, default
}

set PROPERTIES_ORIGIN ["COM"]
properties('MP2/aug-cc-pvtz', properties = ['dipole'])
--------------------------------------------------------------------------

    Molecular point group: c1
  Charge       = 0
  Multiplicity = 1
  Basis Set: AUG-CC-PVTZ
    Blend: AUG-CC-PVTZ
  Basis Set: (AUG-CC-PVTZ AUX)
    Blend: AUG-CC-PVTZ-JKFIT

    Orbital Energies [Eh]
    ---------------------

    Doubly Occupied:

       1A    -20.525661     2A    -15.596301     3A    -11.357023
       4A    -11.297274     5A    -11.254717     6A    -11.246609
       7A    -11.245883     8A    -11.245317     9A    -11.244569
      10A    -11.242928    11A    -11.242326    12A    -11.240130
      13A     -1.380119    14A     -1.253357    15A     -1.152391
      16A     -1.102728    17A     -1.040378    18A     -1.016346
      19A     -0.956119    20A     -0.881718    21A     -0.843493
      22A     -0.807963    23A     -0.765633    24A     -0.721749
      25A     -0.681655    26A     -0.672035    27A     -0.646690
      28A     -0.629317    29A     -0.610829    30A     -0.602805
      31A     -0.599651    32A     -0.580177    33A     -0.564834
      34A     -0.542210    35A     -0.517743    36A     -0.511491
      37A     -0.495113    38A     -0.490472    39A     -0.486277
      40A     -0.435452    41A     -0.425743    42A     -0.340033
      43A     -0.315881

  @DF-RHF Final Energy:  -514.59324187448090

   => Energetics <=

    Nuclear Repulsion Energy =            675.5154229980104219
    One-Electron Energy =               -2038.5990451284392293
    Two-Electron Energy =                 848.4903802559480255
    Total Energy =                       -514.5932418744808956
  Basis Set: (AUG-CC-PVTZ AUX)
    Blend: AUG-CC-PVTZ-RI
    Molecular point group: c1

    Geometry (in Angstrom), charge = 0, multiplicity = 1:

       Center              X                  Y                   Z               Mass
    ------------   -----------------  -----------------  -----------------  -----------------
         O            2.990797353175    -1.506913169323     0.078269645937    15.994914619570
         N            0.822014353175    -1.072891169323    -0.418742354063    14.003074004430
         C            0.180932053175     1.967057630678    -0.240540654063    12.000000000000
         C            1.676037353175     1.687284830677    -0.348036354063    12.000000000000
         C           -0.777203646825     0.827589830677    -0.099681354063    12.000000000000
         C            2.138452353175     0.667477830677     0.699970645937    12.000000000000
         C           -0.469354646825    -0.545510169323    -0.176233354063    12.000000000000
         C            2.041292353175    -0.726248169323     0.138930645937    12.000000000000
         C           -2.120117646825     1.174573830677     0.127810645937    12.000000000000
         C           -1.501708646825    -1.497340169323    -0.082428354063    12.000000000000
         C           -3.141074646825     0.234444830677     0.217755645937    12.000000000000
         C           -2.824746646825    -1.120846169323     0.109760645937    12.000000000000
         H           -0.123926646825     2.592897830677    -1.102294354063     1.007825032230
         H            0.038275353175     2.637512830678     0.640104645937     1.007825032230
         H            1.921081353175     1.316999830677    -1.349228354063     1.007825032230
         H            2.226203353175     2.626573830677    -0.222520354063     1.007825032230
         H            1.527339353175     0.752822830677     1.608579645937     1.007825032230
         H            3.183722353175     0.807367830677     0.984167645937     1.007825032230
         H            0.836411353175    -2.037373169323    -0.743039354063     1.007825032230
         H           -2.365533646825     2.233430830677     0.203629645937     1.007825032230
         H           -1.242303646825    -2.553410169323    -0.138142354063     1.007825032230
         H           -4.166897646825     0.553844830677     0.381832645937     1.007825032230
         H           -3.598938646825    -1.880919169323     0.177528645937     1.007825032230

  Basis Set: AUG-CC-PVTZ
    Blend: AUG-CC-PVTZ
  Basis Set: (AUG-CC-PVTZ AUX)
    Blend: AUG-CC-PVTZ-JKFIT
	 Reference Energy          =    -514.5932418744808956 [Eh]
	 Singles Energy            =      -0.0000000000000000 [Eh]
	 Same-Spin Energy          =      -0.5581202882586396 [Eh]
	 Opposite-Spin Energy      =      -1.7433593583963125 [Eh]
	 Correlation Energy        =      -2.3014796466549523 [Eh]
	 Total Energy              =    -516.8947215211358071 [Eh]

	 ================> DF-SCS-MP2 Energies <==================
	-----------------------------------------------------------
	 SCS Same-Spin Scale       =       0.3333333333333333 [-]
	 SCS Opposite-Spin Scale   =       1.2000000000000000 [-]
	 SCS Same-Spin Energy      =      -0.1860400960862132 [Eh]
	 SCS Opposite-Spin Energy  =      -2.0920312300755750 [Eh]
	 SCS Correlation Energy    =      -2.2780713261617880 [Eh]
	 SCS Total Energy          =    -516.8713132006427031 [Eh]
	-----------------------------------------------------------

  Dipole Moment: [D]
     X:    -2.7407      Y:     2.0542      Z:     0.0304     Total:     3.4253

*** Psi4 exiting successfully. Buy a developer a beer!
