                               Psi4 1.4a3.dev225

  ==> Input File <==

--------------------------------------------------------------------------
#psi4
#
memory 32 gb

molecule  {
0 1
  O        3.0005300    -1.5493530     0.0754490
  N        0.8317470    -1.1153310    -0.4215630
  C        0.1960040     1.9504030    -0.2395030
  C        1.6857700     1.6448450    -0.3508570
  C       -0.7674710     0.7851500    -0.1025020
  C        2.1481850     0.6250380     0.6971500
  C       -0.4639909    -0.5684633    -0.1779676
  C        2.0510250    -0.7686880     0.1361100
  C       -2.1103850     1.1321340     0.1249900
  C       -1.4919760    -1.5397800    -0.0852490
  C       -3.1313420     0.1920050     0.2149350
  C       -2.8150140    -1.1632860     0.1069400
  H       -0.1141940     2.5504580    -1.1051150
  H        0.0480080     2.5950730     0.6372840
  H        1.9308140     1.2745600    -1.3520490
  H        2.2359360     2.5841340    -0.2253410
  H        1.5370720     0.7103830     1.6057590
  H        3.1934550     0.7649280     0.9813470
  H        0.8461440    -2.0798130    -0.7458600
  H       -2.3558010     2.1909910     0.2008090
  H       -1.2325710    -2.5958500    -0.1409630
  H       -4.1571650     0.5114050     0.3790120
  H       -3.5892060    -1.9233590     0.1747080
units angstrom
no_reorient  #important for SAPT in psi4, default
symmetry c1  #important for SAPT in psi4, default
}

set PROPERTIES_ORIGIN ["COM"]
properties('MP2/aug-cc-pvtz', properties = ['dipole'])
--------------------------------------------------------------------------

    Molecular point group: c1
  Charge       = 0
  Multiplicity = 1
  Basis Set: AUG-CC-PVTZ
    Blend: AUG-CC-PVTZ
  Basis Set: (AUG-CC-PVTZ AUX)
    Blend: AUG-CC-PVTZ-JKFIT

    Orbital Energies [Eh]
    ---------------------

    Doubly Occupied:

       1A    -20.524476     2A    -15.595353     3A    -11.355757
       4A    -11.296870     5A    -11.253567     6A    -11.247063
       7A    -11.245783     8A    -11.245659     9A    -11.245131
      10A    -11.242542    11A    -11.241935    12A    -11.240425
      13A     -1.378854    14A     -1.250005    15A     -1.152698
      16A     -1.101534    17A     -1.040262    18A     -1.015101
      19A     -0.958126    20A     -0.879206    21A     -0.844536
      22A     -0.808470    23A     -0.764385    24A     -0.720615
      25A     -0.681105    26A     -0.671387    27A     -0.645711
      28A     -0.629634    29A     -0.611078    30A     -0.602479
      31A     -0.600321    32A     -0.579265    33A     -0.564316
      34A     -0.541666    35A     -0.518517    36A     -0.510941
      37A     -0.498453    38A     -0.492268    39A     -0.482412
      40A     -0.434087    41A     -0.424762    42A     -0.340942
      43A     -0.318022

  @DF-RHF Final Energy:  -514.59416911494498

   => Energetics <=

    Nuclear Repulsion Energy =            675.1604799715183844
    One-Electron Energy =               -2037.9178599869394475
    Two-Electron Energy =                 848.1632109004759741
    Total Energy =                       -514.5941691149449753
  Basis Set: (AUG-CC-PVTZ AUX)
    Blend: AUG-CC-PVTZ-RI
    Molecular point group: c1

    Geometry (in Angstrom), charge = 0, multiplicity = 1:

       Center              X                  Y                   Z               Mass
    ------------   -----------------  -----------------  -----------------  -----------------
         O            2.990725062970    -1.510285711501     0.077901289201    15.994914619570
         N            0.821942062970    -1.076263711501    -0.419110710799    14.003074004430
         C            0.186199062970     1.989470288499    -0.237050710799    12.000000000000
         C            1.675965062970     1.683912288499    -0.348404710799    12.000000000000
         C           -0.777275937030     0.824217288499    -0.100049710799    12.000000000000
         C            2.138380062970     0.664105288499     0.699602289201    12.000000000000
         C           -0.473795837030    -0.529396011501    -0.175515310799    12.000000000000
         C            2.041220062970    -0.729620711501     0.138562289201    12.000000000000
         C           -2.120189937030     1.171201288499     0.127442289201    12.000000000000
         C           -1.501780937030    -1.500712711501    -0.082796710799    12.000000000000
         C           -3.141146937030     0.231072288499     0.217387289201    12.000000000000
         C           -2.824818937030    -1.124218711501     0.109392289201    12.000000000000
         H           -0.123998937030     2.589525288499    -1.102662710799     1.007825032230
         H            0.038203062970     2.634140288499     0.639736289201     1.007825032230
         H            1.921009062970     1.313627288499    -1.349596710799     1.007825032230
         H            2.226131062970     2.623201288499    -0.222888710799     1.007825032230
         H            1.527267062970     0.749450288499     1.608211289201     1.007825032230
         H            3.183650062970     0.803995288499     0.983799289201     1.007825032230
         H            0.836339062970    -2.040745711501    -0.743407710799     1.007825032230
         H           -2.365605937030     2.230058288499     0.203261289201     1.007825032230
         H           -1.242375937030    -2.556782711501    -0.138510710799     1.007825032230
         H           -4.166969937030     0.550472288499     0.381464289201     1.007825032230
         H           -3.599010937030    -1.884291711501     0.177160289201     1.007825032230

  Basis Set: AUG-CC-PVTZ
    Blend: AUG-CC-PVTZ
  Basis Set: (AUG-CC-PVTZ AUX)
    Blend: AUG-CC-PVTZ-JKFIT
	 Reference Energy          =    -514.5941691149449753 [Eh]
	 Singles Energy            =      -0.0000000000000000 [Eh]
	 Same-Spin Energy          =      -0.5577063755049891 [Eh]
	 Opposite-Spin Energy      =      -1.7429193406734336 [Eh]
	 Correlation Energy        =      -2.3006257161784225 [Eh]
	 Total Energy              =    -516.8947948311233631 [Eh]

	 ================> DF-SCS-MP2 Energies <==================
	-----------------------------------------------------------
	 SCS Same-Spin Scale       =       0.3333333333333333 [-]
	 SCS Opposite-Spin Scale   =       1.2000000000000000 [-]
	 SCS Same-Spin Energy      =      -0.1859021251683297 [Eh]
	 SCS Opposite-Spin Energy  =      -2.0915032088081200 [Eh]
	 SCS Correlation Energy    =      -2.2774053339764495 [Eh]
	 SCS Total Energy          =    -516.8715744489214785 [Eh]
	-----------------------------------------------------------

  Dipole Moment: [D]
     X:    -2.8143      Y:     2.0782      Z:     0.0357     Total:     3.4987

*** Psi4 exiting successfully. Buy a developer a beer!
