                               Psi4 1.3.2 release

  ==> Input File <==

--------------------------------------------------------------------------
#psi4
#
memory 32 gb

molecule  {
0 1
  O        3.0005300    -1.5493530     0.0754490
  N        0.8317470    -1.1153310    -0.4215630
  C        0.1960040     1.9504030    -0.2395030
  C        1.6857700     1.6448450    -0.3508570
  C       -0.7674710     0.7851500    -0.1025020
  C        2.1481850     0.6250380     0.6971500
  C       -0.4596220    -0.5879500    -0.1790540
  C        2.0253567    -0.7649583     0.1319054
  C       -2.1103850     1.1321340     0.1249900
  C       -1.4919760    -1.5397800    -0.0852490
  C       -3.1313420     0.1920050     0.2149350
  C       -2.8150140    -1.1632860     0.1069400
  H       -0.1141940     2.5504580    -1.1051150
  H        0.0480080     2.5950730     0.6372840
  H        1.9308140     1.2745600    -1.3520490
  H        2.2359360     2.5841340    -0.2253410
  H        1.5370720     0.7103830     1.6057590
  H        3.1934550     0.7649280     0.9813470
  H        0.8461440    -2.0798130    -0.7458600
  H       -2.3558010     2.1909910     0.2008090
  H       -1.2325710    -2.5958500    -0.1409630
  H       -4.1571650     0.5114050     0.3790120
  H       -3.5892060    -1.9233590     0.1747080
units angstrom
no_reorient  #important for SAPT in psi4, default
symmetry c1  #important for SAPT in psi4, default
}

set PROPERTIES_ORIGIN ["COM"]
properties('MP2/aug-cc-pvtz', properties = ['dipole'])
--------------------------------------------------------------------------

    Molecular point group: c1
  Charge       = 0
  Multiplicity = 1
  Basis Set: AUG-CC-PVTZ
    Blend: AUG-CC-PVTZ
  Basis Set: (AUG-CC-PVTZ AUX)
    Blend: AUG-CC-PVTZ-JKFIT

    Orbital Energies [Eh]
    ---------------------

    Doubly Occupied:

       1A    -20.519544     2A    -15.600520     3A    -11.356046
       4A    -11.299133     5A    -11.257258     6A    -11.248081
       7A    -11.246529     8A    -11.246443     9A    -11.245825
      10A    -11.242905    11A    -11.242216    12A    -11.241715
      13A     -1.367405    14A     -1.256296    15A     -1.154233
      16A     -1.102530    17A     -1.039836    18A     -1.019119
      19A     -0.957975    20A     -0.882994    21A     -0.844997
      22A     -0.811135    23A     -0.768624    24A     -0.724568
      25A     -0.680296    26A     -0.672668    27A     -0.646721
      28A     -0.627640    29A     -0.611175    30A     -0.604079
      31A     -0.601403    32A     -0.577111    33A     -0.562611
      34A     -0.543230    35A     -0.518067    36A     -0.510541
      37A     -0.497697    38A     -0.493263    39A     -0.482371
      40A     -0.432409    41A     -0.421978    42A     -0.342081
      43A     -0.318533

  @DF-RHF Final Energy:  -514.59211762258110

   => Energetics <=

    Nuclear Repulsion Energy =            675.2803298728280197
    One-Electron Energy =               -2038.1052898397010722
    Two-Electron Energy =                 848.2328423442918393
    Total Energy =                       -514.5921176225810996
  Basis Set: (AUG-CC-PVTZ AUX)
    Blend: AUG-CC-PVTZ-RI
    Molecular point group: c1

    Geometry (in Angstrom), charge = 0, multiplicity = 1:

       Center              X                  Y                   Z               Mass
    ------------   -----------------  -----------------  -----------------  -----------------
         O            2.992311767413    -1.509111889613     0.078295443647    15.994914619570
         N            0.823528767413    -1.075089889613    -0.418716556353    14.003074004430
         C            0.187785767413     1.990644110387    -0.236656556353    12.000000000000
         C            1.677551767413     1.685086110387    -0.348010556353    12.000000000000
         C           -0.775689232587     0.825391110387    -0.099655556353    12.000000000000
         C            2.139966767413     0.665279110387     0.699996443647    12.000000000000
         C           -0.467840232587    -0.547708889613    -0.176207556353    12.000000000000
         C            2.017138467413    -0.724717189613     0.134751843647    12.000000000000
         C           -2.118603232587     1.172375110387     0.127836443647    12.000000000000
         C           -1.500194232587    -1.499538889613    -0.082402556353    12.000000000000
         C           -3.139560232587     0.232246110387     0.217781443647    12.000000000000
         C           -2.823232232587    -1.123044889613     0.109786443647    12.000000000000
         H           -0.122412232587     2.590699110387    -1.102268556353     1.007825032230
         H            0.039789767413     2.635314110387     0.640130443647     1.007825032230
         H            1.922595767413     1.314801110387    -1.349202556353     1.007825032230
         H            2.227717767413     2.624375110387    -0.222494556353     1.007825032230
         H            1.528853767413     0.750624110387     1.608605443647     1.007825032230
         H            3.185236767413     0.805169110387     0.984193443647     1.007825032230
         H            0.837925767413    -2.039571889613    -0.743013556353     1.007825032230
         H           -2.364019232587     2.231232110387     0.203655443647     1.007825032230
         H           -1.240789232587    -2.555608889613    -0.138116556353     1.007825032230
         H           -4.165383232587     0.551646110387     0.381858443647     1.007825032230
         H           -3.597424232587    -1.883117889613     0.177554443647     1.007825032230

  Basis Set: AUG-CC-PVTZ
    Blend: AUG-CC-PVTZ
  Basis Set: (AUG-CC-PVTZ AUX)
    Blend: AUG-CC-PVTZ-JKFIT
	 Reference Energy          =    -514.5921176225810996 [Eh]
	 Singles Energy            =      -0.0000000000000000 [Eh]
	 Same-Spin Energy          =      -0.5582750089287614 [Eh]
	 Opposite-Spin Energy      =      -1.7438129827911275 [Eh]
	 Correlation Energy        =      -2.3020879917198886 [Eh]
	 Total Energy              =    -516.8942056143009722 [Eh]

	 ================> DF-SCS-MP2 Energies <==================
	-----------------------------------------------------------
	 SCS Same-Spin Scale       =       0.3333333333333333 [-]
	 SCS Opposite-Spin Scale   =       1.2000000000000000 [-]
	 SCS Same-Spin Energy      =      -0.1860916696429205 [Eh]
	 SCS Opposite-Spin Energy  =      -2.0925755793493530 [Eh]
	 SCS Correlation Energy    =      -2.2786672489922735 [Eh]
	 SCS Total Energy          =    -516.8707848715733917 [Eh]
	-----------------------------------------------------------

  Dipole Moment: [D]
     X:    -3.0306      Y:     2.1272      Z:    -0.0068     Total:     3.7027

*** Psi4 exiting successfully. Buy a developer a beer!
