                               Psi4 1.3.2 release

  ==> Input File <==

--------------------------------------------------------------------------
#psi4
#
memory 32 gb

molecule  {
0 1
  O        3.0005300    -1.5493530     0.0754490
  N        0.8317470    -1.1153310    -0.4215630
  C        0.1960040     1.9504030    -0.2395030
  C        1.6857700     1.6448450    -0.3508570
  C       -0.7674710     0.7851500    -0.1025020
  C        2.1481850     0.6250380     0.6971500
  C       -0.4596220    -0.5879500    -0.1790540
  C        2.1024426    -0.7748727     0.1450306
  C       -2.1103850     1.1321340     0.1249900
  C       -1.4919760    -1.5397800    -0.0852490
  C       -3.1313420     0.1920050     0.2149350
  C       -2.8150140    -1.1632860     0.1069400
  H       -0.1141940     2.5504580    -1.1051150
  H        0.0480080     2.5950730     0.6372840
  H        1.9308140     1.2745600    -1.3520490
  H        2.2359360     2.5841340    -0.2253410
  H        1.5370720     0.7103830     1.6057590
  H        3.1934550     0.7649280     0.9813470
  H        0.8461440    -2.0798130    -0.7458600
  H       -2.3558010     2.1909910     0.2008090
  H       -1.2325710    -2.5958500    -0.1409630
  H       -4.1571650     0.5114050     0.3790120
  H       -3.5892060    -1.9233590     0.1747080
units angstrom
no_reorient  #important for SAPT in psi4, default
symmetry c1  #important for SAPT in psi4, default
}

set PROPERTIES_ORIGIN ["COM"]
properties('MP2/aug-cc-pvtz', properties = ['dipole'])
--------------------------------------------------------------------------

    Molecular point group: c1
  Charge       = 0
  Multiplicity = 1
  Basis Set: AUG-CC-PVTZ
    Blend: AUG-CC-PVTZ
  Basis Set: (AUG-CC-PVTZ AUX)
    Blend: AUG-CC-PVTZ-JKFIT

    Orbital Energies [Eh]
    ---------------------

    Doubly Occupied:

       1A    -20.537612     2A    -15.586881     3A    -11.358537
       4A    -11.293474     5A    -11.251086     6A    -11.243435
       7A    -11.243305     8A    -11.243280     9A    -11.242162
      10A    -11.242092    11A    -11.240263    12A    -11.236101
      13A     -1.410658    14A     -1.243278    15A     -1.145823
      16A     -1.100528    17A     -1.037179    18A     -1.010144
      19A     -0.955686    20A     -0.875841    21A     -0.838525
      22A     -0.804177    23A     -0.760259    24A     -0.716485
      25A     -0.685427    26A     -0.667716    27A     -0.649085
      28A     -0.630827    29A     -0.611109    30A     -0.604087
      31A     -0.598618    32A     -0.583174    33A     -0.566924
      34A     -0.540042    35A     -0.516200    36A     -0.513059
      37A     -0.499474    38A     -0.489077    39A     -0.483344
      40A     -0.437656    41A     -0.431300    42A     -0.337490
      43A     -0.310624

  @DF-RHF Final Energy:  -514.59310301462847

   => Energetics <=

    Nuclear Repulsion Energy =            674.6802469327658400
    One-Electron Energy =               -2037.0026143242560011
    Two-Electron Energy =                 847.7292643768616927
    Total Energy =                       -514.5931030146284684
  Basis Set: (AUG-CC-PVTZ AUX)
    Blend: AUG-CC-PVTZ-RI
    Molecular point group: c1

    Geometry (in Angstrom), charge = 0, multiplicity = 1:

       Center              X                  Y                   Z               Mass
    ------------   -----------------  -----------------  -----------------  -----------------
         O            2.986569232880    -1.508373313760     0.077317678398    15.994914619570
         N            0.817786232880    -1.074351313760    -0.419694321602    14.003074004430
         C            0.182043232880     1.991382686240    -0.237634321602    12.000000000000
         C            1.671809232880     1.685824686240    -0.348988321602    12.000000000000
         C           -0.781431767120     0.826129686240    -0.100633321602    12.000000000000
         C            2.134224232880     0.666017686240     0.699018678398    12.000000000000
         C           -0.473582767120    -0.546970313760    -0.177185321602    12.000000000000
         C            2.088481832880    -0.733893013760     0.146899278398    12.000000000000
         C           -2.124345767120     1.173113686240     0.126858678398    12.000000000000
         C           -1.505936767120    -1.498800313760    -0.083380321602    12.000000000000
         C           -3.145302767120     0.232984686240     0.216803678398    12.000000000000
         C           -2.828974767120    -1.122306313760     0.108808678398    12.000000000000
         H           -0.128154767120     2.591437686240    -1.103246321602     1.007825032230
         H            0.034047232880     2.636052686240     0.639152678398     1.007825032230
         H            1.916853232880     1.315539686240    -1.350180321602     1.007825032230
         H            2.221975232880     2.625113686240    -0.223472321602     1.007825032230
         H            1.523111232880     0.751362686240     1.607627678398     1.007825032230
         H            3.179494232880     0.805907686240     0.983215678398     1.007825032230
         H            0.832183232880    -2.038833313760    -0.743991321602     1.007825032230
         H           -2.369761767120     2.231970686240     0.202677678398     1.007825032230
         H           -1.246531767120    -2.554870313760    -0.139094321602     1.007825032230
         H           -4.171125767120     0.552384686240     0.380880678398     1.007825032230
         H           -3.603166767120    -1.882379313760     0.176576678398     1.007825032230

  Basis Set: AUG-CC-PVTZ
    Blend: AUG-CC-PVTZ
  Basis Set: (AUG-CC-PVTZ AUX)
    Blend: AUG-CC-PVTZ-JKFIT
	 Reference Energy          =    -514.5931030146284684 [Eh]
	 Singles Energy            =      -0.0000000000000000 [Eh]
	 Same-Spin Energy          =      -0.5571664884678198 [Eh]
	 Opposite-Spin Energy      =      -1.7416608525605879 [Eh]
	 Correlation Energy        =      -2.2988273410284075 [Eh]
	 Total Energy              =    -516.8919303556568821 [Eh]

	 ================> DF-SCS-MP2 Energies <==================
	-----------------------------------------------------------
	 SCS Same-Spin Scale       =       0.3333333333333333 [-]
	 SCS Opposite-Spin Scale   =       1.2000000000000000 [-]
	 SCS Same-Spin Energy      =      -0.1857221628226066 [Eh]
	 SCS Opposite-Spin Energy  =      -2.0899930230727053 [Eh]
	 SCS Correlation Energy    =      -2.2757151858953120 [Eh]
	 SCS Total Energy          =    -516.8688182005238332 [Eh]
	-----------------------------------------------------------

  Dipole Moment: [D]
     X:    -2.1374      Y:     1.9372      Z:     0.1226     Total:     2.8872

*** Psi4 exiting successfully. Buy a developer a beer!
