                               Psi4 1.3.2 release

  ==> Input File <==

--------------------------------------------------------------------------
#psi4
#
memory 32 gb

molecule  {
0 1
  O        3.0005300    -1.5493530     0.0754490
  N        0.8317470    -1.1153310    -0.4215630
  C        0.1960040     1.9504030    -0.2395030
  C        1.6857700     1.6448450    -0.3508570
  C       -0.7674710     0.7851500    -0.1025020
  C        2.1481850     0.6250380     0.6971500
  C       -0.5549669    -0.6066579    -0.1637200
  C        2.0510250    -0.7686880     0.1361100
  C       -2.1103850     1.1321340     0.1249900
  C       -1.4919760    -1.5397800    -0.0852490
  C       -3.1313420     0.1920050     0.2149350
  C       -2.8150140    -1.1632860     0.1069400
  H       -0.1141940     2.5504580    -1.1051150
  H        0.0480080     2.5950730     0.6372840
  H        1.9308140     1.2745600    -1.3520490
  H        2.2359360     2.5841340    -0.2253410
  H        1.5370720     0.7103830     1.6057590
  H        3.1934550     0.7649280     0.9813470
  H        0.8461440    -2.0798130    -0.7458600
  H       -2.3558010     2.1909910     0.2008090
  H       -1.2325710    -2.5958500    -0.1409630
  H       -4.1571650     0.5114050     0.3790120
  H       -3.5892060    -1.9233590     0.1747080
units angstrom
no_reorient  #important for SAPT in psi4, default
symmetry c1  #important for SAPT in psi4, default
}

set PROPERTIES_ORIGIN ["COM"]
properties('MP2/aug-cc-pvtz', properties = ['dipole'])
--------------------------------------------------------------------------

    Molecular point group: c1
  Charge       = 0
  Multiplicity = 1
  Basis Set: AUG-CC-PVTZ
    Blend: AUG-CC-PVTZ
  Basis Set: (AUG-CC-PVTZ AUX)
    Blend: AUG-CC-PVTZ-JKFIT

    Orbital Energies [Eh]
    ---------------------

    Doubly Occupied:

       1A    -20.519712     2A    -15.587881     3A    -11.351620
       4A    -11.294133     5A    -11.259008     6A    -11.248974
       7A    -11.248727     8A    -11.246578     9A    -11.242654
      10A    -11.241517    11A    -11.240014    12A    -11.239185
      13A     -1.373116    14A     -1.234698    15A     -1.157249
      16A     -1.102944    17A     -1.039761    18A     -1.026881
      19A     -0.958300    20A     -0.877694    21A     -0.841176
      22A     -0.806213    23A     -0.766563    24A     -0.714524
      25A     -0.678125    26A     -0.663070    27A     -0.646905
      28A     -0.633074    29A     -0.609787    30A     -0.607268
      31A     -0.598771    32A     -0.574337    33A     -0.562652
      34A     -0.542214    35A     -0.514777    36A     -0.511848
      37A     -0.499754    38A     -0.495993    39A     -0.484327
      40A     -0.427278    41A     -0.419909    42A     -0.346678
      43A     -0.324351

  @DF-RHF Final Energy:  -514.58366729144223

   => Energetics <=

    Nuclear Repulsion Energy =            674.8340445746889600
    One-Electron Energy =               -2037.3149417085153345
    Two-Electron Energy =                 847.8972298423841494
    Total Energy =                       -514.5836672914422252
  Basis Set: (AUG-CC-PVTZ AUX)
    Blend: AUG-CC-PVTZ-RI
    Molecular point group: c1

    Geometry (in Angstrom), charge = 0, multiplicity = 1:

       Center              X                  Y                   Z               Mass
    ------------   -----------------  -----------------  -----------------  -----------------
         O            2.997502344179    -1.507440394660     0.076839910467    15.994914619570
         N            0.828719344179    -1.073418394660    -0.420172089533    14.003074004430
         C            0.192976344179     1.992315605340    -0.238112089533    12.000000000000
         C            1.682742344179     1.686757605340    -0.349466089533    12.000000000000
         C           -0.770498655821     0.827062605340    -0.101111089533    12.000000000000
         C            2.145157344179     0.666950605340     0.698540910467    12.000000000000
         C           -0.557994555821    -0.564745294660    -0.162329089533    12.000000000000
         C            2.047997344179    -0.726775394660     0.137500910467    12.000000000000
         C           -2.113412655821     1.174046605340     0.126380910467    12.000000000000
         C           -1.495003655821    -1.497867394660    -0.083858089533    12.000000000000
         C           -3.134369655821     0.233917605340     0.216325910467    12.000000000000
         C           -2.818041655821    -1.121373394660     0.108330910467    12.000000000000
         H           -0.117221655821     2.592370605340    -1.103724089533     1.007825032230
         H            0.044980344179     2.636985605340     0.638674910467     1.007825032230
         H            1.927786344179     1.316472605340    -1.350658089533     1.007825032230
         H            2.232908344179     2.626046605340    -0.223950089533     1.007825032230
         H            1.534044344179     0.752295605340     1.607149910467     1.007825032230
         H            3.190427344179     0.806840605340     0.982737910467     1.007825032230
         H            0.843116344179    -2.037900394660    -0.744469089533     1.007825032230
         H           -2.358828655821     2.232903605340     0.202199910467     1.007825032230
         H           -1.235598655821    -2.553937394660    -0.139572089533     1.007825032230
         H           -4.160192655821     0.553317605340     0.380402910467     1.007825032230
         H           -3.592233655821    -1.881446394660     0.176098910467     1.007825032230

  Basis Set: AUG-CC-PVTZ
    Blend: AUG-CC-PVTZ
  Basis Set: (AUG-CC-PVTZ AUX)
    Blend: AUG-CC-PVTZ-JKFIT
	 Reference Energy          =    -514.5836672914422252 [Eh]
	 Singles Energy            =      -0.0000000000000000 [Eh]
	 Same-Spin Energy          =      -0.5575015108522283 [Eh]
	 Opposite-Spin Energy      =      -1.7428546606998114 [Eh]
	 Correlation Energy        =      -2.3003561715520400 [Eh]
	 Total Energy              =    -516.8840234629942643 [Eh]

	 ================> DF-SCS-MP2 Energies <==================
	-----------------------------------------------------------
	 SCS Same-Spin Scale       =       0.3333333333333333 [-]
	 SCS Opposite-Spin Scale   =       1.2000000000000000 [-]
	 SCS Same-Spin Energy      =      -0.1858338369507428 [Eh]
	 SCS Opposite-Spin Energy  =      -2.0914255928397738 [Eh]
	 SCS Correlation Energy    =      -2.2772594297905164 [Eh]
	 SCS Total Energy          =    -516.8609267212327723 [Eh]
	-----------------------------------------------------------

  Dipole Moment: [D]
     X:    -3.1908      Y:     2.1802      Z:     0.0854     Total:     3.8655

*** Psi4 exiting successfully. Buy a developer a beer!
