                               Psi4 1.3.2 release

  ==> Input File <==

--------------------------------------------------------------------------
#psi4
#
memory 32 gb

molecule  {
0 1
  O        3.0005300    -1.5493530     0.0754490
  N        0.8317470    -1.1153310    -0.4215630
  C        0.1960040     1.9504030    -0.2395030
  C        1.6857700     1.6448450    -0.3508570
  C       -0.7674710     0.7851500    -0.1025020
  C        2.1481850     0.6250380     0.6971500
  C       -0.4274990    -0.6246404    -0.1849624
  C        2.0510250    -0.7686880     0.1361100
  C       -2.1103850     1.1321340     0.1249900
  C       -1.4919760    -1.5397800    -0.0852490
  C       -3.1313420     0.1920050     0.2149350
  C       -2.8150140    -1.1632860     0.1069400
  H       -0.1141940     2.5504580    -1.1051150
  H        0.0480080     2.5950730     0.6372840
  H        1.9308140     1.2745600    -1.3520490
  H        2.2359360     2.5841340    -0.2253410
  H        1.5370720     0.7103830     1.6057590
  H        3.1934550     0.7649280     0.9813470
  H        0.8461440    -2.0798130    -0.7458600
  H       -2.3558010     2.1909910     0.2008090
  H       -1.2325710    -2.5958500    -0.1409630
  H       -4.1571650     0.5114050     0.3790120
  H       -3.5892060    -1.9233590     0.1747080
units angstrom
no_reorient  #important for SAPT in psi4, default
symmetry c1  #important for SAPT in psi4, default
}

set PROPERTIES_ORIGIN ["COM"]
properties('MP2/aug-cc-pvtz', properties = ['dipole'])
--------------------------------------------------------------------------

    Molecular point group: c1
  Charge       = 0
  Multiplicity = 1
  Basis Set: AUG-CC-PVTZ
    Blend: AUG-CC-PVTZ
  Basis Set: (AUG-CC-PVTZ AUX)
    Blend: AUG-CC-PVTZ-JKFIT

    Orbital Energies [Eh]
    ---------------------

    Doubly Occupied:

       1A    -20.529715     2A    -15.599597     3A    -11.360933
       4A    -11.299230     5A    -11.257476     6A    -11.245167
       7A    -11.244432     8A    -11.243737     9A    -11.243316
      10A    -11.242716    11A    -11.242396    12A    -11.237823
      13A     -1.384684    14A     -1.265764    15A     -1.147537
      16A     -1.102328    17A     -1.036397    18A     -1.015606
      19A     -0.954878    20A     -0.884485    21A     -0.840812
      22A     -0.809680    23A     -0.767778    24A     -0.726962
      25A     -0.684053    26A     -0.671322    27A     -0.647202
      28A     -0.627145    29A     -0.612340    30A     -0.603956
      31A     -0.601492    32A     -0.578602    33A     -0.565517
      34A     -0.543361    35A     -0.517244    36A     -0.509928
      37A     -0.497889    38A     -0.489268    39A     -0.481471
      40A     -0.439395    41A     -0.429801    42A     -0.339242
      43A     -0.308870

  @DF-RHF Final Energy:  -514.59038050107188

   => Energetics <=

    Nuclear Repulsion Energy =            674.9611392281278768
    One-Electron Energy =               -2037.4399447711491575
    Two-Electron Energy =                 847.8884250419494037
    Total Energy =                       -514.5903805010718770
  Basis Set: (AUG-CC-PVTZ AUX)
    Blend: AUG-CC-PVTZ-RI
    Molecular point group: c1

    Geometry (in Angstrom), charge = 0, multiplicity = 1:

       Center              X                  Y                   Z               Mass
    ------------   -----------------  -----------------  -----------------  -----------------
         O            2.988006589216    -1.506100783561     0.078422368680    15.994914619570
         N            0.819223589216    -1.072078783561    -0.418589631320    14.003074004430
         C            0.183480589216     1.993655216439    -0.236529631320    12.000000000000
         C            1.673246589216     1.688097216439    -0.347883631320    12.000000000000
         C           -0.779994410784     0.828402216439    -0.099528631320    12.000000000000
         C            2.135661589216     0.668290216439     0.700123368680    12.000000000000
         C           -0.440022410784    -0.581388183561    -0.181989031320    12.000000000000
         C            2.038501589216    -0.725435783561     0.139083368680    12.000000000000
         C           -2.122908410784     1.175386216439     0.127963368680    12.000000000000
         C           -1.504499410784    -1.496527783561    -0.082275631320    12.000000000000
         C           -3.143865410784     0.235257216439     0.217908368680    12.000000000000
         C           -2.827537410784    -1.120033783561     0.109913368680    12.000000000000
         H           -0.126717410784     2.593710216439    -1.102141631320     1.007825032230
         H            0.035484589216     2.638325216439     0.640257368680     1.007825032230
         H            1.918290589216     1.317812216439    -1.349075631320     1.007825032230
         H            2.223412589216     2.627386216439    -0.222367631320     1.007825032230
         H            1.524548589216     0.753635216439     1.608732368680     1.007825032230
         H            3.180931589216     0.808180216439     0.984320368680     1.007825032230
         H            0.833620589216    -2.036560783561    -0.742886631320     1.007825032230
         H           -2.368324410784     2.234243216439     0.203782368680     1.007825032230
         H           -1.245094410784    -2.552597783561    -0.137989631320     1.007825032230
         H           -4.169688410784     0.554657216439     0.381985368680     1.007825032230
         H           -3.601729410784    -1.880106783561     0.177681368680     1.007825032230

  Basis Set: AUG-CC-PVTZ
    Blend: AUG-CC-PVTZ
  Basis Set: (AUG-CC-PVTZ AUX)
    Blend: AUG-CC-PVTZ-JKFIT
	 Reference Energy          =    -514.5903805010718770 [Eh]
	 Singles Energy            =      -0.0000000000000000 [Eh]
	 Same-Spin Energy          =      -0.5584411610410223 [Eh]
	 Opposite-Spin Energy      =      -1.7437602151542095 [Eh]
	 Correlation Energy        =      -2.3022013761952316 [Eh]
	 Total Energy              =    -516.8925818772671619 [Eh]

	 ================> DF-SCS-MP2 Energies <==================
	-----------------------------------------------------------
	 SCS Same-Spin Scale       =       0.3333333333333333 [-]
	 SCS Opposite-Spin Scale   =       1.2000000000000000 [-]
	 SCS Same-Spin Energy      =      -0.1861470536803407 [Eh]
	 SCS Opposite-Spin Energy  =      -2.0925122581850513 [Eh]
	 SCS Correlation Energy    =      -2.2786593118653919 [Eh]
	 SCS Total Energy          =    -516.8690398129372170 [Eh]
	-----------------------------------------------------------

  Dipole Moment: [D]
     X:    -2.4681      Y:     1.9970      Z:     0.0195     Total:     3.1749

*** Psi4 exiting successfully. Buy a developer a beer!
