                               Psi4 1.3.2 release

  ==> Input File <==

--------------------------------------------------------------------------
#psi4
#
memory 32 gb

molecule  {
0 1
  O        3.0005300    -1.5493530     0.0754490
  N        0.8650432    -1.0224020    -0.4262153
  C        0.1960040     1.9504030    -0.2395030
  C        1.6857700     1.6448450    -0.3508570
  C       -0.7674710     0.7851500    -0.1025020
  C        2.1481850     0.6250380     0.6971500
  C       -0.4596220    -0.5879500    -0.1790540
  C        2.0510250    -0.7686880     0.1361100
  C       -2.1103850     1.1321340     0.1249900
  C       -1.4919760    -1.5397800    -0.0852490
  C       -3.1313420     0.1920050     0.2149350
  C       -2.8150140    -1.1632860     0.1069400
  H       -0.1141940     2.5504580    -1.1051150
  H        0.0480080     2.5950730     0.6372840
  H        1.9308140     1.2745600    -1.3520490
  H        2.2359360     2.5841340    -0.2253410
  H        1.5370720     0.7103830     1.6057590
  H        3.1934550     0.7649280     0.9813470
  H        0.8461440    -2.0798130    -0.7458600
  H       -2.3558010     2.1909910     0.2008090
  H       -1.2325710    -2.5958500    -0.1409630
  H       -4.1571650     0.5114050     0.3790120
  H       -3.5892060    -1.9233590     0.1747080
units angstrom
no_reorient  #important for SAPT in psi4, default
symmetry c1  #important for SAPT in psi4, default
}

set PROPERTIES_ORIGIN ["COM"]
properties('MP2/aug-cc-pvtz', properties = ['dipole'])
--------------------------------------------------------------------------

    Molecular point group: c1
  Charge       = 0
  Multiplicity = 1
  Basis Set: AUG-CC-PVTZ
    Blend: AUG-CC-PVTZ
  Basis Set: (AUG-CC-PVTZ AUX)
    Blend: AUG-CC-PVTZ-JKFIT

    Orbital Energies [Eh]
    ---------------------

    Doubly Occupied:

       1A    -20.521248     2A    -15.604135     3A    -11.351121
       4A    -11.300513     5A    -11.255897     6A    -11.249997
       7A    -11.248563     8A    -11.245936     9A    -11.245065
      10A    -11.242533    11A    -11.240456    12A    -11.237720
      13A     -1.379916    14A     -1.258018    15A     -1.154910
      16A     -1.100024    17A     -1.040983    18A     -1.020802
      19A     -0.954312    20A     -0.884936    21A     -0.845729
      22A     -0.810063    23A     -0.762513    24A     -0.716804
      25A     -0.678926    26A     -0.671349    27A     -0.645254
      28A     -0.630417    29A     -0.611408    30A     -0.605342
      31A     -0.599907    32A     -0.576082    33A     -0.557794
      34A     -0.542230    35A     -0.517605    36A     -0.511740
      37A     -0.497760    38A     -0.489774    39A     -0.482509
      40A     -0.435975    41A     -0.423181    42A     -0.342669
      43A     -0.319951

  @DF-RHF Final Energy:  -514.58128483278870

   => Energetics <=

    Nuclear Repulsion Energy =            676.2652453955672627
    One-Electron Energy =               -2040.0689298796389721
    Two-Electron Energy =                 849.2223996512830126
    Total Energy =                       -514.5812848327886968
  Basis Set: (AUG-CC-PVTZ AUX)
    Blend: AUG-CC-PVTZ-RI
    Molecular point group: c1

    Geometry (in Angstrom), charge = 0, multiplicity = 1:

       Center              X                  Y                   Z               Mass
    ------------   -----------------  -----------------  -----------------  -----------------
         O            2.987505154433    -1.516912383549     0.078386646345    15.994914619570
         N            0.852018354433    -0.989961383549    -0.423277653655    14.003074004430
         C            0.182979154433     1.982843616451    -0.236565353655    12.000000000000
         C            1.672745154433     1.677285616451    -0.347919353655    12.000000000000
         C           -0.780495845567     0.817590616451    -0.099564353655    12.000000000000
         C            2.135160154433     0.657478616451     0.700087646345    12.000000000000
         C           -0.472646845567    -0.555509383549    -0.176116353655    12.000000000000
         C            2.038000154433    -0.736247383549     0.139047646345    12.000000000000
         C           -2.123409845567     1.164574616451     0.127927646345    12.000000000000
         C           -1.505000845567    -1.507339383549    -0.082311353655    12.000000000000
         C           -3.144366845567     0.224445616451     0.217872646345    12.000000000000
         C           -2.828038845567    -1.130845383549     0.109877646345    12.000000000000
         H           -0.127218845567     2.582898616451    -1.102177353655     1.007825032230
         H            0.034983154433     2.627513616451     0.640221646345     1.007825032230
         H            1.917789154433     1.307000616451    -1.349111353655     1.007825032230
         H            2.222911154433     2.616574616451    -0.222403353655     1.007825032230
         H            1.524047154433     0.742823616451     1.608696646345     1.007825032230
         H            3.180430154433     0.797368616451     0.984284646345     1.007825032230
         H            0.833119154433    -2.047372383549    -0.742922353655     1.007825032230
         H           -2.368825845567     2.223431616451     0.203746646345     1.007825032230
         H           -1.245595845567    -2.563409383549    -0.138025353655     1.007825032230
         H           -4.170189845567     0.543845616451     0.381949646345     1.007825032230
         H           -3.602230845567    -1.890918383549     0.177645646345     1.007825032230

  Basis Set: AUG-CC-PVTZ
    Blend: AUG-CC-PVTZ
  Basis Set: (AUG-CC-PVTZ AUX)
    Blend: AUG-CC-PVTZ-JKFIT
	 Reference Energy          =    -514.5812848327886968 [Eh]
	 Singles Energy            =      -0.0000000000000000 [Eh]
	 Same-Spin Energy          =      -0.5590675551115201 [Eh]
	 Opposite-Spin Energy      =      -1.7451510031006743 [Eh]
	 Correlation Energy        =      -2.3042185582121943 [Eh]
	 Total Energy              =    -516.8855033910008387 [Eh]

	 ================> DF-SCS-MP2 Energies <==================
	-----------------------------------------------------------
	 SCS Same-Spin Scale       =       0.3333333333333333 [-]
	 SCS Opposite-Spin Scale   =       1.2000000000000000 [-]
	 SCS Same-Spin Energy      =      -0.1863558517038400 [Eh]
	 SCS Opposite-Spin Energy  =      -2.0941812037208090 [Eh]
	 SCS Correlation Energy    =      -2.2805370554246491 [Eh]
	 SCS Total Energy          =    -516.8618218882133988 [Eh]
	-----------------------------------------------------------

  Dipole Moment: [D]
     X:    -3.0896      Y:     2.0091      Z:     0.0237     Total:     3.6855

*** Psi4 exiting successfully. Buy a developer a beer!
