                               Psi4 1.3.2 release

  ==> Input File <==

--------------------------------------------------------------------------
#psi4
#
memory 32 gb

molecule  {
0 1
  O        3.0005300    -1.5493530     0.0754490
  N        0.8317470    -1.1153310    -0.4215630
  C        0.1960040     1.9504030    -0.2395030
  C        1.6857700     1.6448450    -0.3508570
  C       -0.7674710     0.7851500    -0.1025020
  C        2.1481850     0.6250380     0.6971500
  C       -0.4596220    -0.5879500    -0.1790540
  C        2.0510250    -0.7686880     0.1361100
  C       -2.1103850     1.1321340     0.1249900
  C       -1.4919760    -1.5397800    -0.0852490
  C       -3.1313420     0.1920050     0.2149350
  C       -2.8150140    -1.1632860     0.1069400
  H       -0.0576909     2.4411570    -0.9474423
  H        0.0480080     2.5950730     0.6372840
  H        1.9308140     1.2745600    -1.3520490
  H        2.2359360     2.5841340    -0.2253410
  H        1.5370720     0.7103830     1.6057590
  H        3.1934550     0.7649280     0.9813470
  H        0.8461440    -2.0798130    -0.7458600
  H       -2.3558010     2.1909910     0.2008090
  H       -1.2325710    -2.5958500    -0.1409630
  H       -4.1571650     0.5114050     0.3790120
  H       -3.5892060    -1.9233590     0.1747080
units angstrom
no_reorient  #important for SAPT in psi4, default
symmetry c1  #important for SAPT in psi4, default
}

set PROPERTIES_ORIGIN ["COM"]
properties('MP2/aug-cc-pvtz', properties = ['dipole'])
--------------------------------------------------------------------------

    Molecular point group: c1
  Charge       = 0
  Multiplicity = 1
  Basis Set: AUG-CC-PVTZ
    Blend: AUG-CC-PVTZ
  Basis Set: (AUG-CC-PVTZ AUX)
    Blend: AUG-CC-PVTZ-JKFIT

    Orbital Energies [Eh]
    ---------------------

    Doubly Occupied:

       1A    -20.525130     2A    -15.595647     3A    -11.356409
       4A    -11.296768     5A    -11.254260     6A    -11.246235
       7A    -11.244988     8A    -11.244203     9A    -11.241885
      10A    -11.241093    11A    -11.239756    12A    -11.220203
      13A     -1.379568    14A     -1.252605    15A     -1.152318
      16A     -1.107179    17A     -1.040382    18A     -1.016086
      19A     -0.968174    20A     -0.882420    21A     -0.842662
      22A     -0.816089    23A     -0.768328    24A     -0.721888
      25A     -0.687780    26A     -0.673268    27A     -0.647123
      28A     -0.629450    29A     -0.626929    30A     -0.603595
      31A     -0.600780    32A     -0.578212    33A     -0.566147
      34A     -0.541760    35A     -0.518714    36A     -0.510344
      37A     -0.501199    38A     -0.496406    39A     -0.481861
      40A     -0.435065    41A     -0.425546    42A     -0.341557
      43A     -0.315912

  @DF-RHF Final Energy:  -514.56201161522824

   => Energetics <=

    Nuclear Repulsion Energy =            676.2550900635181961
    One-Electron Energy =               -2039.9623576572375896
    Two-Electron Energy =                 849.1452559784910363
    Total Energy =                       -514.5620116152282435
  Basis Set: (AUG-CC-PVTZ AUX)
    Blend: AUG-CC-PVTZ-RI
    Molecular point group: c1

    Geometry (in Angstrom), charge = 0, multiplicity = 1:

       Center              X                  Y                   Z               Mass
    ------------   -----------------  -----------------  -----------------  -----------------
         O            2.990046088055    -1.508150201163     0.076995739078    15.994914619570
         N            0.821263088055    -1.074128201163    -0.420016260922    14.003074004430
         C            0.185520088055     1.991605798837    -0.237956260922    12.000000000000
         C            1.675286088055     1.686047798837    -0.349310260922    12.000000000000
         C           -0.777954911945     0.826352798837    -0.100955260922    12.000000000000
         C            2.137701088055     0.666240798837     0.698696739078    12.000000000000
         C           -0.470105911945    -0.546747201163    -0.177507260922    12.000000000000
         C            2.040541088055    -0.727485201163     0.137656739078    12.000000000000
         C           -2.120868911945     1.173336798837     0.126536739078    12.000000000000
         C           -1.502459911945    -1.498577201163    -0.083702260922    12.000000000000
         C           -3.141825911945     0.233207798837     0.216481739078    12.000000000000
         C           -2.825497911945    -1.122083201163     0.108486739078    12.000000000000
         H           -0.068174811945     2.482359798837    -0.945895560922     1.007825032230
         H            0.037524088055     2.636275798837     0.638830739078     1.007825032230
         H            1.920330088055     1.315762798837    -1.350502260922     1.007825032230
         H            2.225452088055     2.625336798837    -0.223794260922     1.007825032230
         H            1.526588088055     0.751585798837     1.607305739078     1.007825032230
         H            3.182971088055     0.806130798837     0.982893739078     1.007825032230
         H            0.835660088055    -2.038610201163    -0.744313260922     1.007825032230
         H           -2.366284911945     2.232193798837     0.202355739078     1.007825032230
         H           -1.243054911945    -2.554647201163    -0.139416260922     1.007825032230
         H           -4.167648911945     0.552607798837     0.380558739078     1.007825032230
         H           -3.599689911945    -1.882156201163     0.176254739078     1.007825032230

  Basis Set: AUG-CC-PVTZ
    Blend: AUG-CC-PVTZ
  Basis Set: (AUG-CC-PVTZ AUX)
    Blend: AUG-CC-PVTZ-JKFIT
	 Reference Energy          =    -514.5620116152282435 [Eh]
	 Singles Energy            =      -0.0000000000000000 [Eh]
	 Same-Spin Energy          =      -0.5577901209070912 [Eh]
	 Opposite-Spin Energy      =      -1.7421676505480246 [Eh]
	 Correlation Energy        =      -2.2999577714551158 [Eh]
	 Total Energy              =    -516.8619693866833131 [Eh]

	 ================> DF-SCS-MP2 Energies <==================
	-----------------------------------------------------------
	 SCS Same-Spin Scale       =       0.3333333333333333 [-]
	 SCS Opposite-Spin Scale   =       1.2000000000000000 [-]
	 SCS Same-Spin Energy      =      -0.1859300403023637 [Eh]
	 SCS Opposite-Spin Energy  =      -2.0906011806576292 [Eh]
	 SCS Correlation Energy    =      -2.2765312209599928 [Eh]
	 SCS Total Energy          =    -516.8385428361882532 [Eh]
	-----------------------------------------------------------

  Dipole Moment: [D]
     X:    -2.7656      Y:     2.1178      Z:     0.0008     Total:     3.4833

*** Psi4 exiting successfully. Buy a developer a beer!
