                               Psi4 1.3.2 release

  ==> Input File <==

--------------------------------------------------------------------------
#psi4
#
memory 32 gb

molecule  {
0 1
  O        3.0005300    -1.5493530     0.0754490
  N        0.8317470    -1.1153310    -0.4215630
  C        0.1960040     1.9504030    -0.2395030
  C        1.6857700     1.6448450    -0.3508570
  C       -0.7196350     0.7952916    -0.1078444
  C        2.1481850     0.6250380     0.6971500
  C       -0.4596220    -0.5879500    -0.1790540
  C        2.0510250    -0.7686880     0.1361100
  C       -2.1103850     1.1321340     0.1249900
  C       -1.4919760    -1.5397800    -0.0852490
  C       -3.1313420     0.1920050     0.2149350
  C       -2.8150140    -1.1632860     0.1069400
  H       -0.1141940     2.5504580    -1.1051150
  H        0.0480080     2.5950730     0.6372840
  H        1.9308140     1.2745600    -1.3520490
  H        2.2359360     2.5841340    -0.2253410
  H        1.5370720     0.7103830     1.6057590
  H        3.1934550     0.7649280     0.9813470
  H        0.8461440    -2.0798130    -0.7458600
  H       -2.3558010     2.1909910     0.2008090
  H       -1.2325710    -2.5958500    -0.1409630
  H       -4.1571650     0.5114050     0.3790120
  H       -3.5892060    -1.9233590     0.1747080
units angstrom
no_reorient  #important for SAPT in psi4, default
symmetry c1  #important for SAPT in psi4, default
}

set PROPERTIES_ORIGIN ["COM"]
properties('MP2/aug-cc-pvtz', properties = ['dipole'])
--------------------------------------------------------------------------

    Molecular point group: c1
  Charge       = 0
  Multiplicity = 1
  Basis Set: AUG-CC-PVTZ
    Blend: AUG-CC-PVTZ
  Basis Set: (AUG-CC-PVTZ AUX)
    Blend: AUG-CC-PVTZ-JKFIT

    Orbital Energies [Eh]
    ---------------------

    Doubly Occupied:

       1A    -20.524991     2A    -15.594306     3A    -11.356449
       4A    -11.297617     5A    -11.257697     6A    -11.249459
       7A    -11.247348     8A    -11.245023     9A    -11.244191
      10A    -11.242826    11A    -11.242022    12A    -11.240149
      13A     -1.379473    14A     -1.252632    15A     -1.148173
      16A     -1.105008    17A     -1.039785    18A     -1.014149
      19A     -0.957102    20A     -0.882527    21A     -0.842453
      22A     -0.808069    23A     -0.763548    24A     -0.720368
      25A     -0.681881    26A     -0.672820    27A     -0.647728
      28A     -0.627996    29A     -0.612792    30A     -0.602342
      31A     -0.600155    32A     -0.580772    33A     -0.563945
      34A     -0.541244    35A     -0.516560    36A     -0.511691
      37A     -0.496354    38A     -0.494774    39A     -0.483738
      40A     -0.434746    41A     -0.425336    42A     -0.335879
      43A     -0.316524

  @DF-RHF Final Energy:  -514.59035243231403

   => Energetics <=

    Nuclear Repulsion Energy =            675.1191499828667020
    One-Electron Energy =               -2037.8137174439812043
    Two-Electron Energy =                 848.1042150288004677
    Total Energy =                       -514.5903524323140346
  Basis Set: (AUG-CC-PVTZ AUX)
    Blend: AUG-CC-PVTZ-RI
    Molecular point group: c1

    Geometry (in Angstrom), charge = 0, multiplicity = 1:

       Center              X                  Y                   Z               Mass
    ------------   -----------------  -----------------  -----------------  -----------------
         O            2.986836045121    -1.509589545802     0.078380204360    15.994914619570
         N            0.818053045121    -1.075567545802    -0.418631795640    14.003074004430
         C            0.182310045121     1.990166454198    -0.236571795640    12.000000000000
         C            1.672076045121     1.684608454198    -0.347925795640    12.000000000000
         C           -0.733328954879     0.835055054198    -0.104913195640    12.000000000000
         C            2.134491045121     0.664801454198     0.700081204360    12.000000000000
         C           -0.473315954879    -0.548186545802    -0.176122795640    12.000000000000
         C            2.037331045121    -0.728924545802     0.139041204360    12.000000000000
         C           -2.124078954879     1.171897454198     0.127921204360    12.000000000000
         C           -1.505669954879    -1.500016545802    -0.082317795640    12.000000000000
         C           -3.145035954879     0.231768454198     0.217866204360    12.000000000000
         C           -2.828707954879    -1.123522545802     0.109871204360    12.000000000000
         H           -0.127887954879     2.590221454198    -1.102183795640     1.007825032230
         H            0.034314045121     2.634836454198     0.640215204360     1.007825032230
         H            1.917120045121     1.314323454198    -1.349117795640     1.007825032230
         H            2.222242045121     2.623897454198    -0.222409795640     1.007825032230
         H            1.523378045121     0.750146454198     1.608690204360     1.007825032230
         H            3.179761045121     0.804691454198     0.984278204360     1.007825032230
         H            0.832450045121    -2.040049545802    -0.742928795640     1.007825032230
         H           -2.369494954879     2.230754454198     0.203740204360     1.007825032230
         H           -1.246264954879    -2.556086545802    -0.138031795640     1.007825032230
         H           -4.170858954879     0.551168454198     0.381943204360     1.007825032230
         H           -3.602899954879    -1.883595545802     0.177639204360     1.007825032230

  Basis Set: AUG-CC-PVTZ
    Blend: AUG-CC-PVTZ
  Basis Set: (AUG-CC-PVTZ AUX)
    Blend: AUG-CC-PVTZ-JKFIT
	 Reference Energy          =    -514.5903524323140346 [Eh]
	 Singles Energy            =      -0.0000000000000000 [Eh]
	 Same-Spin Energy          =      -0.5582844371276892 [Eh]
	 Opposite-Spin Energy      =      -1.7439180549067723 [Eh]
	 Correlation Energy        =      -2.3022024920344615 [Eh]
	 Total Energy              =    -516.8925549243484738 [Eh]

	 ================> DF-SCS-MP2 Energies <==================
	-----------------------------------------------------------
	 SCS Same-Spin Scale       =       0.3333333333333333 [-]
	 SCS Opposite-Spin Scale   =       1.2000000000000000 [-]
	 SCS Same-Spin Energy      =      -0.1860948123758964 [Eh]
	 SCS Opposite-Spin Energy  =      -2.0927016658881268 [Eh]
	 SCS Correlation Energy    =      -2.2787964782640233 [Eh]
	 SCS Total Energy          =    -516.8691489105780192 [Eh]
	-----------------------------------------------------------

  Dipole Moment: [D]
     X:    -2.7566      Y:     2.0948      Z:     0.0305     Total:     3.4624

*** Psi4 exiting successfully. Buy a developer a beer!
