                               Psi4 1.3.2 release

  ==> Input File <==

--------------------------------------------------------------------------
#psi4
#
memory 32 gb

molecule  {
0 1
  O        3.0005300    -1.5493530     0.0754490
  N        0.8317470    -1.1153310    -0.4215630
  C        0.1960040     1.9504030    -0.2395030
  C        1.6765138     1.6044362    -0.3847271
  C       -0.7674710     0.7851500    -0.1025020
  C        2.1481850     0.6250380     0.6971500
  C       -0.4596220    -0.5879500    -0.1790540
  C        2.0510250    -0.7686880     0.1361100
  C       -2.1103850     1.1321340     0.1249900
  C       -1.4919760    -1.5397800    -0.0852490
  C       -3.1313420     0.1920050     0.2149350
  C       -2.8150140    -1.1632860     0.1069400
  H       -0.1141940     2.5504580    -1.1051150
  H        0.0480080     2.5950730     0.6372840
  H        1.9308140     1.2745600    -1.3520490
  H        2.2359360     2.5841340    -0.2253410
  H        1.5370720     0.7103830     1.6057590
  H        3.1934550     0.7649280     0.9813470
  H        0.8461440    -2.0798130    -0.7458600
  H       -2.3558010     2.1909910     0.2008090
  H       -1.2325710    -2.5958500    -0.1409630
  H       -4.1571650     0.5114050     0.3790120
  H       -3.5892060    -1.9233590     0.1747080
units angstrom
no_reorient  #important for SAPT in psi4, default
symmetry c1  #important for SAPT in psi4, default
}

set PROPERTIES_ORIGIN ["COM"]
properties('MP2/aug-cc-pvtz', properties = ['dipole'])
--------------------------------------------------------------------------

    Molecular point group: c1
  Charge       = 0
  Multiplicity = 1
  Basis Set: AUG-CC-PVTZ
    Blend: AUG-CC-PVTZ
  Basis Set: (AUG-CC-PVTZ AUX)
    Blend: AUG-CC-PVTZ-JKFIT

    Orbital Energies [Eh]
    ---------------------

    Doubly Occupied:

       1A    -20.525116     2A    -15.595933     3A    -11.356233
       4A    -11.297193     5A    -11.254393     6A    -11.246345
       7A    -11.245659     8A    -11.244735     9A    -11.244374
      10A    -11.243256    11A    -11.242553    12A    -11.239695
      13A     -1.379791    14A     -1.253049    15A     -1.151363
      16A     -1.102182    17A     -1.039139    18A     -1.015915
      19A     -0.956765    20A     -0.879688    21A     -0.842668
      22A     -0.810984    23A     -0.764782    24A     -0.722610
      25A     -0.683240    26A     -0.670551    27A     -0.643473
      28A     -0.629352    29A     -0.610960    30A     -0.604545
      31A     -0.599104    32A     -0.577984    33A     -0.564614
      34A     -0.539456    35A     -0.520649    36A     -0.515315
      37A     -0.502184    38A     -0.493435    39A     -0.474980
      40A     -0.435238    41A     -0.424336    42A     -0.340425
      43A     -0.315881

  @DF-RHF Final Energy:  -514.59103314035713

   => Energetics <=

    Nuclear Repulsion Energy =            675.4951338019359355
    One-Electron Energy =               -2038.5720509315563049
    Two-Electron Energy =                 848.4858839892632432
    Total Energy =                       -514.5910331403571263
  Basis Set: (AUG-CC-PVTZ AUX)
    Blend: AUG-CC-PVTZ-RI
    Molecular point group: c1

    Geometry (in Angstrom), charge = 0, multiplicity = 1:

       Center              X                  Y                   Z               Mass
    ------------   -----------------  -----------------  -----------------  -----------------
         O            2.991089143677    -1.505823780368     0.080505382925    15.994914619570
         N            0.822306143677    -1.071801780368    -0.416506617075    14.003074004430
         C            0.186563143677     1.993932219632    -0.234446617075    12.000000000000
         C            1.667072943677     1.647965419632    -0.379670717075    12.000000000000
         C           -0.776911856323     0.828679219632    -0.097445617075    12.000000000000
         C            2.138744143677     0.668567219632     0.702206382925    12.000000000000
         C           -0.469062856323    -0.544420780368    -0.173997617075    12.000000000000
         C            2.041584143677    -0.725158780368     0.141166382925    12.000000000000
         C           -2.119825856323     1.175663219632     0.130046382925    12.000000000000
         C           -1.501416856323    -1.496250780368    -0.080192617075    12.000000000000
         C           -3.140782856323     0.235534219632     0.219991382925    12.000000000000
         C           -2.824454856323    -1.119756780368     0.111996382925    12.000000000000
         H           -0.123634856323     2.593987219632    -1.100058617075     1.007825032230
         H            0.038567143677     2.638602219632     0.642340382925     1.007825032230
         H            1.921373143677     1.318089219632    -1.346992617075     1.007825032230
         H            2.226495143677     2.627663219632    -0.220284617075     1.007825032230
         H            1.527631143677     0.753912219632     1.610815382925     1.007825032230
         H            3.184014143677     0.808457219632     0.986403382925     1.007825032230
         H            0.836703143677    -2.036283780368    -0.740803617075     1.007825032230
         H           -2.365241856323     2.234520219632     0.205865382925     1.007825032230
         H           -1.242011856323    -2.552320780368    -0.135906617075     1.007825032230
         H           -4.166605856323     0.554934219632     0.384068382925     1.007825032230
         H           -3.598646856323    -1.879829780368     0.179764382925     1.007825032230

  Basis Set: AUG-CC-PVTZ
    Blend: AUG-CC-PVTZ
  Basis Set: (AUG-CC-PVTZ AUX)
    Blend: AUG-CC-PVTZ-JKFIT
	 Reference Energy          =    -514.5910331403571263 [Eh]
	 Singles Energy            =      -0.0000000000000000 [Eh]
	 Same-Spin Energy          =      -0.5579801450830844 [Eh]
	 Opposite-Spin Energy      =      -1.7432180469301892 [Eh]
	 Correlation Energy        =      -2.3011981920132736 [Eh]
	 Total Energy              =    -516.8922313323704429 [Eh]

	 ================> DF-SCS-MP2 Energies <==================
	-----------------------------------------------------------
	 SCS Same-Spin Scale       =       0.3333333333333333 [-]
	 SCS Opposite-Spin Scale   =       1.2000000000000000 [-]
	 SCS Same-Spin Energy      =      -0.1859933816943614 [Eh]
	 SCS Opposite-Spin Energy  =      -2.0918616563162269 [Eh]
	 SCS Correlation Energy    =      -2.2778550380105882 [Eh]
	 SCS Total Energy          =    -516.8688881783676834 [Eh]
	-----------------------------------------------------------

  Dipole Moment: [D]
     X:    -2.7391      Y:     2.0526      Z:     0.0273     Total:     3.4230

*** Psi4 exiting successfully. Buy a developer a beer!
