                               Psi4 1.3.2 release

  ==> Input File <==

--------------------------------------------------------------------------
#psi4
#
memory 32 gb

molecule  {
0 1
  O        3.0005300    -1.5493530     0.0754490
  N        0.8317470    -1.1153310    -0.4215630
  C        0.2158750     1.9332485    -0.2431020
  C        1.6857700     1.6448450    -0.3508570
  C       -0.7674710     0.7851500    -0.1025020
  C        2.1481850     0.6250380     0.6971500
  C       -0.4596220    -0.5879500    -0.1790540
  C        2.0510250    -0.7686880     0.1361100
  C       -2.1103850     1.1321340     0.1249900
  C       -1.4919760    -1.5397800    -0.0852490
  C       -3.1313420     0.1920050     0.2149350
  C       -2.8150140    -1.1632860     0.1069400
  H       -0.1141940     2.5504580    -1.1051150
  H        0.0480080     2.5950730     0.6372840
  H        1.9308140     1.2745600    -1.3520490
  H        2.2359360     2.5841340    -0.2253410
  H        1.5370720     0.7103830     1.6057590
  H        3.1934550     0.7649280     0.9813470
  H        0.8461440    -2.0798130    -0.7458600
  H       -2.3558010     2.1909910     0.2008090
  H       -1.2325710    -2.5958500    -0.1409630
  H       -4.1571650     0.5114050     0.3790120
  H       -3.5892060    -1.9233590     0.1747080
units angstrom
no_reorient  #important for SAPT in psi4, default
symmetry c1  #important for SAPT in psi4, default
}

set PROPERTIES_ORIGIN ["COM"]
properties('MP2/aug-cc-pvtz', properties = ['dipole'])
--------------------------------------------------------------------------

    Molecular point group: c1
  Charge       = 0
  Multiplicity = 1
  Basis Set: AUG-CC-PVTZ
    Blend: AUG-CC-PVTZ
  Basis Set: (AUG-CC-PVTZ AUX)
    Blend: AUG-CC-PVTZ-JKFIT

    Orbital Energies [Eh]
    ---------------------

    Doubly Occupied:

       1A    -20.525764     2A    -15.596253     3A    -11.357143
       4A    -11.296829     5A    -11.255709     6A    -11.246419
       7A    -11.246393     8A    -11.245416     9A    -11.244377
      10A    -11.242938    11A    -11.241673    12A    -11.240121
      13A     -1.380210    14A     -1.253202    15A     -1.151578
      16A     -1.104511    17A     -1.038821    18A     -1.016403
      19A     -0.958059    20A     -0.880659    21A     -0.843054
      22A     -0.807830    23A     -0.765695    24A     -0.721790
      25A     -0.682153    26A     -0.670994    27A     -0.646733
      28A     -0.629066    29A     -0.611791    30A     -0.602940
      31A     -0.600637    32A     -0.578699    33A     -0.564161
      34A     -0.542442    35A     -0.518013    36A     -0.510797
      37A     -0.499709    38A     -0.490106    39A     -0.483343
      40A     -0.435386    41A     -0.426075    42A     -0.340165
      43A     -0.315804

  @DF-RHF Final Energy:  -514.59329142067736

   => Energetics <=

    Nuclear Repulsion Energy =            675.3889252046516276
    One-Electron Energy =               -2038.3447177286452643
    Two-Electron Energy =                 848.3625011033163901
    Total Energy =                       -514.5932914206773603
  Basis Set: (AUG-CC-PVTZ AUX)
    Blend: AUG-CC-PVTZ-RI
    Molecular point group: c1

    Geometry (in Angstrom), charge = 0, multiplicity = 1:

       Center              X                  Y                   Z               Mass
    ------------   -----------------  -----------------  -----------------  -----------------
         O            2.988919305201    -1.507556115604     0.078250329315    15.994914619570
         N            0.820136305201    -1.073534115604    -0.418761670685    14.003074004430
         C            0.204264305201     1.975045384396    -0.240300670685    12.000000000000
         C            1.674159305201     1.686641884396    -0.348055670685    12.000000000000
         C           -0.779081694799     0.826946884396    -0.099700670685    12.000000000000
         C            2.136574305201     0.666834884396     0.699951329315    12.000000000000
         C           -0.471232694799    -0.546153115604    -0.176252670685    12.000000000000
         C            2.039414305201    -0.726891115604     0.138911329315    12.000000000000
         C           -2.121995694799     1.173930884396     0.127791329315    12.000000000000
         C           -1.503586694799    -1.497983115604    -0.082447670685    12.000000000000
         C           -3.142952694799     0.233801884396     0.217736329315    12.000000000000
         C           -2.826624694799    -1.121489115604     0.109741329315    12.000000000000
         H           -0.125804694799     2.592254884396    -1.102313670685     1.007825032230
         H            0.036397305201     2.636869884396     0.640085329315     1.007825032230
         H            1.919203305201     1.316356884396    -1.349247670685     1.007825032230
         H            2.224325305201     2.625930884396    -0.222539670685     1.007825032230
         H            1.525461305201     0.752179884396     1.608560329315     1.007825032230
         H            3.181844305201     0.806724884396     0.984148329315     1.007825032230
         H            0.834533305201    -2.038016115604    -0.743058670685     1.007825032230
         H           -2.367411694799     2.232787884396     0.203610329315     1.007825032230
         H           -1.244181694799    -2.554053115604    -0.138161670685     1.007825032230
         H           -4.168775694799     0.553201884396     0.381813329315     1.007825032230
         H           -3.600816694799    -1.881562115604     0.177509329315     1.007825032230

  Basis Set: AUG-CC-PVTZ
    Blend: AUG-CC-PVTZ
  Basis Set: (AUG-CC-PVTZ AUX)
    Blend: AUG-CC-PVTZ-JKFIT
	 Reference Energy          =    -514.5932914206773603 [Eh]
	 Singles Energy            =      -0.0000000000000000 [Eh]
	 Same-Spin Energy          =      -0.5580875249900138 [Eh]
	 Opposite-Spin Energy      =      -1.7432813665937061 [Eh]
	 Correlation Energy        =      -2.3013688915837198 [Eh]
	 Total Energy              =    -516.8946603122610668 [Eh]

	 ================> DF-SCS-MP2 Energies <==================
	-----------------------------------------------------------
	 SCS Same-Spin Scale       =       0.3333333333333333 [-]
	 SCS Opposite-Spin Scale   =       1.2000000000000000 [-]
	 SCS Same-Spin Energy      =      -0.1860291749966713 [Eh]
	 SCS Opposite-Spin Energy  =      -2.0919376399124472 [Eh]
	 SCS Correlation Energy    =      -2.2779668149091186 [Eh]
	 SCS Total Energy          =    -516.8712582355864242 [Eh]
	-----------------------------------------------------------

  Dipole Moment: [D]
     X:    -2.7246      Y:     2.0586      Z:     0.0310     Total:     3.4150

*** Psi4 exiting successfully. Buy a developer a beer!
