                               Psi4 1.3.2 release

  ==> Input File <==

--------------------------------------------------------------------------
#psi4
#
memory 32 gb

molecule  {
0 1
  O        3.0005300    -1.5493530     0.0754490
  N        0.8317470    -1.1153310    -0.4215630
  C        0.1960040     1.9504030    -0.2395030
  C        1.6857700     1.6448450    -0.3508570
  C       -0.7674710     0.7851500    -0.1025020
  C        2.1481850     0.6250380     0.6971500
  C       -0.4596220    -0.5879500    -0.1790540
  C        2.0816162    -0.8582654     0.1165295
  C       -2.1103850     1.1321340     0.1249900
  C       -1.4919760    -1.5397800    -0.0852490
  C       -3.1313420     0.1920050     0.2149350
  C       -2.8150140    -1.1632860     0.1069400
  H       -0.1141940     2.5504580    -1.1051150
  H        0.0480080     2.5950730     0.6372840
  H        1.9308140     1.2745600    -1.3520490
  H        2.2359360     2.5841340    -0.2253410
  H        1.5370720     0.7103830     1.6057590
  H        3.1934550     0.7649280     0.9813470
  H        0.8461440    -2.0798130    -0.7458600
  H       -2.3558010     2.1909910     0.2008090
  H       -1.2325710    -2.5958500    -0.1409630
  H       -4.1571650     0.5114050     0.3790120
  H       -3.5892060    -1.9233590     0.1747080
units angstrom
no_reorient  #important for SAPT in psi4, default
symmetry c1  #important for SAPT in psi4, default
}

set PROPERTIES_ORIGIN ["COM"]
properties('MP2/aug-cc-pvtz', properties = ['dipole'])
--------------------------------------------------------------------------

    Molecular point group: c1
  Charge       = 0
  Multiplicity = 1
  Basis Set: AUG-CC-PVTZ
    Blend: AUG-CC-PVTZ
  Basis Set: (AUG-CC-PVTZ AUX)
    Blend: AUG-CC-PVTZ-JKFIT

    Orbital Energies [Eh]
    ---------------------

    Doubly Occupied:

       1A    -20.536945     2A    -15.590996     3A    -11.351398
       4A    -11.297244     5A    -11.253324     6A    -11.244976
       7A    -11.243296     8A    -11.243121     9A    -11.241221
      10A    -11.238512    11A    -11.236529    12A    -11.235933
      13A     -1.434987    14A     -1.256719    15A     -1.150832
      16A     -1.092853    17A     -1.030153    18A     -1.015667
      19A     -0.945177    20A     -0.874963    21A     -0.841707
      22A     -0.804113    23A     -0.759639    24A     -0.720749
      25A     -0.684094    26A     -0.670726    27A     -0.649286
      28A     -0.635749    29A     -0.612372    30A     -0.606875
      31A     -0.598262    32A     -0.580176    33A     -0.571146
      34A     -0.540407    35A     -0.517575    36A     -0.516223
      37A     -0.498663    38A     -0.486431    39A     -0.481457
      40A     -0.443113    41A     -0.414640    42A     -0.338721
      43A     -0.315386

  @DF-RHF Final Energy:  -514.58653489373364

   => Energetics <=

    Nuclear Repulsion Energy =            674.8794117475849816
    One-Electron Energy =               -2037.3271803942784572
    Two-Electron Energy =                 847.8612337529598335
    Total Energy =                       -514.5865348937336421
  Basis Set: (AUG-CC-PVTZ AUX)
    Blend: AUG-CC-PVTZ-RI
    Molecular point group: c1

    Geometry (in Angstrom), charge = 0, multiplicity = 1:

       Center              X                  Y                   Z               Mass
    ------------   -----------------  -----------------  -----------------  -----------------
         O            2.988120701063    -1.502160952492     0.079440875389    15.994914619570
         N            0.819337701063    -1.068138952492    -0.417571124611    14.003074004430
         C            0.183594701063     1.997595047508    -0.235511124611    12.000000000000
         C            1.673360701063     1.692037047508    -0.346865124611    12.000000000000
         C           -0.779880298937     0.832342047508    -0.098510124611    12.000000000000
         C            2.135775701063     0.672230047508     0.701141875389    12.000000000000
         C           -0.472031298937    -0.540757952492    -0.175062124611    12.000000000000
         C            2.069206901063    -0.811073352492     0.120521375389    12.000000000000
         C           -2.122794298937     1.179326047508     0.128981875389    12.000000000000
         C           -1.504385298937    -1.492587952492    -0.081257124611    12.000000000000
         C           -3.143751298937     0.239197047508     0.218926875389    12.000000000000
         C           -2.827423298937    -1.116093952492     0.110931875389    12.000000000000
         H           -0.126603298937     2.597650047508    -1.101123124611     1.007825032230
         H            0.035598701063     2.642265047508     0.641275875389     1.007825032230
         H            1.918404701063     1.321752047508    -1.348057124611     1.007825032230
         H            2.223526701063     2.631326047508    -0.221349124611     1.007825032230
         H            1.524662701063     0.757575047508     1.609750875389     1.007825032230
         H            3.181045701063     0.812120047508     0.985338875389     1.007825032230
         H            0.833734701063    -2.032620952492    -0.741868124611     1.007825032230
         H           -2.368210298937     2.238183047508     0.204800875389     1.007825032230
         H           -1.244980298937    -2.548657952492    -0.136971124611     1.007825032230
         H           -4.169574298937     0.558597047508     0.383003875389     1.007825032230
         H           -3.601615298937    -1.876166952492     0.178699875389     1.007825032230

  Basis Set: AUG-CC-PVTZ
    Blend: AUG-CC-PVTZ
  Basis Set: (AUG-CC-PVTZ AUX)
    Blend: AUG-CC-PVTZ-JKFIT
	 Reference Energy          =    -514.5865348937336421 [Eh]
	 Singles Energy            =      -0.0000000000000000 [Eh]
	 Same-Spin Energy          =      -0.5560815487087181 [Eh]
	 Opposite-Spin Energy      =      -1.7396716710611702 [Eh]
	 Correlation Energy        =      -2.2957532197698880 [Eh]
	 Total Energy              =    -516.8822881135034777 [Eh]

	 ================> DF-SCS-MP2 Energies <==================
	-----------------------------------------------------------
	 SCS Same-Spin Scale       =       0.3333333333333333 [-]
	 SCS Opposite-Spin Scale   =       1.2000000000000000 [-]
	 SCS Same-Spin Energy      =      -0.1853605162362393 [Eh]
	 SCS Opposite-Spin Energy  =      -2.0876060052734040 [Eh]
	 SCS Correlation Energy    =      -2.2729665215096433 [Eh]
	 SCS Total Energy          =    -516.8595014152432441 [Eh]
	-----------------------------------------------------------

  Dipole Moment: [D]
     X:    -2.4083      Y:     1.5732      Z:    -0.0252     Total:     2.8767

*** Psi4 exiting successfully. Buy a developer a beer!
