                               Psi4 1.3.2 release

  ==> Input File <==

--------------------------------------------------------------------------
#psi4
#
memory 32 gb

molecule  {
0 1
  O        2.9876395    -1.5640435     0.0665379
  N        0.8317470    -1.1153310    -0.4215630
  C        0.1960040     1.9504030    -0.2395030
  C        1.6857700     1.6448450    -0.3508570
  C       -0.7674710     0.7851500    -0.1025020
  C        2.1481850     0.6250380     0.6971500
  C       -0.4596220    -0.5879500    -0.1790540
  C        2.0510250    -0.7686880     0.1361100
  C       -2.1103850     1.1321340     0.1249900
  C       -1.4919760    -1.5397800    -0.0852490
  C       -3.1313420     0.1920050     0.2149350
  C       -2.8150140    -1.1632860     0.1069400
  H       -0.1141940     2.5504580    -1.1051150
  H        0.0480080     2.5950730     0.6372840
  H        1.9308140     1.2745600    -1.3520490
  H        2.2359360     2.5841340    -0.2253410
  H        1.5370720     0.7103830     1.6057590
  H        3.1934550     0.7649280     0.9813470
  H        0.8461440    -2.0798130    -0.7458600
  H       -2.3558010     2.1909910     0.2008090
  H       -1.2325710    -2.5958500    -0.1409630
  H       -4.1571650     0.5114050     0.3790120
  H       -3.5892060    -1.9233590     0.1747080
units angstrom
no_reorient  #important for SAPT in psi4, default
symmetry c1  #important for SAPT in psi4, default
}

set PROPERTIES_ORIGIN ["COM"]
properties('MP2/aug-cc-pvtz', properties = ['dipole'])
--------------------------------------------------------------------------

    Molecular point group: c1
  Charge       = 0
  Multiplicity = 1
  Basis Set: AUG-CC-PVTZ
    Blend: AUG-CC-PVTZ
  Basis Set: (AUG-CC-PVTZ AUX)
    Blend: AUG-CC-PVTZ-JKFIT

    Orbital Energies [Eh]
    ---------------------

    Doubly Occupied:

       1A    -20.525480     2A    -15.595066     3A    -11.357071
       4A    -11.296842     5A    -11.254937     6A    -11.246245
       7A    -11.245109     8A    -11.244861     9A    -11.244110
      10A    -11.243952    11A    -11.242719    12A    -11.239589
      13A     -1.380468    14A     -1.251967    15A     -1.151136
      16A     -1.102191    17A     -1.039102    18A     -1.015747
      19A     -0.957470    20A     -0.880406    21A     -0.842530
      22A     -0.808763    23A     -0.765528    24A     -0.721535
      25A     -0.681700    26A     -0.670748    27A     -0.646114
      28A     -0.628850    29A     -0.611342    30A     -0.603079
      31A     -0.600996    32A     -0.579027    33A     -0.564409
      34A     -0.542218    35A     -0.517483    36A     -0.511031
      37A     -0.498249    38A     -0.492018    39A     -0.483007
      40A     -0.434765    41A     -0.426532    42A     -0.340369
      43A     -0.315520

  @DF-RHF Final Energy:  -514.59428650798600

   => Energetics <=

    Nuclear Repulsion Energy =            675.1170389169508326
    One-Electron Energy =               -2037.8220899592613478
    Two-Electron Energy =                 848.1107645343245167
    Total Energy =                       -514.5942865079859985
  Basis Set: (AUG-CC-PVTZ AUX)
    Blend: AUG-CC-PVTZ-RI
    Molecular point group: c1

    Geometry (in Angstrom), charge = 0, multiplicity = 1:

       Center              X                  Y                   Z               Mass
    ------------   -----------------  -----------------  -----------------  -----------------
         O            2.978789068605    -1.522065844816     0.069955952542    15.994914619570
         N            0.822896568605    -1.073353344816    -0.418144947458    14.003074004430
         C            0.187153568605     1.992380655184    -0.236084947458    12.000000000000
         C            1.676919568605     1.686822655184    -0.347438947458    12.000000000000
         C           -0.776321431395     0.827127655184    -0.099083947458    12.000000000000
         C            2.139334568605     0.667015655184     0.700568052542    12.000000000000
         C           -0.468472431395    -0.545972344816    -0.175635947458    12.000000000000
         C            2.042174568605    -0.726710344816     0.139528052542    12.000000000000
         C           -2.119235431395     1.174111655184     0.128408052542    12.000000000000
         C           -1.500826431395    -1.497802344816    -0.081830947458    12.000000000000
         C           -3.140192431395     0.233982655184     0.218353052542    12.000000000000
         C           -2.823864431395    -1.121308344816     0.110358052542    12.000000000000
         H           -0.123044431395     2.592435655184    -1.101696947458     1.007825032230
         H            0.039157568605     2.637050655184     0.640702052542     1.007825032230
         H            1.921963568605     1.316537655184    -1.348630947458     1.007825032230
         H            2.227085568605     2.626111655184    -0.221922947458     1.007825032230
         H            1.528221568605     0.752360655184     1.609177052542     1.007825032230
         H            3.184604568605     0.806905655184     0.984765052542     1.007825032230
         H            0.837293568605    -2.037835344816    -0.742441947458     1.007825032230
         H           -2.364651431395     2.232968655184     0.204227052542     1.007825032230
         H           -1.241421431395    -2.553872344816    -0.137544947458     1.007825032230
         H           -4.166015431395     0.553382655184     0.382430052542     1.007825032230
         H           -3.598056431395    -1.881381344816     0.178126052542     1.007825032230

  Basis Set: AUG-CC-PVTZ
    Blend: AUG-CC-PVTZ
  Basis Set: (AUG-CC-PVTZ AUX)
    Blend: AUG-CC-PVTZ-JKFIT
	 Reference Energy          =    -514.5942865079859985 [Eh]
	 Singles Energy            =      -0.0000000000000000 [Eh]
	 Same-Spin Energy          =      -0.5578826279407441 [Eh]
	 Opposite-Spin Energy      =      -1.7430307402468044 [Eh]
	 Correlation Energy        =      -2.3009133681875484 [Eh]
	 Total Energy              =    -516.8951998761735922 [Eh]

	 ================> DF-SCS-MP2 Energies <==================
	-----------------------------------------------------------
	 SCS Same-Spin Scale       =       0.3333333333333333 [-]
	 SCS Opposite-Spin Scale   =       1.2000000000000000 [-]
	 SCS Same-Spin Energy      =      -0.1859608759802480 [Eh]
	 SCS Opposite-Spin Energy  =      -2.0916368882961653 [Eh]
	 SCS Correlation Energy    =      -2.2775977642764134 [Eh]
	 SCS Total Energy          =    -516.8718842722623776 [Eh]
	-----------------------------------------------------------

  Dipole Moment: [D]
     X:    -2.6973      Y:     2.1004      Z:     0.0552     Total:     3.4190

*** Psi4 exiting successfully. Buy a developer a beer!
