                               Psi4 1.4a3.dev225

  ==> Input File <==

--------------------------------------------------------------------------
#psi4
#
memory 32 gb

molecule  {
0 1
  O        3.0005300    -1.5493530     0.0754490
  N        0.8317470    -1.1153310    -0.4215630
  C        0.1960040     1.9504030    -0.2395030
  C        1.6857700     1.6448450    -0.3508570
  C       -0.7674710     0.7851500    -0.1025020
  C        2.1481850     0.6250380     0.6971500
  C       -0.4596220    -0.5879500    -0.1790540
  C        2.0510250    -0.7686880     0.1361100
  C       -2.1103850     1.1321340     0.1249900
  C       -1.4919760    -1.5397800    -0.0852490
  C       -3.1313420     0.1920050     0.2149350
  C       -2.8150140    -1.1632860     0.1069400
  H       -0.1085437     2.5395279    -1.0893477
  H        0.0480080     2.5950730     0.6372840
  H        1.9308140     1.2745600    -1.3520490
  H        2.2359360     2.5841340    -0.2253410
  H        1.5370720     0.7103830     1.6057590
  H        3.1934550     0.7649280     0.9813470
  H        0.8461440    -2.0798130    -0.7458600
  H       -2.3558010     2.1909910     0.2008090
  H       -1.2325710    -2.5958500    -0.1409630
  H       -4.1571650     0.5114050     0.3790120
  H       -3.5892060    -1.9233590     0.1747080
units angstrom
no_reorient  #important for SAPT in psi4, default
symmetry c1  #important for SAPT in psi4, default
}

set PROPERTIES_ORIGIN ["COM"]
properties('MP2/aug-cc-pvtz', properties = ['dipole'])
--------------------------------------------------------------------------

    Molecular point group: c1
  Charge       = 0
  Multiplicity = 1
  Basis Set: AUG-CC-PVTZ
    Blend: AUG-CC-PVTZ
  Basis Set: (AUG-CC-PVTZ AUX)
    Blend: AUG-CC-PVTZ-JKFIT

    Orbital Energies [Eh]
    ---------------------

    Doubly Occupied:

       1A    -20.525560     2A    -15.596054     3A    -11.356892
       4A    -11.297224     5A    -11.255087     6A    -11.246424
       7A    -11.245005     8A    -11.244412     9A    -11.242843
      10A    -11.242561    11A    -11.241906    12A    -11.239837
      13A     -1.379996    14A     -1.252946    15A     -1.151537
      16A     -1.102116    17A     -1.038990    18A     -1.016090
      19A     -0.957955    20A     -0.880584    21A     -0.842797
      22A     -0.809282    23A     -0.765832    24A     -0.721750
      25A     -0.681967    26A     -0.671194    27A     -0.646122
      28A     -0.628951    29A     -0.612920    30A     -0.603259
      31A     -0.600960    32A     -0.578793    33A     -0.564737
      34A     -0.542043    35A     -0.517737    36A     -0.510727
      37A     -0.498155    38A     -0.492921    39A     -0.482675
      40A     -0.435275    41A     -0.425862    42A     -0.340652
      43A     -0.315976

  @DF-RHF Final Energy:  -514.59446311409283

   => Energetics <=

    Nuclear Repulsion Energy =            675.1713071750421022
    One-Electron Energy =               -2037.9223287110125966
    Two-Electron Energy =                 848.1565584218776621
    Total Energy =                       -514.5944631140928323
  Basis Set: (AUG-CC-PVTZ AUX)
    Blend: AUG-CC-PVTZ-RI
    Molecular point group: c1

    Geometry (in Angstrom), charge = 0, multiplicity = 1:

       Center              X                  Y                   Z               Mass
    ------------   -----------------  -----------------  -----------------  -----------------
         O            2.990364249415    -1.508765660278     0.077883572492    15.994914619570
         N            0.821581249415    -1.074743660278    -0.419128427508    14.003074004430
         C            0.185838249415     1.990990339722    -0.237068427508    12.000000000000
         C            1.675604249415     1.685432339722    -0.348422427508    12.000000000000
         C           -0.777636750585     0.825737339722    -0.100067427508    12.000000000000
         C            2.138019249415     0.665625339722     0.699584572492    12.000000000000
         C           -0.469787750585    -0.547362660278    -0.176619427508    12.000000000000
         C            2.040859249415    -0.728100660278     0.138544572492    12.000000000000
         C           -2.120550750585     1.172721339722     0.127424572492    12.000000000000
         C           -1.502141750585    -1.499192660278    -0.082814427508    12.000000000000
         C           -3.141507750585     0.232592339722     0.217369572492    12.000000000000
         C           -2.825179750585    -1.122698660278     0.109374572492    12.000000000000
         H           -0.118709450585     2.580115239722    -1.086913127508     1.007825032230
         H            0.037842249415     2.635660339722     0.639718572492     1.007825032230
         H            1.920648249415     1.315147339722    -1.349614427508     1.007825032230
         H            2.225770249415     2.624721339722    -0.222906427508     1.007825032230
         H            1.526906249415     0.750970339722     1.608193572492     1.007825032230
         H            3.183289249415     0.805515339722     0.983781572492     1.007825032230
         H            0.835978249415    -2.039225660278    -0.743425427508     1.007825032230
         H           -2.365966750585     2.231578339722     0.203243572492     1.007825032230
         H           -1.242736750585    -2.555262660278    -0.138528427508     1.007825032230
         H           -4.167330750585     0.551992339722     0.381446572492     1.007825032230
         H           -3.599371750585    -1.882771660278     0.177142572492     1.007825032230

  Basis Set: AUG-CC-PVTZ
    Blend: AUG-CC-PVTZ
  Basis Set: (AUG-CC-PVTZ AUX)
    Blend: AUG-CC-PVTZ-JKFIT
	 Reference Energy          =    -514.5944631140928323 [Eh]
	 Singles Energy            =      -0.0000000000000000 [Eh]
	 Same-Spin Energy          =      -0.5578582565485428 [Eh]
	 Opposite-Spin Energy      =      -1.7429031743312016 [Eh]
	 Correlation Energy        =      -2.3007614308797444 [Eh]
	 Total Energy              =    -516.8952245449726206 [Eh]

	 ================> DF-SCS-MP2 Energies <==================
	-----------------------------------------------------------
	 SCS Same-Spin Scale       =       0.3333333333333333 [-]
	 SCS Opposite-Spin Scale   =       1.2000000000000000 [-]
	 SCS Same-Spin Energy      =      -0.1859527521828476 [Eh]
	 SCS Opposite-Spin Energy  =      -2.0914838091974417 [Eh]
	 SCS Correlation Energy    =      -2.2774365613802892 [Eh]
	 SCS Total Energy          =    -516.8718996754731734 [Eh]
	-----------------------------------------------------------

  Dipole Moment: [D]
     X:    -2.7440      Y:     2.0706      Z:     0.0288     Total:     3.4377

*** Psi4 exiting successfully. Buy a developer a beer!
