                               Psi4 1.3.2 release

  ==> Input File <==

--------------------------------------------------------------------------
#psi4
#
memory 32 gb

molecule  {
0 1
  O        3.0005300    -1.5493530     0.0754490
  N        0.8317470    -1.1153310    -0.4215630
  C        0.1960040     1.9504030    -0.2395030
  C        1.6857700     1.6448450    -0.3508570
  C       -0.7674710     0.7851500    -0.1025020
  C        2.1481850     0.6250380     0.6971500
  C       -0.4387172    -0.5451859    -0.1657691
  C        2.0510250    -0.7686880     0.1361100
  C       -2.1103850     1.1321340     0.1249900
  C       -1.4919760    -1.5397800    -0.0852490
  C       -3.1313420     0.1920050     0.2149350
  C       -2.8150140    -1.1632860     0.1069400
  H       -0.1141940     2.5504580    -1.1051150
  H        0.0480080     2.5950730     0.6372840
  H        1.9308140     1.2745600    -1.3520490
  H        2.2359360     2.5841340    -0.2253410
  H        1.5370720     0.7103830     1.6057590
  H        3.1934550     0.7649280     0.9813470
  H        0.8461440    -2.0798130    -0.7458600
  H       -2.3558010     2.1909910     0.2008090
  H       -1.2325710    -2.5958500    -0.1409630
  H       -4.1571650     0.5114050     0.3790120
  H       -3.5892060    -1.9233590     0.1747080
units angstrom
no_reorient  #important for SAPT in psi4, default
symmetry c1  #important for SAPT in psi4, default
}

set PROPERTIES_ORIGIN ["COM"]
properties('MP2/aug-cc-pvtz', properties = ['dipole'])
--------------------------------------------------------------------------

    Molecular point group: c1
  Charge       = 0
  Multiplicity = 1
  Basis Set: AUG-CC-PVTZ
    Blend: AUG-CC-PVTZ
  Basis Set: (AUG-CC-PVTZ AUX)
    Blend: AUG-CC-PVTZ-JKFIT

    Orbital Energies [Eh]
    ---------------------

    Doubly Occupied:

       1A    -20.525088     2A    -15.596824     3A    -11.355863
       4A    -11.297237     5A    -11.251100     6A    -11.249028
       7A    -11.246066     8A    -11.245771     9A    -11.244094
      10A    -11.242799    11A    -11.242081    12A    -11.240237
      13A     -1.379760    14A     -1.253124    15A     -1.152257
      16A     -1.101084    17A     -1.041463    18A     -1.011190
      19A     -0.958655    20A     -0.878879    21A     -0.846452
      22A     -0.808992    23A     -0.762920    24A     -0.722276
      25A     -0.681704    26A     -0.673772    27A     -0.645628
      28A     -0.629107    29A     -0.611067    30A     -0.602018
      31A     -0.598119    32A     -0.580724    33A     -0.564645
      34A     -0.541593    35A     -0.520350    36A     -0.510508
      37A     -0.498227    38A     -0.491087    39A     -0.480359
      40A     -0.435077    41A     -0.425163    42A     -0.340859
      43A     -0.316649

  @DF-RHF Final Energy:  -514.59170110086586

   => Energetics <=

    Nuclear Repulsion Energy =            675.3698819292006874
    One-Electron Energy =               -2038.3233685206807877
    Two-Electron Energy =                 848.3617854906143521
    Total Energy =                       -514.5917011008658619
  Basis Set: (AUG-CC-PVTZ AUX)
    Blend: AUG-CC-PVTZ-RI
    Molecular point group: c1

    Geometry (in Angstrom), charge = 0, multiplicity = 1:

       Center              X                  Y                   Z               Mass
    ------------   -----------------  -----------------  -----------------  -----------------
         O            2.988842291996    -1.512019767577     0.076992558714    15.994914619570
         N            0.820059291996    -1.077997767577    -0.420019441286    14.003074004430
         C            0.184316291996     1.987736232423    -0.237959441286    12.000000000000
         C            1.674082291996     1.682178232423    -0.349313441286    12.000000000000
         C           -0.779158708004     0.822483232423    -0.100958441286    12.000000000000
         C            2.136497291996     0.662371232423     0.698693558714    12.000000000000
         C           -0.450404908004    -0.507852667577    -0.164225541286    12.000000000000
         C            2.039337291996    -0.731354767577     0.137653558714    12.000000000000
         C           -2.122072708004     1.169467232423     0.126533558714    12.000000000000
         C           -1.503663708004    -1.502446767577    -0.083705441286    12.000000000000
         C           -3.143029708004     0.229338232423     0.216478558714    12.000000000000
         C           -2.826701708004    -1.125952767577     0.108483558714    12.000000000000
         H           -0.125881708004     2.587791232423    -1.103571441286     1.007825032230
         H            0.036320291996     2.632406232423     0.638827558714     1.007825032230
         H            1.919126291996     1.311893232423    -1.350505441286     1.007825032230
         H            2.224248291996     2.621467232423    -0.223797441286     1.007825032230
         H            1.525384291996     0.747716232423     1.607302558714     1.007825032230
         H            3.181767291996     0.802261232423     0.982890558714     1.007825032230
         H            0.834456291996    -2.042479767577    -0.744316441286     1.007825032230
         H           -2.367488708004     2.228324232423     0.202352558714     1.007825032230
         H           -1.244258708004    -2.558516767577    -0.139419441286     1.007825032230
         H           -4.168852708004     0.548738232423     0.380555558714     1.007825032230
         H           -3.600893708004    -1.886025767577     0.176251558714     1.007825032230

  Basis Set: AUG-CC-PVTZ
    Blend: AUG-CC-PVTZ
  Basis Set: (AUG-CC-PVTZ AUX)
    Blend: AUG-CC-PVTZ-JKFIT
	 Reference Energy          =    -514.5917011008658619 [Eh]
	 Singles Energy            =      -0.0000000000000000 [Eh]
	 Same-Spin Energy          =      -0.5576798325065321 [Eh]
	 Opposite-Spin Energy      =      -1.7431367195686684 [Eh]
	 Correlation Energy        =      -2.3008165520752004 [Eh]
	 Total Energy              =    -516.8925176529410237 [Eh]

	 ================> DF-SCS-MP2 Energies <==================
	-----------------------------------------------------------
	 SCS Same-Spin Scale       =       0.3333333333333333 [-]
	 SCS Opposite-Spin Scale   =       1.2000000000000000 [-]
	 SCS Same-Spin Energy      =      -0.1858932775021774 [Eh]
	 SCS Opposite-Spin Energy  =      -2.0917640634824020 [Eh]
	 SCS Correlation Energy    =      -2.2776573409845793 [Eh]
	 SCS Total Energy          =    -516.8693584418504088 [Eh]
	-----------------------------------------------------------

  Dipole Moment: [D]
     X:    -2.7553      Y:     2.0545      Z:     0.0250     Total:     3.4370

*** Psi4 exiting successfully. Buy a developer a beer!
