                               Psi4 1.4a3.dev225

  ==> Input File <==

--------------------------------------------------------------------------
#psi4
#
memory 32 gb

molecule  {
0 1
  O        3.0005300    -1.5493530     0.0754490
  N        0.8317470    -1.1153310    -0.4215630
  C        0.1960040     1.9504030    -0.2395030
  C        1.6857700     1.6448450    -0.3508570
  C       -0.7674710     0.7851500    -0.1025020
  C        2.1481850     0.6250380     0.6971500
  C       -0.5052267    -0.5693256    -0.1704898
  C        2.0510250    -0.7686880     0.1361100
  C       -2.1103850     1.1321340     0.1249900
  C       -1.4919760    -1.5397800    -0.0852490
  C       -3.1313420     0.1920050     0.2149350
  C       -2.8150140    -1.1632860     0.1069400
  H       -0.1141940     2.5504580    -1.1051150
  H        0.0480080     2.5950730     0.6372840
  H        1.9308140     1.2745600    -1.3520490
  H        2.2359360     2.5841340    -0.2253410
  H        1.5370720     0.7103830     1.6057590
  H        3.1934550     0.7649280     0.9813470
  H        0.8461440    -2.0798130    -0.7458600
  H       -2.3558010     2.1909910     0.2008090
  H       -1.2325710    -2.5958500    -0.1409630
  H       -4.1571650     0.5114050     0.3790120
  H       -3.5892060    -1.9233590     0.1747080
units angstrom
no_reorient  #important for SAPT in psi4, default
symmetry c1  #important for SAPT in psi4, default
}

set PROPERTIES_ORIGIN ["COM"]
properties('MP2/aug-cc-pvtz', properties = ['dipole'])
--------------------------------------------------------------------------

    Molecular point group: c1
  Charge       = 0
  Multiplicity = 1
  Basis Set: AUG-CC-PVTZ
    Blend: AUG-CC-PVTZ
  Basis Set: (AUG-CC-PVTZ AUX)
    Blend: AUG-CC-PVTZ-JKFIT

    Orbital Energies [Eh]
    ---------------------

    Doubly Occupied:

       1A    -20.521635     2A    -15.591698     3A    -11.353156
       4A    -11.295464     5A    -11.254428     6A    -11.247832
       7A    -11.246923     8A    -11.246574     9A    -11.244710
      10A    -11.241904    11A    -11.241736    12A    -11.240956
      13A     -1.375537    14A     -1.241023    15A     -1.155410
      16A     -1.101822    17A     -1.040925    18A     -1.019174
      19A     -0.959022    20A     -0.877483    21A     -0.844780
      22A     -0.806951    23A     -0.764406    24A     -0.716812
      25A     -0.679468    26A     -0.668281    27A     -0.645642
      28A     -0.631570    29A     -0.610308    30A     -0.604176
      31A     -0.599625    32A     -0.577618    33A     -0.563383
      34A     -0.541409    35A     -0.517276    36A     -0.511807
      37A     -0.499295    38A     -0.494113    39A     -0.483528
      40A     -0.430387    41A     -0.421962    42A     -0.342646
      43A     -0.322951

  @DF-RHF Final Energy:  -514.59227386203975

   => Energetics <=

    Nuclear Repulsion Energy =            675.0841664441620651
    One-Electron Energy =               -2037.8012705548915164
    Two-Electron Energy =                 848.1248302486897046
    Total Energy =                       -514.5922738620397467
  Basis Set: (AUG-CC-PVTZ AUX)
    Blend: AUG-CC-PVTZ-RI
    Molecular point group: c1

    Geometry (in Angstrom), charge = 0, multiplicity = 1:

       Center              X                  Y                   Z               Mass
    ------------   -----------------  -----------------  -----------------  -----------------
         O            2.993796934810    -1.510221474234     0.077344228510    15.994914619570
         N            0.825013934810    -1.076199474234    -0.419667771490    14.003074004430
         C            0.189270934810     1.989534525766    -0.237607771490    12.000000000000
         C            1.679036934810     1.683976525766    -0.348961771490    12.000000000000
         C           -0.774204065190     0.824281525766    -0.100606771490    12.000000000000
         C            2.141451934810     0.664169525766     0.699045228510    12.000000000000
         C           -0.511959765190    -0.530194074234    -0.168594571490    12.000000000000
         C            2.044291934810    -0.729556474234     0.138005228510    12.000000000000
         C           -2.117118065190     1.171265525766     0.126885228510    12.000000000000
         C           -1.498709065190    -1.500648474234    -0.083353771490    12.000000000000
         C           -3.138075065190     0.231136525766     0.216830228510    12.000000000000
         C           -2.821747065190    -1.124154474234     0.108835228510    12.000000000000
         H           -0.120927065190     2.589589525766    -1.103219771490     1.007825032230
         H            0.041274934810     2.634204525766     0.639179228510     1.007825032230
         H            1.924080934810     1.313691525766    -1.350153771490     1.007825032230
         H            2.229202934810     2.623265525766    -0.223445771490     1.007825032230
         H            1.530338934810     0.749514525766     1.607654228510     1.007825032230
         H            3.186721934810     0.804059525766     0.983242228510     1.007825032230
         H            0.839410934810    -2.040681474234    -0.743964771490     1.007825032230
         H           -2.362534065190     2.230122525766     0.202704228510     1.007825032230
         H           -1.239304065190    -2.556718474234    -0.139067771490     1.007825032230
         H           -4.163898065190     0.550536525766     0.380907228510     1.007825032230
         H           -3.595939065190    -1.884227474234     0.176603228510     1.007825032230

  Basis Set: AUG-CC-PVTZ
    Blend: AUG-CC-PVTZ
  Basis Set: (AUG-CC-PVTZ AUX)
    Blend: AUG-CC-PVTZ-JKFIT
	 Reference Energy          =    -514.5922738620397467 [Eh]
	 Singles Energy            =      -0.0000000000000000 [Eh]
	 Same-Spin Energy          =      -0.5574996474523618 [Eh]
	 Opposite-Spin Energy      =      -1.7426723238572377 [Eh]
	 Correlation Energy        =      -2.3001719713095996 [Eh]
	 Total Energy              =    -516.8924458333493703 [Eh]

	 ================> DF-SCS-MP2 Energies <==================
	-----------------------------------------------------------
	 SCS Same-Spin Scale       =       0.3333333333333333 [-]
	 SCS Opposite-Spin Scale   =       1.2000000000000000 [-]
	 SCS Same-Spin Energy      =      -0.1858332158174539 [Eh]
	 SCS Opposite-Spin Energy  =      -2.0912067886286851 [Eh]
	 SCS Correlation Energy    =      -2.2770400044461390 [Eh]
	 SCS Total Energy          =    -516.8693138664858679 [Eh]
	-----------------------------------------------------------

  Dipole Moment: [D]
     X:    -3.0249      Y:     2.1366      Z:     0.0573     Total:     3.7038

*** Psi4 exiting successfully. Buy a developer a beer!
