                               Psi4 1.4a3.dev225

  ==> Input File <==

--------------------------------------------------------------------------
#psi4
#
memory 32 gb

molecule  {
0 1
  O        3.0005300    -1.5493530     0.0754490
  N        0.8317470    -1.1153310    -0.4215630
  C        0.1960040     1.9504030    -0.2395030
  C        1.6857700     1.6448450    -0.3508570
  C       -0.7674710     0.7851500    -0.1025020
  C        2.1481850     0.6250380     0.6971500
  C       -0.4596220    -0.5879500    -0.1790540
  C        2.0896001    -0.8004037     0.1336456
  C       -2.1103850     1.1321340     0.1249900
  C       -1.4919760    -1.5397800    -0.0852490
  C       -3.1313420     0.1920050     0.2149350
  C       -2.8150140    -1.1632860     0.1069400
  H       -0.1141940     2.5504580    -1.1051150
  H        0.0480080     2.5950730     0.6372840
  H        1.9308140     1.2745600    -1.3520490
  H        2.2359360     2.5841340    -0.2253410
  H        1.5370720     0.7103830     1.6057590
  H        3.1934550     0.7649280     0.9813470
  H        0.8461440    -2.0798130    -0.7458600
  H       -2.3558010     2.1909910     0.2008090
  H       -1.2325710    -2.5958500    -0.1409630
  H       -4.1571650     0.5114050     0.3790120
  H       -3.5892060    -1.9233590     0.1747080
units angstrom
no_reorient  #important for SAPT in psi4, default
symmetry c1  #important for SAPT in psi4, default
}

set PROPERTIES_ORIGIN ["COM"]
properties('MP2/aug-cc-pvtz', properties = ['dipole'])
--------------------------------------------------------------------------

    Molecular point group: c1
  Charge       = 0
  Multiplicity = 1
  Basis Set: AUG-CC-PVTZ
    Blend: AUG-CC-PVTZ
  Basis Set: (AUG-CC-PVTZ AUX)
    Blend: AUG-CC-PVTZ-JKFIT

    Orbital Energies [Eh]
    ---------------------

    Doubly Occupied:

       1A    -20.535718     2A    -15.589292     3A    -11.355731
       4A    -11.295177     5A    -11.252309     6A    -11.244222
       7A    -11.242868     8A    -11.242785     9A    -11.241771
      10A    -11.241354    11A    -11.240240    12A    -11.237337
      13A     -1.414296    14A     -1.248795    15A     -1.148166
      16A     -1.097889    17A     -1.034948    18A     -1.012607
      19A     -0.952464    20A     -0.876030    21A     -0.840070
      22A     -0.804885    23A     -0.760659    24A     -0.718502
      25A     -0.683789    26A     -0.669052    27A     -0.648414
      28A     -0.632260    29A     -0.611806    30A     -0.604192
      31A     -0.598825    32A     -0.581418    33A     -0.568118
      34A     -0.540494    35A     -0.516840    36A     -0.513668
      37A     -0.499173    38A     -0.488582    39A     -0.483066
      40A     -0.439335    41A     -0.426611    42A     -0.338270
      43A     -0.312830

  @DF-RHF Final Energy:  -514.59393509436552

   => Energetics <=

    Nuclear Repulsion Energy =            674.7880264842505085
    One-Electron Energy =               -2037.1942045861374027
    Two-Electron Energy =                 847.8122430075212606
    Total Energy =                       -514.5939350943655199
  Basis Set: (AUG-CC-PVTZ AUX)
    Blend: AUG-CC-PVTZ-RI
    Molecular point group: c1

    Geometry (in Angstrom), charge = 0, multiplicity = 1:

       Center              X                  Y                   Z               Mass
    ------------   -----------------  -----------------  -----------------  -----------------
         O            2.987525938318    -1.506471375155     0.078165806988    15.994914619570
         N            0.818742938318    -1.072449375155    -0.418846193012    14.003074004430
         C            0.182999938318     1.993284624845    -0.236786193012    12.000000000000
         C            1.672765938318     1.687726624845    -0.348140193012    12.000000000000
         C           -0.780475061682     0.828031624845    -0.099785193012    12.000000000000
         C            2.135180938318     0.667919624845     0.699866806988    12.000000000000
         C           -0.472626061682    -0.545068375155    -0.176337193012    12.000000000000
         C            2.076596038318    -0.757522075155     0.136362406988    12.000000000000
         C           -2.123389061682     1.175015624845     0.127706806988    12.000000000000
         C           -1.504980061682    -1.496898375155    -0.082532193012    12.000000000000
         C           -3.144346061682     0.234886624845     0.217651806988    12.000000000000
         C           -2.828018061682    -1.120404375155     0.109656806988    12.000000000000
         H           -0.127198061682     2.593339624845    -1.102398193012     1.007825032230
         H            0.035003938318     2.637954624845     0.640000806988     1.007825032230
         H            1.917809938318     1.317441624845    -1.349332193012     1.007825032230
         H            2.222931938318     2.627015624845    -0.222624193012     1.007825032230
         H            1.524067938318     0.753264624845     1.608475806988     1.007825032230
         H            3.180450938318     0.807809624845     0.984063806988     1.007825032230
         H            0.833139938318    -2.036931375155    -0.743143193012     1.007825032230
         H           -2.368805061682     2.233872624845     0.203525806988     1.007825032230
         H           -1.245575061682    -2.552968375155    -0.138246193012     1.007825032230
         H           -4.170169061682     0.554286624845     0.381728806988     1.007825032230
         H           -3.602210061682    -1.880477375155     0.177424806988     1.007825032230

  Basis Set: AUG-CC-PVTZ
    Blend: AUG-CC-PVTZ
  Basis Set: (AUG-CC-PVTZ AUX)
    Blend: AUG-CC-PVTZ-JKFIT
	 Reference Energy          =    -514.5939350943655199 [Eh]
	 Singles Energy            =      -0.0000000000000000 [Eh]
	 Same-Spin Energy          =      -0.5567947655967416 [Eh]
	 Opposite-Spin Energy      =      -1.7409902731636380 [Eh]
	 Correlation Energy        =      -2.2977850387603795 [Eh]
	 Total Energy              =    -516.8917201331258866 [Eh]

	 ================> DF-SCS-MP2 Energies <==================
	-----------------------------------------------------------
	 SCS Same-Spin Scale       =       0.3333333333333333 [-]
	 SCS Opposite-Spin Scale   =       1.2000000000000000 [-]
	 SCS Same-Spin Energy      =      -0.1855982551989138 [Eh]
	 SCS Opposite-Spin Energy  =      -2.0891883277963657 [Eh]
	 SCS Correlation Energy    =      -2.2747865829952794 [Eh]
	 SCS Total Energy          =    -516.8687216773607815 [Eh]
	-----------------------------------------------------------

  Dipole Moment: [D]
     X:    -2.3025      Y:     1.8417      Z:     0.0646     Total:     2.9492

*** Psi4 exiting successfully. Buy a developer a beer!
