                               Psi4 1.3.2 release

  ==> Input File <==

--------------------------------------------------------------------------
#psi4
#
memory 32 gb

molecule  {
0 1
  O        3.0005300    -1.5493530     0.0754490
  N        0.8317470    -1.1153310    -0.4215630
  C        0.1960040     1.9504030    -0.2395030
  C        1.6857700     1.6448450    -0.3508570
  C       -0.7674710     0.7851500    -0.1025020
  C        2.1481850     0.6250380     0.6971500
  C       -0.5633733    -0.4850085    -0.1606727
  C        2.0510250    -0.7686880     0.1361100
  C       -2.1103850     1.1321340     0.1249900
  C       -1.4919760    -1.5397800    -0.0852490
  C       -3.1313420     0.1920050     0.2149350
  C       -2.8150140    -1.1632860     0.1069400
  H       -0.1141940     2.5504580    -1.1051150
  H        0.0480080     2.5950730     0.6372840
  H        1.9308140     1.2745600    -1.3520490
  H        2.2359360     2.5841340    -0.2253410
  H        1.5370720     0.7103830     1.6057590
  H        3.1934550     0.7649280     0.9813470
  H        0.8461440    -2.0798130    -0.7458600
  H       -2.3558010     2.1909910     0.2008090
  H       -1.2325710    -2.5958500    -0.1409630
  H       -4.1571650     0.5114050     0.3790120
  H       -3.5892060    -1.9233590     0.1747080
units angstrom
no_reorient  #important for SAPT in psi4, default
symmetry c1  #important for SAPT in psi4, default
}

set PROPERTIES_ORIGIN ["COM"]
properties('MP2/aug-cc-pvtz', properties = ['dipole'])
--------------------------------------------------------------------------

    Molecular point group: c1
  Charge       = 0
  Multiplicity = 1
  Basis Set: AUG-CC-PVTZ
    Blend: AUG-CC-PVTZ
  Basis Set: (AUG-CC-PVTZ AUX)
    Blend: AUG-CC-PVTZ-JKFIT

    Orbital Energies [Eh]
    ---------------------

    Doubly Occupied:

       1A    -20.514412     2A    -15.583753     3A    -11.345696
       4A    -11.293293     5A    -11.251447     6A    -11.250919
       7A    -11.249985     8A    -11.249790     9A    -11.246504
      10A    -11.244958    11A    -11.241068    12A    -11.238171
      13A     -1.367940    14A     -1.227559    15A     -1.161022
      16A     -1.101546    17A     -1.049138    18A     -1.017841
      19A     -0.964207    20A     -0.871986    21A     -0.855490
      22A     -0.803085    23A     -0.758507    24A     -0.712805
      25A     -0.677402    26A     -0.665350    27A     -0.644123
      28A     -0.636061    29A     -0.608613    30A     -0.602762
      31A     -0.596695    32A     -0.575847    33A     -0.561972
      34A     -0.540948    35A     -0.523327    36A     -0.509920
      37A     -0.501360    38A     -0.493621    39A     -0.480356
      40A     -0.421206    41A     -0.414145    42A     -0.349510
      43A     -0.332529

  @DF-RHF Final Energy:  -514.56996220327892

   => Energetics <=

    Nuclear Repulsion Energy =            675.5576319872640170
    One-Electron Energy =               -2038.7814578295303818
    Two-Electron Energy =                 848.6538636389873318
    Total Energy =                       -514.5699622032789193
  Basis Set: (AUG-CC-PVTZ AUX)
    Blend: AUG-CC-PVTZ-RI
    Molecular point group: c1

    Geometry (in Angstrom), charge = 0, multiplicity = 1:

       Center              X                  Y                   Z               Mass
    ------------   -----------------  -----------------  -----------------  -----------------
         O            2.998128581173    -1.516502698925     0.076612901046    15.994914619570
         N            0.829345581173    -1.082480698925    -0.420399098954    14.003074004430
         C            0.193602581173     1.983253301075    -0.238339098954    12.000000000000
         C            1.683368581173     1.677695301075    -0.349693098954    12.000000000000
         C           -0.769872418827     0.818000301075    -0.101338098954    12.000000000000
         C            2.145783581173     0.657888301075     0.698313901046    12.000000000000
         C           -0.565774718827    -0.452158198925    -0.159508798954    12.000000000000
         C            2.048623581173    -0.735837698925     0.137273901046    12.000000000000
         C           -2.112786418827     1.164984301075     0.126153901046    12.000000000000
         C           -1.494377418827    -1.506929698925    -0.084085098954    12.000000000000
         C           -3.133743418827     0.224855301075     0.216098901046    12.000000000000
         C           -2.817415418827    -1.130435698925     0.108103901046    12.000000000000
         H           -0.116595418827     2.583308301075    -1.103951098954     1.007825032230
         H            0.045606581173     2.627923301075     0.638447901046     1.007825032230
         H            1.928412581173     1.307410301075    -1.350885098954     1.007825032230
         H            2.233534581173     2.616984301075    -0.224177098954     1.007825032230
         H            1.534670581173     0.743233301075     1.606922901046     1.007825032230
         H            3.191053581173     0.797778301075     0.982510901046     1.007825032230
         H            0.843742581173    -2.046962698925    -0.744696098954     1.007825032230
         H           -2.358202418827     2.223841301075     0.201972901046     1.007825032230
         H           -1.234972418827    -2.562999698925    -0.139799098954     1.007825032230
         H           -4.159566418827     0.544255301075     0.380175901046     1.007825032230
         H           -3.591607418827    -1.890508698925     0.175871901046     1.007825032230

  Basis Set: AUG-CC-PVTZ
    Blend: AUG-CC-PVTZ
  Basis Set: (AUG-CC-PVTZ AUX)
    Blend: AUG-CC-PVTZ-JKFIT
	 Reference Energy          =    -514.5699622032789193 [Eh]
	 Singles Energy            =      -0.0000000000000000 [Eh]
	 Same-Spin Energy          =      -0.5570138877730473 [Eh]
	 Opposite-Spin Energy      =      -1.7430486980860562 [Eh]
	 Correlation Energy        =      -2.3000625858591035 [Eh]
	 Total Energy              =    -516.8700247891380286 [Eh]

	 ================> DF-SCS-MP2 Energies <==================
	-----------------------------------------------------------
	 SCS Same-Spin Scale       =       0.3333333333333333 [-]
	 SCS Opposite-Spin Scale   =       1.2000000000000000 [-]
	 SCS Same-Spin Energy      =      -0.1856712959243491 [Eh]
	 SCS Opposite-Spin Energy  =      -2.0916584377032672 [Eh]
	 SCS Correlation Energy    =      -2.2773297336276164 [Eh]
	 SCS Total Energy          =    -516.8472919369065721 [Eh]
	-----------------------------------------------------------

  Dipole Moment: [D]
     X:    -3.5080      Y:     2.2753      Z:     0.0803     Total:     4.1821

*** Psi4 exiting successfully. Buy a developer a beer!
