                               Psi4 1.3.2 release

  ==> Input File <==

--------------------------------------------------------------------------
#psi4
#
memory 32 gb

molecule  {
0 1
  O        3.0005300    -1.5493530     0.0754490
  N        0.8317470    -1.1153310    -0.4215630
  C        0.1960040     1.9504030    -0.2395030
  C        1.6857700     1.6448450    -0.3508570
  C       -0.7674710     0.7851500    -0.1025020
  C        2.1481850     0.6250380     0.6971500
  C       -0.4596220    -0.5879500    -0.1790540
  C        2.0767229    -0.7719931     0.1404855
  C       -2.1103850     1.1321340     0.1249900
  C       -1.4919760    -1.5397800    -0.0852490
  C       -3.1313420     0.1920050     0.2149350
  C       -2.8150140    -1.1632860     0.1069400
  H       -0.1141940     2.5504580    -1.1051150
  H        0.0480080     2.5950730     0.6372840
  H        1.9308140     1.2745600    -1.3520490
  H        2.2359360     2.5841340    -0.2253410
  H        1.5370720     0.7103830     1.6057590
  H        3.1934550     0.7649280     0.9813470
  H        0.8461440    -2.0798130    -0.7458600
  H       -2.3558010     2.1909910     0.2008090
  H       -1.2325710    -2.5958500    -0.1409630
  H       -4.1571650     0.5114050     0.3790120
  H       -3.5892060    -1.9233590     0.1747080
units angstrom
no_reorient  #important for SAPT in psi4, default
symmetry c1  #important for SAPT in psi4, default
}

set PROPERTIES_ORIGIN ["COM"]
properties('MP2/aug-cc-pvtz', properties = ['dipole'])
--------------------------------------------------------------------------

    Molecular point group: c1
  Charge       = 0
  Multiplicity = 1
  Basis Set: AUG-CC-PVTZ
    Blend: AUG-CC-PVTZ
  Basis Set: (AUG-CC-PVTZ AUX)
    Blend: AUG-CC-PVTZ-JKFIT

    Orbital Energies [Eh]
    ---------------------

    Doubly Occupied:

       1A    -20.531651     2A    -15.591587     3A    -11.357789
       4A    -11.295430     5A    -11.253155     6A    -11.244891
       7A    -11.244148     8A    -11.243567     9A    -11.243027
      10A    -11.242383    11A    -11.242146    12A    -11.237990
      13A     -1.394693    14A     -1.248490    15A     -1.148716
      16A     -1.101141    17A     -1.038041    18A     -1.013127
      19A     -0.956406    20A     -0.878083    21A     -0.840682
      22A     -0.806447    23A     -0.762822    24A     -0.719072
      25A     -0.683380    26A     -0.669276    27A     -0.646769
      28A     -0.630305    29A     -0.611342    30A     -0.603103
      31A     -0.599862    32A     -0.581060    33A     -0.565846
      34A     -0.541015    35A     -0.517022    36A     -0.511546
      37A     -0.498937    38A     -0.490453    39A     -0.483193
      40A     -0.437028    41A     -0.429069    42A     -0.339030
      43A     -0.313368

  @DF-RHF Final Energy:  -514.59471286280871

   => Energetics <=

    Nuclear Repulsion Energy =            674.8641724151582366
    One-Electron Energy =               -2037.3435921270922790
    Two-Electron Energy =                 847.8847068491253367
    Total Energy =                       -514.5947128628087057
  Basis Set: (AUG-CC-PVTZ AUX)
    Blend: AUG-CC-PVTZ-RI
    Molecular point group: c1

    Geometry (in Angstrom), charge = 0, multiplicity = 1:

       Center              X                  Y                   Z               Mass
    ------------   -----------------  -----------------  -----------------  -----------------
         O            2.988485228742    -1.508587830325     0.077656266826    15.994914619570
         N            0.819702228742    -1.074565830325    -0.419355733174    14.003074004430
         C            0.183959228742     1.991168169675    -0.237295733174    12.000000000000
         C            1.673725228742     1.685610169675    -0.348649733174    12.000000000000
         C           -0.779515771258     0.825915169675    -0.100294733174    12.000000000000
         C            2.136140228742     0.665803169675     0.699357266826    12.000000000000
         C           -0.471666771258    -0.547184830325    -0.176846733174    12.000000000000
         C            2.064678128742    -0.731227930325     0.142692766826    12.000000000000
         C           -2.122429771258     1.172899169675     0.127197266826    12.000000000000
         C           -1.504020771258    -1.499014830325    -0.083041733174    12.000000000000
         C           -3.143386771258     0.232770169675     0.217142266826    12.000000000000
         C           -2.827058771258    -1.122520830325     0.109147266826    12.000000000000
         H           -0.126238771258     2.591223169675    -1.102907733174     1.007825032230
         H            0.035963228742     2.635838169675     0.639491266826     1.007825032230
         H            1.918769228742     1.315325169675    -1.349841733174     1.007825032230
         H            2.223891228742     2.624899169675    -0.223133733174     1.007825032230
         H            1.525027228742     0.751148169675     1.607966266826     1.007825032230
         H            3.181410228742     0.805693169675     0.983554266826     1.007825032230
         H            0.834099228742    -2.039047830325    -0.743652733174     1.007825032230
         H           -2.367845771258     2.231756169675     0.203016266826     1.007825032230
         H           -1.244615771258    -2.555084830325    -0.138755733174     1.007825032230
         H           -4.169209771258     0.552170169675     0.381219266826     1.007825032230
         H           -3.601250771258    -1.882593830325     0.176915266826     1.007825032230

  Basis Set: AUG-CC-PVTZ
    Blend: AUG-CC-PVTZ
  Basis Set: (AUG-CC-PVTZ AUX)
    Blend: AUG-CC-PVTZ-JKFIT
	 Reference Energy          =    -514.5947128628087057 [Eh]
	 Singles Energy            =      -0.0000000000000000 [Eh]
	 Same-Spin Energy          =      -0.5575030199433502 [Eh]
	 Opposite-Spin Energy      =      -1.7423238830211156 [Eh]
	 Correlation Energy        =      -2.2998269029644658 [Eh]
	 Total Energy              =    -516.8945397657731746 [Eh]

	 ================> DF-SCS-MP2 Energies <==================
	-----------------------------------------------------------
	 SCS Same-Spin Scale       =       0.3333333333333333 [-]
	 SCS Opposite-Spin Scale   =       1.2000000000000000 [-]
	 SCS Same-Spin Energy      =      -0.1858343399811167 [Eh]
	 SCS Opposite-Spin Energy  =      -2.0907886596253387 [Eh]
	 SCS Correlation Energy    =      -2.2766229996064555 [Eh]
	 SCS Total Energy          =    -516.8713358624152079 [Eh]
	-----------------------------------------------------------

  Dipole Moment: [D]
     X:    -2.4437      Y:     1.9985      Z:     0.0777     Total:     3.1578

*** Psi4 exiting successfully. Buy a developer a beer!
