                               Psi4 1.3.2 release

  ==> Input File <==

--------------------------------------------------------------------------
#psi4
#
memory 32 gb

molecule  {
0 1
  O        3.0005300    -1.5493530     0.0754490
  N        0.8317470    -1.1153310    -0.4215630
  C        0.1960040     1.9504030    -0.2395030
  C        1.6857700     1.6448450    -0.3508570
  C       -0.7674710     0.7851500    -0.1025020
  C        2.1481850     0.6250380     0.6971500
  C       -0.4273360    -0.6246866    -0.1836381
  C        2.0510250    -0.7686880     0.1361100
  C       -2.1103850     1.1321340     0.1249900
  C       -1.4919760    -1.5397800    -0.0852490
  C       -3.1313420     0.1920050     0.2149350
  C       -2.8150140    -1.1632860     0.1069400
  H       -0.1141940     2.5504580    -1.1051150
  H        0.0480080     2.5950730     0.6372840
  H        1.9308140     1.2745600    -1.3520490
  H        2.2359360     2.5841340    -0.2253410
  H        1.5370720     0.7103830     1.6057590
  H        3.1934550     0.7649280     0.9813470
  H        0.8461440    -2.0798130    -0.7458600
  H       -2.3558010     2.1909910     0.2008090
  H       -1.2325710    -2.5958500    -0.1409630
  H       -4.1571650     0.5114050     0.3790120
  H       -3.5892060    -1.9233590     0.1747080
units angstrom
no_reorient  #important for SAPT in psi4, default
symmetry c1  #important for SAPT in psi4, default
}

set PROPERTIES_ORIGIN ["COM"]
properties('MP2/aug-cc-pvtz', properties = ['dipole'])
--------------------------------------------------------------------------

    Molecular point group: c1
  Charge       = 0
  Multiplicity = 1
  Basis Set: AUG-CC-PVTZ
    Blend: AUG-CC-PVTZ
  Basis Set: (AUG-CC-PVTZ AUX)
    Blend: AUG-CC-PVTZ-JKFIT

    Orbital Energies [Eh]
    ---------------------

    Doubly Occupied:

       1A    -20.529717     2A    -15.599593     3A    -11.360913
       4A    -11.299221     5A    -11.257481     6A    -11.245165
       7A    -11.244431     8A    -11.243737     9A    -11.243313
      10A    -11.242715    11A    -11.242400    12A    -11.237826
      13A     -1.384684    14A     -1.265753    15A     -1.147537
      16A     -1.102326    17A     -1.036392    18A     -1.015603
      19A     -0.954882    20A     -0.884462    21A     -0.840807
      22A     -0.809663    23A     -0.767773    24A     -0.726961
      25A     -0.684055    26A     -0.671323    27A     -0.647214
      28A     -0.627140    29A     -0.612323    30A     -0.603953
      31A     -0.601485    32A     -0.578615    33A     -0.565509
      34A     -0.543368    35A     -0.517239    36A     -0.509931
      37A     -0.497879    38A     -0.489266    39A     -0.481471
      40A     -0.439405    41A     -0.429794    42A     -0.339243
      43A     -0.308876

  @DF-RHF Final Energy:  -514.59037646475485

   => Energetics <=

    Nuclear Repulsion Energy =            674.9631245089470895
    One-Electron Energy =               -2037.4441197027715589
    Two-Electron Energy =                 847.8906187290697289
    Total Energy =                       -514.5903764647548542
  Basis Set: (AUG-CC-PVTZ AUX)
    Blend: AUG-CC-PVTZ-RI
    Molecular point group: c1

    Geometry (in Angstrom), charge = 0, multiplicity = 1:

       Center              X                  Y                   Z               Mass
    ------------   -----------------  -----------------  -----------------  -----------------
         O            2.987994446488    -1.506097341880     0.078323714600    15.994914619570
         N            0.819211446488    -1.072075341880    -0.418688285400    14.003074004430
         C            0.183468446488     1.993658658120    -0.236628285400    12.000000000000
         C            1.673234446488     1.688100658120    -0.347982285400    12.000000000000
         C           -0.780006553512     0.828405658120    -0.099627285400    12.000000000000
         C            2.135649446488     0.668293658120     0.700024714600    12.000000000000
         C           -0.439871553512    -0.581430941880    -0.180763385400    12.000000000000
         C            2.038489446488    -0.725432341880     0.138984714600    12.000000000000
         C           -2.122920553512     1.175389658120     0.127864714600    12.000000000000
         C           -1.504511553512    -1.496524341880    -0.082374285400    12.000000000000
         C           -3.143877553512     0.235260658120     0.217809714600    12.000000000000
         C           -2.827549553512    -1.120030341880     0.109814714600    12.000000000000
         H           -0.126729553512     2.593713658120    -1.102240285400     1.007825032230
         H            0.035472446488     2.638328658120     0.640158714600     1.007825032230
         H            1.918278446488     1.317815658120    -1.349174285400     1.007825032230
         H            2.223400446488     2.627389658120    -0.222466285400     1.007825032230
         H            1.524536446488     0.753638658120     1.608633714600     1.007825032230
         H            3.180919446488     0.808183658120     0.984221714600     1.007825032230
         H            0.833608446488    -2.036557341880    -0.742985285400     1.007825032230
         H           -2.368336553512     2.234246658120     0.203683714600     1.007825032230
         H           -1.245106553512    -2.552594341880    -0.138088285400     1.007825032230
         H           -4.169700553512     0.554660658120     0.381886714600     1.007825032230
         H           -3.601741553512    -1.880103341880     0.177582714600     1.007825032230

  Basis Set: AUG-CC-PVTZ
    Blend: AUG-CC-PVTZ
  Basis Set: (AUG-CC-PVTZ AUX)
    Blend: AUG-CC-PVTZ-JKFIT
	 Reference Energy          =    -514.5903764647548542 [Eh]
	 Singles Energy            =      -0.0000000000000000 [Eh]
	 Same-Spin Energy          =      -0.5584402645562461 [Eh]
	 Opposite-Spin Energy      =      -1.7437592905144328 [Eh]
	 Correlation Energy        =      -2.3021995550706791 [Eh]
	 Total Energy              =    -516.8925760198255830 [Eh]

	 ================> DF-SCS-MP2 Energies <==================
	-----------------------------------------------------------
	 SCS Same-Spin Scale       =       0.3333333333333333 [-]
	 SCS Opposite-Spin Scale   =       1.2000000000000000 [-]
	 SCS Same-Spin Energy      =      -0.1861467548520820 [Eh]
	 SCS Opposite-Spin Energy  =      -2.0925111486173193 [Eh]
	 SCS Correlation Energy    =      -2.2786579034694014 [Eh]
	 SCS Total Energy          =    -516.8690343682242201 [Eh]
	-----------------------------------------------------------

  Dipole Moment: [D]
     X:    -2.4680      Y:     1.9968      Z:     0.0197     Total:     3.1747

*** Psi4 exiting successfully. Buy a developer a beer!
