                               Psi4 1.3.2 release

  ==> Input File <==

--------------------------------------------------------------------------
#psi4
#
memory 32 gb

molecule  {
0 1
  O        3.0005300    -1.5493530     0.0754490
  N        0.8317470    -1.1153310    -0.4215630
  C        0.1960040     1.9504030    -0.2395030
  C        1.6857700     1.6448450    -0.3508570
  C       -0.7674710     0.7851500    -0.1025020
  C        2.1481850     0.6250380     0.6971500
  C       -0.4596220    -0.5879500    -0.1790540
  C        2.0510250    -0.7686880     0.1361100
  C       -2.1103850     1.1321340     0.1249900
  C       -1.5653323    -1.6074145    -0.0785835
  C       -3.1313420     0.1920050     0.2149350
  C       -2.8150140    -1.1632860     0.1069400
  H       -0.1141940     2.5504580    -1.1051150
  H        0.0480080     2.5950730     0.6372840
  H        1.9308140     1.2745600    -1.3520490
  H        2.2359360     2.5841340    -0.2253410
  H        1.5370720     0.7103830     1.6057590
  H        3.1934550     0.7649280     0.9813470
  H        0.8461440    -2.0798130    -0.7458600
  H       -2.3558010     2.1909910     0.2008090
  H       -1.2325710    -2.5958500    -0.1409630
  H       -4.1571650     0.5114050     0.3790120
  H       -3.5892060    -1.9233590     0.1747080
units angstrom
no_reorient  #important for SAPT in psi4, default
symmetry c1  #important for SAPT in psi4, default
}

set PROPERTIES_ORIGIN ["COM"]
properties('MP2/aug-cc-pvtz', properties = ['dipole'])
--------------------------------------------------------------------------

    Molecular point group: c1
  Charge       = 0
  Multiplicity = 1
  Basis Set: AUG-CC-PVTZ
    Blend: AUG-CC-PVTZ
  Basis Set: (AUG-CC-PVTZ AUX)
    Blend: AUG-CC-PVTZ-JKFIT

    Orbital Energies [Eh]
    ---------------------

    Doubly Occupied:

       1A    -20.526816     2A    -15.598666     3A    -11.358069
       4A    -11.305506     5A    -11.252898     6A    -11.246406
       7A    -11.246009     8A    -11.244654     9A    -11.243032
      10A    -11.242139    11A    -11.241202    12A    -11.238867
      13A     -1.381104    14A     -1.250921    15A     -1.150382
      16A     -1.101815    17A     -1.043618    18A     -1.009849
      19A     -0.955602    20A     -0.881667    21A     -0.845903
      22A     -0.807844    23A     -0.763301    24A     -0.720095
      25A     -0.681927    26A     -0.680276    27A     -0.643495
      28A     -0.631131    29A     -0.611110    30A     -0.603272
      31A     -0.598050    32A     -0.577859    33A     -0.567381
      34A     -0.539547    35A     -0.523977    36A     -0.509661
      37A     -0.497887    38A     -0.489371    39A     -0.477252
      40A     -0.435979    41A     -0.426708    42A     -0.348093
      43A     -0.308081

  @DF-RHF Final Energy:  -514.58330832990055

   => Energetics <=

    Nuclear Repulsion Energy =            673.5181899856315795
    One-Electron Energy =               -2034.5881581477312920
    Two-Electron Energy =                 846.4866598321991660
    Total Energy =                       -514.5833083299005466
  Basis Set: (AUG-CC-PVTZ AUX)
    Blend: AUG-CC-PVTZ-RI
    Molecular point group: c1

    Geometry (in Angstrom), charge = 0, multiplicity = 1:

       Center              X                  Y                   Z               Mass
    ------------   -----------------  -----------------  -----------------  -----------------
         O            2.995864297600    -1.503795594638     0.077485672670    15.994914619570
         N            0.827081297600    -1.069773594638    -0.419526327330    14.003074004430
         C            0.191338297600     1.995960405362    -0.237466327330    12.000000000000
         C            1.681104297600     1.690402405362    -0.348820327330    12.000000000000
         C           -0.772136702400     0.830707405362    -0.100465327330    12.000000000000
         C            2.143519297600     0.670595405362     0.699186672670    12.000000000000
         C           -0.464287702400    -0.542392594638    -0.177017327330    12.000000000000
         C            2.046359297600    -0.723130594638     0.138146672670    12.000000000000
         C           -2.115050702400     1.177691405362     0.127026672670    12.000000000000
         C           -1.569998002400    -1.561857094638    -0.076546827330    12.000000000000
         C           -3.136007702400     0.237562405362     0.216971672670    12.000000000000
         C           -2.819679702400    -1.117728594638     0.108976672670    12.000000000000
         H           -0.118859702400     2.596015405362    -1.103078327330     1.007825032230
         H            0.043342297600     2.640630405362     0.639320672670     1.007825032230
         H            1.926148297600     1.320117405362    -1.350012327330     1.007825032230
         H            2.231270297600     2.629691405362    -0.223304327330     1.007825032230
         H            1.532406297600     0.755940405362     1.607795672670     1.007825032230
         H            3.188789297600     0.810485405362     0.983383672670     1.007825032230
         H            0.841478297600    -2.034255594638    -0.743823327330     1.007825032230
         H           -2.360466702400     2.236548405362     0.202845672670     1.007825032230
         H           -1.237236702400    -2.550292594638    -0.138926327330     1.007825032230
         H           -4.161830702400     0.556962405362     0.381048672670     1.007825032230
         H           -3.593871702400    -1.877801594638     0.176744672670     1.007825032230

  Basis Set: AUG-CC-PVTZ
    Blend: AUG-CC-PVTZ
  Basis Set: (AUG-CC-PVTZ AUX)
    Blend: AUG-CC-PVTZ-JKFIT
	 Reference Energy          =    -514.5833083299005466 [Eh]
	 Singles Energy            =      -0.0000000000000000 [Eh]
	 Same-Spin Energy          =      -0.5574232395506211 [Eh]
	 Opposite-Spin Energy      =      -1.7434182299711323 [Eh]
	 Correlation Energy        =      -2.3008414695217532 [Eh]
	 Total Energy              =    -516.8841497994222891 [Eh]

	 ================> DF-SCS-MP2 Energies <==================
	-----------------------------------------------------------
	 SCS Same-Spin Scale       =       0.3333333333333333 [-]
	 SCS Opposite-Spin Scale   =       1.2000000000000000 [-]
	 SCS Same-Spin Energy      =      -0.1858077465168737 [Eh]
	 SCS Opposite-Spin Energy  =      -2.0921018759653585 [Eh]
	 SCS Correlation Energy    =      -2.2779096224822322 [Eh]
	 SCS Total Energy          =    -516.8612179523827308 [Eh]
	-----------------------------------------------------------

  Dipole Moment: [D]
     X:    -2.6446      Y:     2.0170      Z:     0.0251     Total:     3.3261

*** Psi4 exiting successfully. Buy a developer a beer!
