                               Psi4 1.4a3.dev225

  ==> Input File <==

--------------------------------------------------------------------------
#psi4
#
memory 32 gb

molecule  {
0 1
  O        3.0005300    -1.5493530     0.0754490
  N        0.8317470    -1.1153310    -0.4215630
  C        0.1960040     1.9504030    -0.2395030
  C        1.6857700     1.6448450    -0.3508570
  C       -0.7674710     0.7851500    -0.1025020
  C        2.1481850     0.6250380     0.6971500
  C       -0.4596220    -0.5879500    -0.1790540
  C        2.0355950    -0.7560017     0.1370958
  C       -2.1103850     1.1321340     0.1249900
  C       -1.4919760    -1.5397800    -0.0852490
  C       -3.1313420     0.1920050     0.2149350
  C       -2.8150140    -1.1632860     0.1069400
  H       -0.1141940     2.5504580    -1.1051150
  H        0.0480080     2.5950730     0.6372840
  H        1.9308140     1.2745600    -1.3520490
  H        2.2359360     2.5841340    -0.2253410
  H        1.5370720     0.7103830     1.6057590
  H        3.1934550     0.7649280     0.9813470
  H        0.8461440    -2.0798130    -0.7458600
  H       -2.3558010     2.1909910     0.2008090
  H       -1.2325710    -2.5958500    -0.1409630
  H       -4.1571650     0.5114050     0.3790120
  H       -3.5892060    -1.9233590     0.1747080
units angstrom
no_reorient  #important for SAPT in psi4, default
symmetry c1  #important for SAPT in psi4, default
}

set PROPERTIES_ORIGIN ["COM"]
properties('MP2/aug-cc-pvtz', properties = ['dipole'])
--------------------------------------------------------------------------

    Molecular point group: c1
  Charge       = 0
  Multiplicity = 1
  Basis Set: AUG-CC-PVTZ
    Blend: AUG-CC-PVTZ
  Basis Set: (AUG-CC-PVTZ AUX)
    Blend: AUG-CC-PVTZ-JKFIT

    Orbital Energies [Eh]
    ---------------------

    Doubly Occupied:

       1A    -20.521603     2A    -15.598811     3A    -11.357365
       4A    -11.298120     5A    -11.256348     6A    -11.247362
       7A    -11.245920     8A    -11.245800     9A    -11.245493
      10A    -11.243487    11A    -11.242869    12A    -11.240846
      13A     -1.368528    14A     -1.253575    15A     -1.152767
      16A     -1.103414    17A     -1.040490    18A     -1.017472
      19A     -0.959047    20A     -0.882184    21A     -0.843930
      22A     -0.810412    23A     -0.767698    24A     -0.723090
      25A     -0.681605    26A     -0.671813    27A     -0.646344
      28A     -0.627877    29A     -0.610632    30A     -0.603533
      31A     -0.601663    32A     -0.577886    33A     -0.563047
      34A     -0.542903    35A     -0.517751    36A     -0.510414
      37A     -0.497895    38A     -0.493140    39A     -0.482335
      40A     -0.432667    41A     -0.424431    42A     -0.341453
      43A     -0.317174

  @DF-RHF Final Energy:  -514.59218946748831

   => Energetics <=

    Nuclear Repulsion Energy =            675.1951234927601035
    One-Electron Energy =               -2037.9522386878945781
    Two-Electron Energy =                 848.1649257276461640
    Total Energy =                       -514.5921894674883106
  Basis Set: (AUG-CC-PVTZ AUX)
    Blend: AUG-CC-PVTZ-RI
    Molecular point group: c1

    Geometry (in Angstrom), charge = 0, multiplicity = 1:

       Center              X                  Y                   Z               Mass
    ------------   -----------------  -----------------  -----------------  -----------------
         O            2.991549062543    -1.509779113902     0.077908783425    15.994914619570
         N            0.822766062543    -1.075757113902    -0.419103216575    14.003074004430
         C            0.187023062543     1.989976886098    -0.237043216575    12.000000000000
         C            1.676789062543     1.684418886098    -0.348397216575    12.000000000000
         C           -0.776451937457     0.824723886098    -0.100042216575    12.000000000000
         C            2.139204062543     0.664611886098     0.699609783425    12.000000000000
         C           -0.468602937457    -0.548376113902    -0.176594216575    12.000000000000
         C            2.026614062543    -0.716427813902     0.139555583425    12.000000000000
         C           -2.119365937457     1.171707886098     0.127449783425    12.000000000000
         C           -1.500956937457    -1.500206113902    -0.082789216575    12.000000000000
         C           -3.140322937457     0.231578886098     0.217394783425    12.000000000000
         C           -2.823994937457    -1.123712113902     0.109399783425    12.000000000000
         H           -0.123174937457     2.590031886098    -1.102655216575     1.007825032230
         H            0.039027062543     2.634646886098     0.639743783425     1.007825032230
         H            1.921833062543     1.314133886098    -1.349589216575     1.007825032230
         H            2.226955062543     2.623707886098    -0.222881216575     1.007825032230
         H            1.528091062543     0.749956886098     1.608218783425     1.007825032230
         H            3.184474062543     0.804501886098     0.983806783425     1.007825032230
         H            0.837163062543    -2.040239113902    -0.743400216575     1.007825032230
         H           -2.364781937457     2.230564886098     0.203268783425     1.007825032230
         H           -1.241551937457    -2.556276113902    -0.138503216575     1.007825032230
         H           -4.166145937457     0.550978886098     0.381471783425     1.007825032230
         H           -3.598186937457    -1.883785113902     0.177167783425     1.007825032230

  Basis Set: AUG-CC-PVTZ
    Blend: AUG-CC-PVTZ
  Basis Set: (AUG-CC-PVTZ AUX)
    Blend: AUG-CC-PVTZ-JKFIT
	 Reference Energy          =    -514.5921894674883106 [Eh]
	 Singles Energy            =      -0.0000000000000000 [Eh]
	 Same-Spin Energy          =      -0.5583438059277146 [Eh]
	 Opposite-Spin Energy      =      -1.7439229533788474 [Eh]
	 Correlation Energy        =      -2.3022667593065620 [Eh]
	 Total Energy              =    -516.8944562267948868 [Eh]

	 ================> DF-SCS-MP2 Energies <==================
	-----------------------------------------------------------
	 SCS Same-Spin Scale       =       0.3333333333333333 [-]
	 SCS Opposite-Spin Scale   =       1.2000000000000000 [-]
	 SCS Same-Spin Energy      =      -0.1861146019759048 [Eh]
	 SCS Opposite-Spin Energy  =      -2.0927075440546168 [Eh]
	 SCS Correlation Energy    =      -2.2788221460305218 [Eh]
	 SCS Total Energy          =    -516.8710116135188173 [Eh]
	-----------------------------------------------------------

  Dipole Moment: [D]
     X:    -2.9071      Y:     2.1445      Z:     0.0225     Total:     3.6126

*** Psi4 exiting successfully. Buy a developer a beer!
