                               Psi4 1.3.2 release

  ==> Input File <==

--------------------------------------------------------------------------
#psi4
#
memory 32 gb

molecule  {
0 1
  O        3.0005300    -1.5493530     0.0754490
  N        0.8317470    -1.1153310    -0.4215630
  C        0.1960040     1.9504030    -0.2395030
  C        1.6857700     1.6448450    -0.3508570
  C       -0.7674710     0.7851500    -0.1025020
  C        2.1481850     0.6250380     0.6971500
  C       -0.4596220    -0.5879500    -0.1790540
  C        2.0510250    -0.7686880     0.1361100
  C       -2.0148413     1.1074473     0.1088047
  C       -1.4919760    -1.5397800    -0.0852490
  C       -3.1313420     0.1920050     0.2149350
  C       -2.8150140    -1.1632860     0.1069400
  H       -0.1141940     2.5504580    -1.1051150
  H        0.0480080     2.5950730     0.6372840
  H        1.9308140     1.2745600    -1.3520490
  H        2.2359360     2.5841340    -0.2253410
  H        1.5370720     0.7103830     1.6057590
  H        3.1934550     0.7649280     0.9813470
  H        0.8461440    -2.0798130    -0.7458600
  H       -2.3558010     2.1909910     0.2008090
  H       -1.2325710    -2.5958500    -0.1409630
  H       -4.1571650     0.5114050     0.3790120
  H       -3.5892060    -1.9233590     0.1747080
units angstrom
no_reorient  #important for SAPT in psi4, default
symmetry c1  #important for SAPT in psi4, default
}

set PROPERTIES_ORIGIN ["COM"]
properties('MP2/aug-cc-pvtz', properties = ['dipole'])
--------------------------------------------------------------------------

    Molecular point group: c1
  Charge       = 0
  Multiplicity = 1
  Basis Set: AUG-CC-PVTZ
    Blend: AUG-CC-PVTZ
  Basis Set: (AUG-CC-PVTZ AUX)
    Blend: AUG-CC-PVTZ-JKFIT

    Orbital Energies [Eh]
    ---------------------

    Doubly Occupied:

       1A    -20.526453     2A    -15.597224     3A    -11.357630
       4A    -11.299593     5A    -11.245916     6A    -11.245248
       7A    -11.244397     8A    -11.244041     9A    -11.243357
      10A    -11.242770    11A    -11.242194    12A    -11.242080
      13A     -1.380820    14A     -1.254685    15A     -1.158942
      16A     -1.102746    17A     -1.046560    18A     -1.008638
      19A     -0.960518    20A     -0.878349    21A     -0.842655
      22A     -0.811335    23A     -0.768218    24A     -0.719020
      25A     -0.682608    26A     -0.670990    27A     -0.645800
      28A     -0.631570    29A     -0.611786    30A     -0.603107
      31A     -0.593634    32A     -0.581099    33A     -0.565780
      34A     -0.544455    35A     -0.519388    36A     -0.509754
      37A     -0.500071    38A     -0.491948    39A     -0.474093
      40A     -0.433700    41A     -0.426629    42A     -0.352438
      43A     -0.310682

  @DF-RHF Final Energy:  -514.58071564080717

   => Energetics <=

    Nuclear Repulsion Energy =            676.6935061529322866
    One-Electron Energy =               -2040.9226060288201552
    Two-Electron Energy =                 849.6483842350806981
    Total Energy =                       -514.5807156408071705
  Basis Set: (AUG-CC-PVTZ AUX)
    Blend: AUG-CC-PVTZ-RI
    Molecular point group: c1

    Geometry (in Angstrom), charge = 0, multiplicity = 1:

       Center              X                  Y                   Z               Mass
    ------------   -----------------  -----------------  -----------------  -----------------
         O            2.983282047377    -1.506995002371     0.079187949066    15.994914619570
         N            0.814499047377    -1.072973002371    -0.417824050934    14.003074004430
         C            0.178756047377     1.992760997629    -0.235764050934    12.000000000000
         C            1.668522047377     1.687202997629    -0.347118050934    12.000000000000
         C           -0.784718952623     0.827507997629    -0.098763050934    12.000000000000
         C            2.130937047377     0.667395997629     0.700888949066    12.000000000000
         C           -0.476869952623    -0.545592002371    -0.175315050934    12.000000000000
         C            2.033777047377    -0.726330002371     0.139848949066    12.000000000000
         C           -2.032089252623     1.149805297629     0.112543649066    12.000000000000
         C           -1.509223952623    -1.497422002371    -0.081510050934    12.000000000000
         C           -3.148589952623     0.234362997629     0.218673949066    12.000000000000
         C           -2.832261952623    -1.120928002371     0.110678949066    12.000000000000
         H           -0.131441952623     2.592815997629    -1.101376050934     1.007825032230
         H            0.030760047377     2.637430997629     0.641022949066     1.007825032230
         H            1.913566047377     1.316917997629    -1.348310050934     1.007825032230
         H            2.218688047377     2.626491997629    -0.221602050934     1.007825032230
         H            1.519824047377     0.752740997629     1.609497949066     1.007825032230
         H            3.176207047377     0.807285997629     0.985085949066     1.007825032230
         H            0.828896047377    -2.037455002371    -0.742121050934     1.007825032230
         H           -2.373048952623     2.233348997629     0.204547949066     1.007825032230
         H           -1.249818952623    -2.553492002371    -0.137224050934     1.007825032230
         H           -4.174412952623     0.553762997629     0.382750949066     1.007825032230
         H           -3.606453952623    -1.881001002371     0.178446949066     1.007825032230

  Basis Set: AUG-CC-PVTZ
    Blend: AUG-CC-PVTZ
  Basis Set: (AUG-CC-PVTZ AUX)
    Blend: AUG-CC-PVTZ-JKFIT
	 Reference Energy          =    -514.5807156408071705 [Eh]
	 Singles Energy            =      -0.0000000000000000 [Eh]
	 Same-Spin Energy          =      -0.5580538356647001 [Eh]
	 Opposite-Spin Energy      =      -1.7436909747144642 [Eh]
	 Correlation Energy        =      -2.3017448103791645 [Eh]
	 Total Energy              =    -516.8824604511863754 [Eh]

	 ================> DF-SCS-MP2 Energies <==================
	-----------------------------------------------------------
	 SCS Same-Spin Scale       =       0.3333333333333333 [-]
	 SCS Opposite-Spin Scale   =       1.2000000000000000 [-]
	 SCS Same-Spin Energy      =      -0.1860179452215667 [Eh]
	 SCS Opposite-Spin Energy  =      -2.0924291696573571 [Eh]
	 SCS Correlation Energy    =      -2.2784471148789240 [Eh]
	 SCS Total Energy          =    -516.8591627556860431 [Eh]
	-----------------------------------------------------------

  Dipole Moment: [D]
     X:    -2.7258      Y:     2.0164      Z:     0.0354     Total:     3.3907

*** Psi4 exiting successfully. Buy a developer a beer!
