                               Psi4 1.3.2 release

  ==> Input File <==

--------------------------------------------------------------------------
#psi4
#
memory 32 gb

molecule  {
0 1
  O        3.0005300    -1.5493530     0.0754490
  N        0.8317470    -1.1153310    -0.4215630
  C        0.1960040     1.9504030    -0.2395030
  C        1.7834692     1.6248064    -0.3581596
  C       -0.7674710     0.7851500    -0.1025020
  C        2.1481850     0.6250380     0.6971500
  C       -0.4596220    -0.5879500    -0.1790540
  C        2.0510250    -0.7686880     0.1361100
  C       -2.1103850     1.1321340     0.1249900
  C       -1.4919760    -1.5397800    -0.0852490
  C       -3.1313420     0.1920050     0.2149350
  C       -2.8150140    -1.1632860     0.1069400
  H       -0.1141940     2.5504580    -1.1051150
  H        0.0480080     2.5950730     0.6372840
  H        1.9308140     1.2745600    -1.3520490
  H        2.2359360     2.5841340    -0.2253410
  H        1.5370720     0.7103830     1.6057590
  H        3.1934550     0.7649280     0.9813470
  H        0.8461440    -2.0798130    -0.7458600
  H       -2.3558010     2.1909910     0.2008090
  H       -1.2325710    -2.5958500    -0.1409630
  H       -4.1571650     0.5114050     0.3790120
  H       -3.5892060    -1.9233590     0.1747080
units angstrom
no_reorient  #important for SAPT in psi4, default
symmetry c1  #important for SAPT in psi4, default
}

set PROPERTIES_ORIGIN ["COM"]
properties('MP2/aug-cc-pvtz', properties = ['dipole'])
--------------------------------------------------------------------------

    Molecular point group: c1
  Charge       = 0
  Multiplicity = 1
  Basis Set: AUG-CC-PVTZ
    Blend: AUG-CC-PVTZ
  Basis Set: (AUG-CC-PVTZ AUX)
    Blend: AUG-CC-PVTZ-JKFIT

    Orbital Energies [Eh]
    ---------------------

    Doubly Occupied:

       1A    -20.526066     2A    -15.596585     3A    -11.357646
       4A    -11.296714     5A    -11.254951     6A    -11.247342
       7A    -11.246000     8A    -11.244472     9A    -11.244131
      10A    -11.241932    11A    -11.240938    12A    -11.239527
      13A     -1.380549    14A     -1.253009    15A     -1.150670
      16A     -1.097666    17A     -1.041281    18A     -1.015290
      19A     -0.948982    20A     -0.883750    21A     -0.842409
      22A     -0.812041    23A     -0.765388    24A     -0.722014
      25A     -0.681626    26A     -0.669634    27A     -0.647446
      28A     -0.628825    29A     -0.606992    30A     -0.604660
      31A     -0.600446    32A     -0.577056    33A     -0.566054
      34A     -0.546794    35A     -0.521662    36A     -0.517517
      37A     -0.499346    38A     -0.492424    39A     -0.464287
      40A     -0.435553    41A     -0.425318    42A     -0.340074
      43A     -0.315759

  @DF-RHF Final Energy:  -514.58633875701446

   => Energetics <=

    Nuclear Repulsion Energy =            674.1873919577665220
    One-Electron Energy =               -2035.9658054168330636
    Two-Electron Energy =                 847.1920747020520821
    Total Energy =                       -514.5863387570144596
  Basis Set: (AUG-CC-PVTZ AUX)
    Blend: AUG-CC-PVTZ-RI
    Molecular point group: c1

    Geometry (in Angstrom), charge = 0, multiplicity = 1:

       Center              X                  Y                   Z               Mass
    ------------   -----------------  -----------------  -----------------  -----------------
         O            2.983121472833    -1.507341263811     0.078526229978    15.994914619570
         N            0.814338472833    -1.073319263811    -0.418485770022    14.003074004430
         C            0.178595472833     1.992414736189    -0.236425770022    12.000000000000
         C            1.766060672833     1.666818136189    -0.355082370022    12.000000000000
         C           -0.784879527167     0.827161736189    -0.099424770022    12.000000000000
         C            2.130776472833     0.667049736189     0.700227229978    12.000000000000
         C           -0.477030527167    -0.545938263811    -0.175976770022    12.000000000000
         C            2.033616472833    -0.726676263811     0.139187229978    12.000000000000
         C           -2.127793527167     1.174145736189     0.128067229978    12.000000000000
         C           -1.509384527167    -1.497768263811    -0.082171770022    12.000000000000
         C           -3.148750527167     0.234016736189     0.218012229978    12.000000000000
         C           -2.832422527167    -1.121274263811     0.110017229978    12.000000000000
         H           -0.131602527167     2.592469736189    -1.102037770022     1.007825032230
         H            0.030599472833     2.637084736189     0.640361229978     1.007825032230
         H            1.913405472833     1.316571736189    -1.348971770022     1.007825032230
         H            2.218527472833     2.626145736189    -0.222263770022     1.007825032230
         H            1.519663472833     0.752394736189     1.608836229978     1.007825032230
         H            3.176046472833     0.806939736189     0.984424229978     1.007825032230
         H            0.828735472833    -2.037801263811    -0.742782770022     1.007825032230
         H           -2.373209527167     2.233002736189     0.203886229978     1.007825032230
         H           -1.249979527167    -2.553838263811    -0.137885770022     1.007825032230
         H           -4.174573527167     0.553416736189     0.382089229978     1.007825032230
         H           -3.606614527167    -1.881347263811     0.177785229978     1.007825032230

  Basis Set: AUG-CC-PVTZ
    Blend: AUG-CC-PVTZ
  Basis Set: (AUG-CC-PVTZ AUX)
    Blend: AUG-CC-PVTZ-JKFIT
	 Reference Energy          =    -514.5863387570144596 [Eh]
	 Singles Energy            =      -0.0000000000000000 [Eh]
	 Same-Spin Energy          =      -0.5578626216686420 [Eh]
	 Opposite-Spin Energy      =      -1.7434416539042519 [Eh]
	 Correlation Energy        =      -2.3013042755728939 [Eh]
	 Total Energy              =    -516.8876430325873343 [Eh]

	 ================> DF-SCS-MP2 Energies <==================
	-----------------------------------------------------------
	 SCS Same-Spin Scale       =       0.3333333333333333 [-]
	 SCS Opposite-Spin Scale   =       1.2000000000000000 [-]
	 SCS Same-Spin Energy      =      -0.1859542072228806 [Eh]
	 SCS Opposite-Spin Energy  =      -2.0921299846851023 [Eh]
	 SCS Correlation Energy    =      -2.2780841919079831 [Eh]
	 SCS Total Energy          =    -516.8644229489224244 [Eh]
	-----------------------------------------------------------

  Dipole Moment: [D]
     X:    -2.7030      Y:     2.0425      Z:     0.0334     Total:     3.3881

*** Psi4 exiting successfully. Buy a developer a beer!
