                               Psi4 1.3.2 release

  ==> Input File <==

--------------------------------------------------------------------------
#psi4
#
memory 32 gb

molecule  {
0 1
  O        3.0005300    -1.5493530     0.0754490
  N        0.8317470    -1.1153310    -0.4215630
  C        0.1960040     1.9504030    -0.2395030
  C        1.6857700     1.6448450    -0.3508570
  C       -0.7382297     0.9293361    -0.1022354
  C        2.1481850     0.6250380     0.6971500
  C       -0.4596220    -0.5879500    -0.1790540
  C        2.0510250    -0.7686880     0.1361100
  C       -2.1103850     1.1321340     0.1249900
  C       -1.4919760    -1.5397800    -0.0852490
  C       -3.1313420     0.1920050     0.2149350
  C       -2.8150140    -1.1632860     0.1069400
  H       -0.1141940     2.5504580    -1.1051150
  H        0.0480080     2.5950730     0.6372840
  H        1.9308140     1.2745600    -1.3520490
  H        2.2359360     2.5841340    -0.2253410
  H        1.5370720     0.7103830     1.6057590
  H        3.1934550     0.7649280     0.9813470
  H        0.8461440    -2.0798130    -0.7458600
  H       -2.3558010     2.1909910     0.2008090
  H       -1.2325710    -2.5958500    -0.1409630
  H       -4.1571650     0.5114050     0.3790120
  H       -3.5892060    -1.9233590     0.1747080
units angstrom
no_reorient  #important for SAPT in psi4, default
symmetry c1  #important for SAPT in psi4, default
}

set PROPERTIES_ORIGIN ["COM"]
properties('MP2/aug-cc-pvtz', properties = ['dipole'])
--------------------------------------------------------------------------

    Molecular point group: c1
  Charge       = 0
  Multiplicity = 1
  Basis Set: AUG-CC-PVTZ
    Blend: AUG-CC-PVTZ
  Basis Set: (AUG-CC-PVTZ AUX)
    Blend: AUG-CC-PVTZ-JKFIT

    Orbital Energies [Eh]
    ---------------------

    Doubly Occupied:

       1A    -20.526469     2A    -15.596507     3A    -11.357631
       4A    -11.308839     5A    -11.265318     6A    -11.247172
       7A    -11.245964     8A    -11.244751     9A    -11.244056
      10A    -11.242635    11A    -11.240175    12A    -11.238904
      13A     -1.380717    14A     -1.250314    15A     -1.149599
      16A     -1.113288    17A     -1.045628    18A     -1.012963
      19A     -0.953736    20A     -0.891657    21A     -0.833871
      22A     -0.804849    23A     -0.767818    24A     -0.717412
      25A     -0.684683    26A     -0.676904    27A     -0.651859
      28A     -0.625546    29A     -0.614569    30A     -0.605600
      31A     -0.597917    32A     -0.585186    33A     -0.564536
      34A     -0.544666    35A     -0.519137    36A     -0.512770
      37A     -0.503259    38A     -0.491213    39A     -0.475627
      40A     -0.434498    41A     -0.426464    42A     -0.340227
      43A     -0.301462

  @DF-RHF Final Energy:  -514.56421351815288

   => Energetics <=

    Nuclear Repulsion Energy =            674.0696693677308531
    One-Electron Energy =               -2035.5949732656413289
    Two-Electron Energy =                 846.9610903797574792
    Total Energy =                       -514.5642135181528829
  Basis Set: (AUG-CC-PVTZ AUX)
    Blend: AUG-CC-PVTZ-RI
    Molecular point group: c1

    Geometry (in Angstrom), charge = 0, multiplicity = 1:

       Center              X                  Y                   Z               Mass
    ------------   -----------------  -----------------  -----------------  -----------------
         O            2.988221262221    -1.519575226323     0.077962360420    15.994914619570
         N            0.819438262221    -1.085553226323    -0.419049639580    14.003074004430
         C            0.183695262221     1.980180773677    -0.236989639580    12.000000000000
         C            1.673461262221     1.674622773677    -0.348343639580    12.000000000000
         C           -0.750538437779     0.959113873677    -0.099722039580    12.000000000000
         C            2.135876262221     0.654815773677     0.699663360420    12.000000000000
         C           -0.471930737779    -0.558172226323    -0.176540639580    12.000000000000
         C            2.038716262221    -0.738910226323     0.138623360420    12.000000000000
         C           -2.122693737779     1.161911773677     0.127503360420    12.000000000000
         C           -1.504284737779    -1.510002226323    -0.082735639580    12.000000000000
         C           -3.143650737779     0.221782773677     0.217448360420    12.000000000000
         C           -2.827322737779    -1.133508226323     0.109453360420    12.000000000000
         H           -0.126502737779     2.580235773677    -1.102601639580     1.007825032230
         H            0.035699262221     2.624850773677     0.639797360420     1.007825032230
         H            1.918505262221     1.304337773677    -1.349535639580     1.007825032230
         H            2.223627262221     2.613911773677    -0.222827639580     1.007825032230
         H            1.524763262221     0.740160773677     1.608272360420     1.007825032230
         H            3.181146262221     0.794705773677     0.983860360420     1.007825032230
         H            0.833835262221    -2.050035226323    -0.743346639580     1.007825032230
         H           -2.368109737779     2.220768773677     0.203322360420     1.007825032230
         H           -1.244879737779    -2.566072226323    -0.138449639580     1.007825032230
         H           -4.169473737779     0.541182773677     0.381525360420     1.007825032230
         H           -3.601514737779    -1.893581226323     0.177221360420     1.007825032230

  Basis Set: AUG-CC-PVTZ
    Blend: AUG-CC-PVTZ
  Basis Set: (AUG-CC-PVTZ AUX)
    Blend: AUG-CC-PVTZ-JKFIT
	 Reference Energy          =    -514.5642135181528829 [Eh]
	 Singles Energy            =      -0.0000000000000000 [Eh]
	 Same-Spin Energy          =      -0.5601870666436726 [Eh]
	 Opposite-Spin Energy      =      -1.7467907771105213 [Eh]
	 Correlation Energy        =      -2.3069778437541939 [Eh]
	 Total Energy              =    -516.8711913619071083 [Eh]

	 ================> DF-SCS-MP2 Energies <==================
	-----------------------------------------------------------
	 SCS Same-Spin Scale       =       0.3333333333333333 [-]
	 SCS Opposite-Spin Scale   =       1.2000000000000000 [-]
	 SCS Same-Spin Energy      =      -0.1867290222145575 [Eh]
	 SCS Opposite-Spin Energy  =      -2.0961489325326257 [Eh]
	 SCS Correlation Energy    =      -2.2828779547471831 [Eh]
	 SCS Total Energy          =    -516.8470914729000469 [Eh]
	-----------------------------------------------------------

  Dipole Moment: [D]
     X:    -2.5031      Y:     2.1699      Z:    -0.0039     Total:     3.3127

*** Psi4 exiting successfully. Buy a developer a beer!
