                               Psi4 1.3.2 release

  ==> Input File <==

--------------------------------------------------------------------------
#psi4
#
memory 32 gb

molecule  {
0 1
  O        3.0005300    -1.5493530     0.0754490
  N        0.8317470    -1.1153310    -0.4215630
  C        0.1960040     1.9504030    -0.2395030
  C        1.6857700     1.6448450    -0.3508570
  C       -0.7674710     0.7851500    -0.1025020
  C        2.1481850     0.6250380     0.6971500
  C       -0.5638615    -0.4848700    -0.1646391
  C        2.0510250    -0.7686880     0.1361100
  C       -2.1103850     1.1321340     0.1249900
  C       -1.4919760    -1.5397800    -0.0852490
  C       -3.1313420     0.1920050     0.2149350
  C       -2.8150140    -1.1632860     0.1069400
  H       -0.1141940     2.5504580    -1.1051150
  H        0.0480080     2.5950730     0.6372840
  H        1.9308140     1.2745600    -1.3520490
  H        2.2359360     2.5841340    -0.2253410
  H        1.5370720     0.7103830     1.6057590
  H        3.1934550     0.7649280     0.9813470
  H        0.8461440    -2.0798130    -0.7458600
  H       -2.3558010     2.1909910     0.2008090
  H       -1.2325710    -2.5958500    -0.1409630
  H       -4.1571650     0.5114050     0.3790120
  H       -3.5892060    -1.9233590     0.1747080
units angstrom
no_reorient  #important for SAPT in psi4, default
symmetry c1  #important for SAPT in psi4, default
}

set PROPERTIES_ORIGIN ["COM"]
properties('MP2/aug-cc-pvtz', properties = ['dipole'])
--------------------------------------------------------------------------

    Molecular point group: c1
  Charge       = 0
  Multiplicity = 1
  Basis Set: AUG-CC-PVTZ
    Blend: AUG-CC-PVTZ
  Basis Set: (AUG-CC-PVTZ AUX)
    Blend: AUG-CC-PVTZ-JKFIT

    Orbital Energies [Eh]
    ---------------------

    Doubly Occupied:

       1A    -20.514404     2A    -15.583759     3A    -11.345741
       4A    -11.293315     5A    -11.251449     6A    -11.250926
       7A    -11.249990     8A    -11.249788     9A    -11.246488
      10A    -11.244956    11A    -11.241072    12A    -11.238170
      13A     -1.367938    14A     -1.227570    15A     -1.161021
      16A     -1.101549    17A     -1.049151    18A     -1.017849
      19A     -0.964197    20A     -0.872013    21A     -0.855506
      22A     -0.803113    23A     -0.758518    24A     -0.712816
      25A     -0.677396    26A     -0.665341    27A     -0.644101
      28A     -0.636089    29A     -0.608650    30A     -0.602781
      31A     -0.596697    32A     -0.575818    33A     -0.561991
      34A     -0.540905    35A     -0.523307    36A     -0.509996
      37A     -0.501353    38A     -0.493651    39A     -0.480346
      40A     -0.421186    41A     -0.414152    42A     -0.349541
      43A     -0.332494

  @DF-RHF Final Energy:  -514.57000843915705

   => Energetics <=

    Nuclear Repulsion Energy =            675.5517886833586090
    One-Electron Energy =               -2038.7694024348497805
    Two-Electron Energy =                 848.6476053123341217
    Total Energy =                       -514.5700084391570499
  Basis Set: (AUG-CC-PVTZ AUX)
    Blend: AUG-CC-PVTZ-RI
    Molecular point group: c1

    Geometry (in Angstrom), charge = 0, multiplicity = 1:

       Center              X                  Y                   Z               Mass
    ------------   -----------------  -----------------  -----------------  -----------------
         O            2.998164949762    -1.516513016519     0.076908379065    15.994914619570
         N            0.829381949762    -1.082491016519    -0.420103620935    14.003074004430
         C            0.193638949762     1.983242983481    -0.238043620935    12.000000000000
         C            1.683404949762     1.677684983481    -0.349397620935    12.000000000000
         C           -0.769836050238     0.817989983481    -0.101042620935    12.000000000000
         C            2.145819949762     0.657877983481     0.698609379065    12.000000000000
         C           -0.566226550238    -0.452030016519    -0.163179720935    12.000000000000
         C            2.048659949762    -0.735848016519     0.137569379065    12.000000000000
         C           -2.112750050238     1.164973983481     0.126449379065    12.000000000000
         C           -1.494341050238    -1.506940016519    -0.083789620935    12.000000000000
         C           -3.133707050238     0.224844983481     0.216394379065    12.000000000000
         C           -2.817379050238    -1.130446016519     0.108399379065    12.000000000000
         H           -0.116559050238     2.583297983481    -1.103655620935     1.007825032230
         H            0.045642949762     2.627912983481     0.638743379065     1.007825032230
         H            1.928448949762     1.307399983481    -1.350589620935     1.007825032230
         H            2.233570949762     2.616973983481    -0.223881620935     1.007825032230
         H            1.534706949762     0.743222983481     1.607218379065     1.007825032230
         H            3.191089949762     0.797767983481     0.982806379065     1.007825032230
         H            0.843778949762    -2.046973016519    -0.744400620935     1.007825032230
         H           -2.358166050238     2.223830983481     0.202268379065     1.007825032230
         H           -1.234936050238    -2.563010016519    -0.139503620935     1.007825032230
         H           -4.159530050238     0.544244983481     0.380471379065     1.007825032230
         H           -3.591571050238    -1.890519016519     0.176167379065     1.007825032230

  Basis Set: AUG-CC-PVTZ
    Blend: AUG-CC-PVTZ
  Basis Set: (AUG-CC-PVTZ AUX)
    Blend: AUG-CC-PVTZ-JKFIT
	 Reference Energy          =    -514.5700084391570499 [Eh]
	 Singles Energy            =      -0.0000000000000000 [Eh]
	 Same-Spin Energy          =      -0.5570133921474462 [Eh]
	 Opposite-Spin Energy      =      -1.7430452388361739 [Eh]
	 Correlation Energy        =      -2.3000586309836200 [Eh]
	 Total Energy              =    -516.8700670701406352 [Eh]

	 ================> DF-SCS-MP2 Energies <==================
	-----------------------------------------------------------
	 SCS Same-Spin Scale       =       0.3333333333333333 [-]
	 SCS Opposite-Spin Scale   =       1.2000000000000000 [-]
	 SCS Same-Spin Energy      =      -0.1856711307158154 [Eh]
	 SCS Opposite-Spin Energy  =      -2.0916542866034087 [Eh]
	 SCS Correlation Energy    =      -2.2773254173192239 [Eh]
	 SCS Total Energy          =    -516.8473338564763253 [Eh]
	-----------------------------------------------------------

  Dipole Moment: [D]
     X:    -3.5085      Y:     2.2758      Z:     0.0793     Total:     4.1827

*** Psi4 exiting successfully. Buy a developer a beer!
