                               Psi4 1.4a3.dev225

  ==> Input File <==

--------------------------------------------------------------------------
#psi4
#
memory 32 gb

molecule  {
0 1
  O        3.0005300    -1.5493530     0.0754490
  N        0.8317470    -1.1153310    -0.4215630
  C        0.1960040     1.9504030    -0.2395030
  C        1.6857700     1.6448450    -0.3508570
  C       -0.7674710     0.7851500    -0.1025020
  C        2.1481850     0.6250380     0.6971500
  C       -0.4596220    -0.5879500    -0.1790540
  C        2.0664550    -0.7813743     0.1351242
  C       -2.1103850     1.1321340     0.1249900
  C       -1.4919760    -1.5397800    -0.0852490
  C       -3.1313420     0.1920050     0.2149350
  C       -2.8150140    -1.1632860     0.1069400
  H       -0.1141940     2.5504580    -1.1051150
  H        0.0480080     2.5950730     0.6372840
  H        1.9308140     1.2745600    -1.3520490
  H        2.2359360     2.5841340    -0.2253410
  H        1.5370720     0.7103830     1.6057590
  H        3.1934550     0.7649280     0.9813470
  H        0.8461440    -2.0798130    -0.7458600
  H       -2.3558010     2.1909910     0.2008090
  H       -1.2325710    -2.5958500    -0.1409630
  H       -4.1571650     0.5114050     0.3790120
  H       -3.5892060    -1.9233590     0.1747080
units angstrom
no_reorient  #important for SAPT in psi4, default
symmetry c1  #important for SAPT in psi4, default
}

set PROPERTIES_ORIGIN ["COM"]
properties('MP2/aug-cc-pvtz', properties = ['dipole'])
--------------------------------------------------------------------------

    Molecular point group: c1
  Charge       = 0
  Multiplicity = 1
  Basis Set: AUG-CC-PVTZ
    Blend: AUG-CC-PVTZ
  Basis Set: (AUG-CC-PVTZ AUX)
    Blend: AUG-CC-PVTZ-JKFIT

    Orbital Energies [Eh]
    ---------------------

    Doubly Occupied:

       1A    -20.529663     2A    -15.593415     3A    -11.356517
       4A    -11.296481     5A    -11.254060     6A    -11.245583
       7A    -11.244166     8A    -11.244115     9A    -11.243397
      10A    -11.242292    11A    -11.241404    12A    -11.238861
      13A     -1.392929    14A     -1.251722    15A     -1.150219
      16A     -1.100227    17A     -1.037347    18A     -1.014740
      19A     -0.955287    20A     -0.878719    21A     -0.841738
      22A     -0.807177    23A     -0.763597    24A     -0.720464
      25A     -0.682129    26A     -0.670142    27A     -0.646428
      28A     -0.630460    29A     -0.611798    30A     -0.603090
      31A     -0.600064    32A     -0.579868    33A     -0.565969
      34A     -0.541385    35A     -0.517437    36A     -0.511572
      37A     -0.498681    38A     -0.490551    39A     -0.483102
      40A     -0.437367    41A     -0.426734    42A     -0.339654
      43A     -0.314777

  @DF-RHF Final Energy:  -514.59527463958261

   => Energetics <=

    Nuclear Repulsion Energy =            674.9443953241994905
    One-Electron Energy =               -2037.4886868071214394
    Two-Electron Energy =                 847.9490168433392228
    Total Energy =                       -514.5952746395826125
  Basis Set: (AUG-CC-PVTZ AUX)
    Blend: AUG-CC-PVTZ-RI
    Molecular point group: c1

    Geometry (in Angstrom), charge = 0, multiplicity = 1:

       Center              X                  Y                   Z               Mass
    ------------   -----------------  -----------------  -----------------  -----------------
         O            2.989250138672    -1.507888975346     0.078055658289    15.994914619570
         N            0.820467138672    -1.073866975346    -0.418956341711    14.003074004430
         C            0.184724138672     1.991867024654    -0.236896341711    12.000000000000
         C            1.674490138672     1.686309024654    -0.348250341711    12.000000000000
         C           -0.778750861328     0.826614024654    -0.099895341711    12.000000000000
         C            2.136905138672     0.666502024654     0.699756658289    12.000000000000
         C           -0.470901861328    -0.546485975346    -0.176447341711    12.000000000000
         C            2.055175138672    -0.739910275346     0.137730858289    12.000000000000
         C           -2.121664861328     1.173598024654     0.127596658289    12.000000000000
         C           -1.503255861328    -1.498315975346    -0.082642341711    12.000000000000
         C           -3.142621861328     0.233469024654     0.217541658289    12.000000000000
         C           -2.826293861328    -1.121821975346     0.109546658289    12.000000000000
         H           -0.125473861328     2.591922024654    -1.102508341711     1.007825032230
         H            0.036728138672     2.636537024654     0.639890658289     1.007825032230
         H            1.919534138672     1.316024024654    -1.349442341711     1.007825032230
         H            2.224656138672     2.625598024654    -0.222734341711     1.007825032230
         H            1.525792138672     0.751847024654     1.608365658289     1.007825032230
         H            3.182175138672     0.806392024654     0.983953658289     1.007825032230
         H            0.834864138672    -2.038348975346    -0.743253341711     1.007825032230
         H           -2.367080861328     2.232455024654     0.203415658289     1.007825032230
         H           -1.243850861328    -2.554385975346    -0.138356341711     1.007825032230
         H           -4.168444861328     0.552869024654     0.381618658289     1.007825032230
         H           -3.600485861328    -1.881894975346     0.177314658289     1.007825032230

  Basis Set: AUG-CC-PVTZ
    Blend: AUG-CC-PVTZ
  Basis Set: (AUG-CC-PVTZ AUX)
    Blend: AUG-CC-PVTZ-JKFIT
	 Reference Energy          =    -514.5952746395826125 [Eh]
	 Singles Energy            =      -0.0000000000000000 [Eh]
	 Same-Spin Energy          =      -0.5574261804005942 [Eh]
	 Opposite-Spin Energy      =      -1.7421977604653733 [Eh]
	 Correlation Energy        =      -2.2996239408659678 [Eh]
	 Total Energy              =    -516.8948985804486256 [Eh]

	 ================> DF-SCS-MP2 Energies <==================
	-----------------------------------------------------------
	 SCS Same-Spin Scale       =       0.3333333333333333 [-]
	 SCS Opposite-Spin Scale   =       1.2000000000000000 [-]
	 SCS Same-Spin Energy      =      -0.1858087268001981 [Eh]
	 SCS Opposite-Spin Energy  =      -2.0906373125584481 [Eh]
	 SCS Correlation Energy    =      -2.2764460393586461 [Eh]
	 SCS Total Energy          =    -516.8717206789413012 [Eh]
	-----------------------------------------------------------

  Dipole Moment: [D]
     X:    -2.5700      Y:     1.9761      Z:     0.0467     Total:     3.2422

*** Psi4 exiting successfully. Buy a developer a beer!
