                               Psi4 1.3.2 release

  ==> Input File <==

--------------------------------------------------------------------------
#psi4
#
memory 32 gb

molecule  {
0 1
  O        3.0005300    -1.5493530     0.0754490
  N        0.8317470    -1.1153310    -0.4215630
  C        0.2017971     1.9760951    -0.2356787
  C        1.6857700     1.6448450    -0.3508570
  C       -0.7674710     0.7851500    -0.1025020
  C        2.1481850     0.6250380     0.6971500
  C       -0.4596220    -0.5879500    -0.1790540
  C        2.0510250    -0.7686880     0.1361100
  C       -2.1103850     1.1321340     0.1249900
  C       -1.4919760    -1.5397800    -0.0852490
  C       -3.1313420     0.1920050     0.2149350
  C       -2.8150140    -1.1632860     0.1069400
  H       -0.1141940     2.5504580    -1.1051150
  H        0.0480080     2.5950730     0.6372840
  H        1.9308140     1.2745600    -1.3520490
  H        2.2359360     2.5841340    -0.2253410
  H        1.5370720     0.7103830     1.6057590
  H        3.1934550     0.7649280     0.9813470
  H        0.8461440    -2.0798130    -0.7458600
  H       -2.3558010     2.1909910     0.2008090
  H       -1.2325710    -2.5958500    -0.1409630
  H       -4.1571650     0.5114050     0.3790120
  H       -3.5892060    -1.9233590     0.1747080
units angstrom
no_reorient  #important for SAPT in psi4, default
symmetry c1  #important for SAPT in psi4, default
}

set PROPERTIES_ORIGIN ["COM"]
properties('MP2/aug-cc-pvtz', properties = ['dipole'])
--------------------------------------------------------------------------

    Molecular point group: c1
  Charge       = 0
  Multiplicity = 1
  Basis Set: AUG-CC-PVTZ
    Blend: AUG-CC-PVTZ
  Basis Set: (AUG-CC-PVTZ AUX)
    Blend: AUG-CC-PVTZ-JKFIT

    Orbital Energies [Eh]
    ---------------------

    Doubly Occupied:

       1A    -20.525617     2A    -15.595956     3A    -11.356935
       4A    -11.297326     5A    -11.255629     6A    -11.246328
       7A    -11.244748     8A    -11.244328     9A    -11.244280
      10A    -11.243014    11A    -11.241954    12A    -11.239586
      13A     -1.380030    14A     -1.252692    15A     -1.150708
      16A     -1.100997    17A     -1.037531    18A     -1.015895
      19A     -0.958252    20A     -0.879331    21A     -0.842197
      22A     -0.809661    23A     -0.765591    24A     -0.721802
      25A     -0.681727    26A     -0.669936    27A     -0.645613
      28A     -0.628701    29A     -0.612021    30A     -0.604519
      31A     -0.601270    32A     -0.577661    33A     -0.564091
      34A     -0.542068    35A     -0.517655    36A     -0.510326
      37A     -0.501166    38A     -0.493290    39A     -0.478528
      40A     -0.435168    41A     -0.426086    42A     -0.340999
      43A     -0.316056

  @DF-RHF Final Energy:  -514.59410924457995

   => Energetics <=

    Nuclear Repulsion Energy =            674.6167633668920871
    One-Electron Energy =               -2036.8272035891407086
    Two-Electron Energy =                 847.6163309776685537
    Total Energy =                       -514.5941092445799541
  Basis Set: (AUG-CC-PVTZ AUX)
    Blend: AUG-CC-PVTZ-RI
    Molecular point group: c1

    Geometry (in Angstrom), charge = 0, multiplicity = 1:

       Center              X                  Y                   Z               Mass
    ------------   -----------------  -----------------  -----------------  -----------------
         O            2.989968042089    -1.510747984417     0.077697328616    15.994914619570
         N            0.821185042089    -1.076725984417    -0.419314671384    14.003074004430
         C            0.191235142089     2.014700115583    -0.233430371384    12.000000000000
         C            1.675208042089     1.683450015583    -0.348608671384    12.000000000000
         C           -0.778032957911     0.823755015583    -0.100253671384    12.000000000000
         C            2.137623042089     0.663643015583     0.699398328616    12.000000000000
         C           -0.470183957911    -0.549344984417    -0.176805671384    12.000000000000
         C            2.040463042089    -0.730082984417     0.138358328616    12.000000000000
         C           -2.120946957911     1.170739015583     0.127238328616    12.000000000000
         C           -1.502537957911    -1.501174984417    -0.083000671384    12.000000000000
         C           -3.141903957911     0.230610015583     0.217183328616    12.000000000000
         C           -2.825575957911    -1.124680984417     0.109188328616    12.000000000000
         H           -0.124755957911     2.589063015583    -1.102866671384     1.007825032230
         H            0.037446042089     2.633678015583     0.639532328616     1.007825032230
         H            1.920252042089     1.313165015583    -1.349800671384     1.007825032230
         H            2.225374042089     2.622739015583    -0.223092671384     1.007825032230
         H            1.526510042089     0.748988015583     1.608007328616     1.007825032230
         H            3.182893042089     0.803533015583     0.983595328616     1.007825032230
         H            0.835582042089    -2.041207984417    -0.743611671384     1.007825032230
         H           -2.366362957911     2.229596015583     0.203057328616     1.007825032230
         H           -1.243132957911    -2.557244984417    -0.138714671384     1.007825032230
         H           -4.167726957911     0.550010015583     0.381260328616     1.007825032230
         H           -3.599767957911    -1.884753984417     0.176956328616     1.007825032230

  Basis Set: AUG-CC-PVTZ
    Blend: AUG-CC-PVTZ
  Basis Set: (AUG-CC-PVTZ AUX)
    Blend: AUG-CC-PVTZ-JKFIT
	 Reference Energy          =    -514.5941092445799541 [Eh]
	 Singles Energy            =      -0.0000000000000000 [Eh]
	 Same-Spin Energy          =      -0.5576851023055343 [Eh]
	 Opposite-Spin Energy      =      -1.7428300260267466 [Eh]
	 Correlation Energy        =      -2.3005151283322807 [Eh]
	 Total Energy              =    -516.8946243729122898 [Eh]

	 ================> DF-SCS-MP2 Energies <==================
	-----------------------------------------------------------
	 SCS Same-Spin Scale       =       0.3333333333333333 [-]
	 SCS Opposite-Spin Scale   =       1.2000000000000000 [-]
	 SCS Same-Spin Energy      =      -0.1858950341018447 [Eh]
	 SCS Opposite-Spin Energy  =      -2.0913960312320961 [Eh]
	 SCS Correlation Energy    =      -2.2772910653339409 [Eh]
	 SCS Total Energy          =    -516.8714003099139518 [Eh]
	-----------------------------------------------------------

  Dipole Moment: [D]
     X:    -2.7399      Y:     2.0695      Z:     0.0385     Total:     3.4338

*** Psi4 exiting successfully. Buy a developer a beer!
