                               Psi4 1.3.2 release

  ==> Input File <==

--------------------------------------------------------------------------
#psi4
#
memory 32 gb

molecule  {
0 1
  O        3.0005300    -1.5493530     0.0754490
  N        0.8317470    -1.1153310    -0.4215630
  C        0.1960040     1.9504030    -0.2395030
  C        1.6857700     1.6448450    -0.3508570
  C       -0.7674710     0.7851500    -0.1025020
  C        2.1481850     0.6250380     0.6971500
  C       -0.4789535    -0.6313566    -0.1926344
  C        2.0510250    -0.7686880     0.1361100
  C       -2.1103850     1.1321340     0.1249900
  C       -1.4919760    -1.5397800    -0.0852490
  C       -3.1313420     0.1920050     0.2149350
  C       -2.8150140    -1.1632860     0.1069400
  H       -0.1141940     2.5504580    -1.1051150
  H        0.0480080     2.5950730     0.6372840
  H        1.9308140     1.2745600    -1.3520490
  H        2.2359360     2.5841340    -0.2253410
  H        1.5370720     0.7103830     1.6057590
  H        3.1934550     0.7649280     0.9813470
  H        0.8461440    -2.0798130    -0.7458600
  H       -2.3558010     2.1909910     0.2008090
  H       -1.2325710    -2.5958500    -0.1409630
  H       -4.1571650     0.5114050     0.3790120
  H       -3.5892060    -1.9233590     0.1747080
units angstrom
no_reorient  #important for SAPT in psi4, default
symmetry c1  #important for SAPT in psi4, default
}

set PROPERTIES_ORIGIN ["COM"]
properties('MP2/aug-cc-pvtz', properties = ['dipole'])
--------------------------------------------------------------------------

    Molecular point group: c1
  Charge       = 0
  Multiplicity = 1
  Basis Set: AUG-CC-PVTZ
    Blend: AUG-CC-PVTZ
  Basis Set: (AUG-CC-PVTZ AUX)
    Blend: AUG-CC-PVTZ-JKFIT

    Orbital Energies [Eh]
    ---------------------

    Doubly Occupied:

       1A    -20.526188     2A    -15.595491     3A    -11.358126
       4A    -11.296893     5A    -11.259067     6A    -11.246287
       7A    -11.245764     8A    -11.244132     9A    -11.242988
      10A    -11.242219    11A    -11.239984    12A    -11.239710
      13A     -1.380399    14A     -1.253006    15A     -1.151204
      16A     -1.102651    17A     -1.036822    18A     -1.021287
      19A     -0.955696    20A     -0.881932    21A     -0.839073
      22A     -0.808282    23A     -0.769024    24A     -0.721131
      25A     -0.681690    26A     -0.668923    27A     -0.646598
      28A     -0.628809    29A     -0.611578    30A     -0.605350
      31A     -0.601431    32A     -0.576834    33A     -0.564451
      34A     -0.542637    35A     -0.515593    36A     -0.510837
      37A     -0.498503    38A     -0.491264    39A     -0.484336
      40A     -0.435519    41A     -0.426572    42A     -0.342174
      43A     -0.314323

  @DF-RHF Final Energy:  -514.59140929353873

   => Energetics <=

    Nuclear Repulsion Energy =            674.7767624661113359
    One-Electron Energy =               -2037.1267882642489440
    Two-Electron Energy =                 847.7586165045989901
    Total Energy =                       -514.5914092935387316
  Basis Set: (AUG-CC-PVTZ AUX)
    Blend: AUG-CC-PVTZ-RI
    Molecular point group: c1

    Geometry (in Angstrom), charge = 0, multiplicity = 1:

       Center              X                  Y                   Z               Mass
    ------------   -----------------  -----------------  -----------------  -----------------
         O            2.991839705819    -1.505600458463     0.078993896351    15.994914619570
         N            0.823056705819    -1.071578458463    -0.418018103649    14.003074004430
         C            0.187313705819     1.994155541537    -0.235958103649    12.000000000000
         C            1.677079705819     1.688597541537    -0.347312103649    12.000000000000
         C           -0.776161294181     0.828902541537    -0.098957103649    12.000000000000
         C            2.139494705819     0.668790541537     0.700694896351    12.000000000000
         C           -0.487643794181    -0.587604058463    -0.189089503649    12.000000000000
         C            2.042334705819    -0.724935458463     0.139654896351    12.000000000000
         C           -2.119075294181     1.175886541537     0.128534896351    12.000000000000
         C           -1.500666294181    -1.496027458463    -0.081704103649    12.000000000000
         C           -3.140032294181     0.235757541537     0.218479896351    12.000000000000
         C           -2.823704294181    -1.119533458463     0.110484896351    12.000000000000
         H           -0.122884294181     2.594210541537    -1.101570103649     1.007825032230
         H            0.039317705819     2.638825541537     0.640828896351     1.007825032230
         H            1.922123705819     1.318312541537    -1.348504103649     1.007825032230
         H            2.227245705819     2.627886541537    -0.221796103649     1.007825032230
         H            1.528381705819     0.754135541537     1.609303896351     1.007825032230
         H            3.184764705819     0.808680541537     0.984891896351     1.007825032230
         H            0.837453705819    -2.036060458463    -0.742315103649     1.007825032230
         H           -2.364491294181     2.234743541537     0.204353896351     1.007825032230
         H           -1.241261294181    -2.552097458463    -0.137418103649     1.007825032230
         H           -4.165855294181     0.555157541537     0.382556896351     1.007825032230
         H           -3.597896294181    -1.879606458463     0.178252896351     1.007825032230

  Basis Set: AUG-CC-PVTZ
    Blend: AUG-CC-PVTZ
  Basis Set: (AUG-CC-PVTZ AUX)
    Blend: AUG-CC-PVTZ-JKFIT
	 Reference Energy          =    -514.5914092935387316 [Eh]
	 Singles Energy            =      -0.0000000000000000 [Eh]
	 Same-Spin Energy          =      -0.5579372736990662 [Eh]
	 Opposite-Spin Energy      =      -1.7431892361273240 [Eh]
	 Correlation Energy        =      -2.3011265098263900 [Eh]
	 Total Energy              =    -516.8925358033651491 [Eh]

	 ================> DF-SCS-MP2 Energies <==================
	-----------------------------------------------------------
	 SCS Same-Spin Scale       =       0.3333333333333333 [-]
	 SCS Opposite-Spin Scale   =       1.2000000000000000 [-]
	 SCS Same-Spin Energy      =      -0.1859790912330221 [Eh]
	 SCS Opposite-Spin Energy  =      -2.0918270833527886 [Eh]
	 SCS Correlation Energy    =      -2.2778061745858107 [Eh]
	 SCS Total Energy          =    -516.8692154681245938 [Eh]
	-----------------------------------------------------------

  Dipole Moment: [D]
     X:    -2.7289      Y:     2.0665      Z:     0.0449     Total:     3.4234

*** Psi4 exiting successfully. Buy a developer a beer!
