                               Psi4 1.3.2 release

  ==> Input File <==

--------------------------------------------------------------------------
#psi4
#
memory 32 gb

molecule  {
0 1
  O        3.0005300    -1.5493530     0.0754490
  N        0.8317470    -1.1153310    -0.4215630
  C        0.1960040     1.9504030    -0.2395030
  C        1.6857700     1.6448450    -0.3508570
  C       -0.7674710     0.7851500    -0.1025020
  C        2.1481850     0.6250380     0.6971500
  C       -0.4596220    -0.5879500    -0.1790540
  C        2.0510250    -0.7686880     0.1361100
  C       -2.1103850     1.1321340     0.1249900
  C       -1.4919760    -1.5397800    -0.0852490
  C       -3.1313420     0.1920050     0.2149350
  C       -2.8150140    -1.1632860     0.1069400
  H       -0.1706971     2.6597590    -1.2627877
  H        0.0480080     2.5950730     0.6372840
  H        1.9308140     1.2745600    -1.3520490
  H        2.2359360     2.5841340    -0.2253410
  H        1.5370720     0.7103830     1.6057590
  H        3.1934550     0.7649280     0.9813470
  H        0.8461440    -2.0798130    -0.7458600
  H       -2.3558010     2.1909910     0.2008090
  H       -1.2325710    -2.5958500    -0.1409630
  H       -4.1571650     0.5114050     0.3790120
  H       -3.5892060    -1.9233590     0.1747080
units angstrom
no_reorient  #important for SAPT in psi4, default
symmetry c1  #important for SAPT in psi4, default
}

set PROPERTIES_ORIGIN ["COM"]
properties('MP2/aug-cc-pvtz', properties = ['dipole'])
--------------------------------------------------------------------------

    Molecular point group: c1
  Charge       = 0
  Multiplicity = 1
  Basis Set: AUG-CC-PVTZ
    Blend: AUG-CC-PVTZ
  Basis Set: (AUG-CC-PVTZ AUX)
    Blend: AUG-CC-PVTZ-JKFIT

    Orbital Energies [Eh]
    ---------------------

    Doubly Occupied:

       1A    -20.526695     2A    -15.597175     3A    -11.358112
       4A    -11.298724     5A    -11.267465     6A    -11.256750
       7A    -11.247410     8A    -11.245724     9A    -11.245152
      10A    -11.244750    11A    -11.244086    12A    -11.240297
      13A     -1.381108    14A     -1.254050    15A     -1.151943
      16A     -1.100662    17A     -1.039116    18A     -1.016801
      19A     -0.952334    20A     -0.880215    21A     -0.843573
      22A     -0.805891    23A     -0.764593    24A     -0.722545
      25A     -0.680711    26A     -0.669544    27A     -0.646627
      28A     -0.629977    29A     -0.606721    30A     -0.602692
      31A     -0.591727    32A     -0.580386    33A     -0.561639
      34A     -0.542928    35A     -0.517525    36A     -0.511783
      37A     -0.499951    38A     -0.484661    39A     -0.476832
      40A     -0.435953    41A     -0.426666    42A     -0.339716
      43A     -0.316506

  @DF-RHF Final Energy:  -514.57451187462175

   => Energetics <=

    Nuclear Repulsion Energy =            674.0967193563947149
    One-Electron Energy =               -2035.7270273013448332
    Two-Electron Energy =                 847.0557960703283698
    Total Energy =                       -514.5745118746217486
  Basis Set: (AUG-CC-PVTZ AUX)
    Blend: AUG-CC-PVTZ-RI
    Molecular point group: c1

    Geometry (in Angstrom), charge = 0, multiplicity = 1:

       Center              X                  Y                   Z               Mass
    ------------   -----------------  -----------------  -----------------  -----------------
         O            2.990753113160    -1.509517888085     0.078968702636    15.994914619570
         N            0.821970113160    -1.075495888085    -0.418043297364    14.003074004430
         C            0.186227113160     1.990238111915    -0.235983297364    12.000000000000
         C            1.675993113160     1.684680111915    -0.347337297364    12.000000000000
         C           -0.777247886840     0.824985111915    -0.098982297364    12.000000000000
         C            2.138408113160     0.664873111915     0.700669702636    12.000000000000
         C           -0.469398886840    -0.548114888085    -0.175534297364    12.000000000000
         C            2.041248113160    -0.728852888085     0.139629702636    12.000000000000
         C           -2.120161886840     1.171969111915     0.128509702636    12.000000000000
         C           -1.501752886840    -1.499944888085    -0.081729297364    12.000000000000
         C           -3.141118886840     0.231840111915     0.218454702636    12.000000000000
         C           -2.824790886840    -1.123450888085     0.110459702636    12.000000000000
         H           -0.180473986840     2.699594111915    -1.259267997364     1.007825032230
         H            0.038231113160     2.634908111915     0.640803702636     1.007825032230
         H            1.921037113160     1.314395111915    -1.348529297364     1.007825032230
         H            2.226159113160     2.623969111915    -0.221821297364     1.007825032230
         H            1.527295113160     0.750218111915     1.609278702636     1.007825032230
         H            3.183678113160     0.804763111915     0.984866702636     1.007825032230
         H            0.836367113160    -2.039977888085    -0.742340297364     1.007825032230
         H           -2.365577886840     2.230826111915     0.204328702636     1.007825032230
         H           -1.242347886840    -2.556014888085    -0.137443297364     1.007825032230
         H           -4.166941886840     0.551240111915     0.382531702636     1.007825032230
         H           -3.598982886840    -1.883523888085     0.178227702636     1.007825032230

  Basis Set: AUG-CC-PVTZ
    Blend: AUG-CC-PVTZ
  Basis Set: (AUG-CC-PVTZ AUX)
    Blend: AUG-CC-PVTZ-JKFIT
	 Reference Energy          =    -514.5745118746217486 [Eh]
	 Singles Energy            =      -0.0000000000000000 [Eh]
	 Same-Spin Energy          =      -0.5580556243953390 [Eh]
	 Opposite-Spin Energy      =      -1.7448160714277861 [Eh]
	 Correlation Energy        =      -2.3028716958231250 [Eh]
	 Total Energy              =    -516.8773835704448629 [Eh]

	 ================> DF-SCS-MP2 Energies <==================
	-----------------------------------------------------------
	 SCS Same-Spin Scale       =       0.3333333333333333 [-]
	 SCS Opposite-Spin Scale   =       1.2000000000000000 [-]
	 SCS Same-Spin Energy      =      -0.1860185414651130 [Eh]
	 SCS Opposite-Spin Energy  =      -2.0937792857133433 [Eh]
	 SCS Correlation Energy    =      -2.2797978271784562 [Eh]
	 SCS Total Energy          =    -516.8543097018001617 [Eh]
	-----------------------------------------------------------

  Dipole Moment: [D]
     X:    -2.7106      Y:     1.9330      Z:     0.1236     Total:     3.3315

*** Psi4 exiting successfully. Buy a developer a beer!
