                               Psi4 1.3.2 release

  ==> Input File <==

--------------------------------------------------------------------------
#psi4
#
memory 32 gb

molecule  {
0 1
  O        3.0005300    -1.5493530     0.0754490
  N        0.8317470    -1.1153310    -0.4215630
  C        0.1960040     1.9504030    -0.2395030
  C        1.6857700     1.6448450    -0.3508570
  C       -0.7674710     0.7851500    -0.1025020
  C        2.1481850     0.6250380     0.6971500
  C       -0.4930027    -0.5524193    -0.1730314
  C        2.0510250    -0.7686880     0.1361100
  C       -2.1103850     1.1321340     0.1249900
  C       -1.4919760    -1.5397800    -0.0852490
  C       -3.1313420     0.1920050     0.2149350
  C       -2.8150140    -1.1632860     0.1069400
  H       -0.1141940     2.5504580    -1.1051150
  H        0.0480080     2.5950730     0.6372840
  H        1.9308140     1.2745600    -1.3520490
  H        2.2359360     2.5841340    -0.2253410
  H        1.5370720     0.7103830     1.6057590
  H        3.1934550     0.7649280     0.9813470
  H        0.8461440    -2.0798130    -0.7458600
  H       -2.3558010     2.1909910     0.2008090
  H       -1.2325710    -2.5958500    -0.1409630
  H       -4.1571650     0.5114050     0.3790120
  H       -3.5892060    -1.9233590     0.1747080
units angstrom
no_reorient  #important for SAPT in psi4, default
symmetry c1  #important for SAPT in psi4, default
}

set PROPERTIES_ORIGIN ["COM"]
properties('MP2/aug-cc-pvtz', properties = ['dipole'])
--------------------------------------------------------------------------

    Molecular point group: c1
  Charge       = 0
  Multiplicity = 1
  Basis Set: AUG-CC-PVTZ
    Blend: AUG-CC-PVTZ
  Basis Set: (AUG-CC-PVTZ AUX)
    Blend: AUG-CC-PVTZ-JKFIT

    Orbital Energies [Eh]
    ---------------------

    Doubly Occupied:

       1A    -20.521784     2A    -15.592447     3A    -11.353171
       4A    -11.295623     5A    -11.252567     6A    -11.247896
       7A    -11.246789     8A    -11.246413     9A    -11.246381
      10A    -11.241958    11A    -11.241690    12A    -11.241073
      13A     -1.375828    14A     -1.242138    15A     -1.155345
      16A     -1.101488    17A     -1.041910    18A     -1.016670
      19A     -0.959521    20A     -0.877104    21A     -0.846351
      22A     -0.807113    23A     -0.763363    24A     -0.717302
      25A     -0.679718    26A     -0.669860    27A     -0.645300
      28A     -0.631346    29A     -0.610389    30A     -0.602835
      31A     -0.599602    32A     -0.578506    33A     -0.563565
      34A     -0.541153    35A     -0.518704    36A     -0.511470
      37A     -0.499236    38A     -0.493442    39A     -0.482771
      40A     -0.430771    41A     -0.422089    42A     -0.342409
      43A     -0.322688

  @DF-RHF Final Energy:  -514.59227332813578

   => Energetics <=

    Nuclear Repulsion Energy =            675.1980913663013553
    One-Electron Energy =               -2038.0251698931992905
    Two-Electron Energy =                 848.2348051987620465
    Total Energy =                       -514.5922733281357750
  Basis Set: (AUG-CC-PVTZ AUX)
    Blend: AUG-CC-PVTZ-RI
    Molecular point group: c1

    Geometry (in Angstrom), charge = 0, multiplicity = 1:

       Center              X                  Y                   Z               Mass
    ------------   -----------------  -----------------  -----------------  -----------------
         O            2.992886304693    -1.511480913529     0.077533565675    15.994914619570
         N            0.824103304693    -1.077458913529    -0.419478434325    14.003074004430
         C            0.188360304693     1.988275086471    -0.237418434325    12.000000000000
         C            1.678126304693     1.682717086471    -0.348772434325    12.000000000000
         C           -0.775114695307     0.823022086471    -0.100417434325    12.000000000000
         C            2.140541304693     0.662910086471     0.699234565675    12.000000000000
         C           -0.500646395307    -0.514547213529    -0.170946834325    12.000000000000
         C            2.043381304693    -0.730815913529     0.138194565675    12.000000000000
         C           -2.118028695307     1.170006086471     0.127074565675    12.000000000000
         C           -1.499619695307    -1.501907913529    -0.083164434325    12.000000000000
         C           -3.138985695307     0.229877086471     0.217019565675    12.000000000000
         C           -2.822657695307    -1.125413913529     0.109024565675    12.000000000000
         H           -0.121837695307     2.588330086471    -1.103030434325     1.007825032230
         H            0.040364304693     2.632945086471     0.639368565675     1.007825032230
         H            1.923170304693     1.312432086471    -1.349964434325     1.007825032230
         H            2.228292304693     2.622006086471    -0.223256434325     1.007825032230
         H            1.529428304693     0.748255086471     1.607843565675     1.007825032230
         H            3.185811304693     0.802800086471     0.983431565675     1.007825032230
         H            0.838500304693    -2.041940913529    -0.743775434325     1.007825032230
         H           -2.363444695307     2.228863086471     0.202893565675     1.007825032230
         H           -1.240214695307    -2.557977913529    -0.138878434325     1.007825032230
         H           -4.164808695307     0.549277086471     0.381096565675     1.007825032230
         H           -3.596849695307    -1.885486913529     0.176792565675     1.007825032230

  Basis Set: AUG-CC-PVTZ
    Blend: AUG-CC-PVTZ
  Basis Set: (AUG-CC-PVTZ AUX)
    Blend: AUG-CC-PVTZ-JKFIT
	 Reference Energy          =    -514.5922733281357750 [Eh]
	 Singles Energy            =      -0.0000000000000000 [Eh]
	 Same-Spin Energy          =      -0.5574357225195199 [Eh]
	 Opposite-Spin Energy      =      -1.7426846015111082 [Eh]
	 Correlation Energy        =      -2.3001203240306278 [Eh]
	 Total Energy              =    -516.8923936521664473 [Eh]

	 ================> DF-SCS-MP2 Energies <==================
	-----------------------------------------------------------
	 SCS Same-Spin Scale       =       0.3333333333333333 [-]
	 SCS Opposite-Spin Scale   =       1.2000000000000000 [-]
	 SCS Same-Spin Energy      =      -0.1858119075065066 [Eh]
	 SCS Opposite-Spin Energy  =      -2.0912215218133299 [Eh]
	 SCS Correlation Energy    =      -2.2770334293198364 [Eh]
	 SCS Total Energy          =    -516.8693067574556608 [Eh]
	-----------------------------------------------------------

  Dipole Moment: [D]
     X:    -3.0038      Y:     2.1288      Z:     0.0497     Total:     3.6820

*** Psi4 exiting successfully. Buy a developer a beer!
