                               Psi4 1.3.2 release

  ==> Input File <==

--------------------------------------------------------------------------
#psi4
#
memory 32 gb

molecule  {
0 1
  O        3.0005300    -1.5493530     0.0754490
  N        0.8317470    -1.1153310    -0.4215630
  C        0.1960040     1.9504030    -0.2395030
  C        1.6857700     1.6448450    -0.3508570
  C       -0.7463189     0.8809485    -0.1026016
  C        2.1481850     0.6250380     0.6971500
  C       -0.4596220    -0.5879500    -0.1790540
  C        2.0510250    -0.7686880     0.1361100
  C       -2.1103850     1.1321340     0.1249900
  C       -1.4919760    -1.5397800    -0.0852490
  C       -3.1313420     0.1920050     0.2149350
  C       -2.8150140    -1.1632860     0.1069400
  H       -0.1141940     2.5504580    -1.1051150
  H        0.0480080     2.5950730     0.6372840
  H        1.9308140     1.2745600    -1.3520490
  H        2.2359360     2.5841340    -0.2253410
  H        1.5370720     0.7103830     1.6057590
  H        3.1934550     0.7649280     0.9813470
  H        0.8461440    -2.0798130    -0.7458600
  H       -2.3558010     2.1909910     0.2008090
  H       -1.2325710    -2.5958500    -0.1409630
  H       -4.1571650     0.5114050     0.3790120
  H       -3.5892060    -1.9233590     0.1747080
units angstrom
no_reorient  #important for SAPT in psi4, default
symmetry c1  #important for SAPT in psi4, default
}

set PROPERTIES_ORIGIN ["COM"]
properties('MP2/aug-cc-pvtz', properties = ['dipole'])
--------------------------------------------------------------------------

    Molecular point group: c1
  Charge       = 0
  Multiplicity = 1
  Basis Set: AUG-CC-PVTZ
    Blend: AUG-CC-PVTZ
  Basis Set: (AUG-CC-PVTZ AUX)
    Blend: AUG-CC-PVTZ-JKFIT

    Orbital Energies [Eh]
    ---------------------

    Doubly Occupied:

       1A    -20.526194     2A    -15.596413     3A    -11.357418
       4A    -11.305688     5A    -11.261913     6A    -11.246278
       7A    -11.245411     8A    -11.244325     9A    -11.243992
      10A    -11.243353    11A    -11.241652    12A    -11.239213
      13A     -1.380510    14A     -1.251148    15A     -1.149145
      16A     -1.109411    17A     -1.042929    18A     -1.013724
      19A     -0.954954    20A     -0.887879    21A     -0.835994
      22A     -0.806894    23A     -0.767127    24A     -0.718847
      25A     -0.683496    26A     -0.674368    27A     -0.650035
      28A     -0.625864    29A     -0.612800    30A     -0.604696
      31A     -0.599464    32A     -0.583122    33A     -0.564731
      34A     -0.543625    35A     -0.517519    36A     -0.512104
      37A     -0.499845    38A     -0.491045    39A     -0.483560
      40A     -0.434909    41A     -0.426345    42A     -0.340290
      43A     -0.306322

  @DF-RHF Final Energy:  -514.57990437773697

   => Energetics <=

    Nuclear Repulsion Energy =            674.3790575421038511
    One-Electron Energy =               -2036.2688202850661128
    Two-Electron Energy =                 847.3098583652254092
    Total Energy =                       -514.5799043777369661
  Basis Set: (AUG-CC-PVTZ AUX)
    Blend: AUG-CC-PVTZ-RI
    Molecular point group: c1

    Geometry (in Angstrom), charge = 0, multiplicity = 1:

       Center              X                  Y                   Z               Mass
    ------------   -----------------  -----------------  -----------------  -----------------
         O            2.988823869317    -1.515970579249     0.077989640586    15.994914619570
         N            0.820040869317    -1.081948579249    -0.419022359414    14.003074004430
         C            0.184297869317     1.983785420751    -0.236962359414    12.000000000000
         C            1.674063869317     1.678227420751    -0.348316359414    12.000000000000
         C           -0.758025030683     0.914330920751    -0.100060959414    12.000000000000
         C            2.136478869317     0.658420420751     0.699690640586    12.000000000000
         C           -0.471328130683    -0.554567579249    -0.176513359414    12.000000000000
         C            2.039318869317    -0.735305579249     0.138650640586    12.000000000000
         C           -2.122091130683     1.165516420751     0.127530640586    12.000000000000
         C           -1.503682130683    -1.506397579249    -0.082708359414    12.000000000000
         C           -3.143048130683     0.225387420751     0.217475640586    12.000000000000
         C           -2.826720130683    -1.129903579249     0.109480640586    12.000000000000
         H           -0.125900130683     2.583840420751    -1.102574359414     1.007825032230
         H            0.036301869317     2.628455420751     0.639824640586     1.007825032230
         H            1.919107869317     1.307942420751    -1.349508359414     1.007825032230
         H            2.224229869317     2.617516420751    -0.222800359414     1.007825032230
         H            1.525365869317     0.743765420751     1.608299640586     1.007825032230
         H            3.181748869317     0.798310420751     0.983887640586     1.007825032230
         H            0.834437869317    -2.046430579249    -0.743319359414     1.007825032230
         H           -2.367507130683     2.224373420751     0.203349640586     1.007825032230
         H           -1.244277130683    -2.562467579249    -0.138422359414     1.007825032230
         H           -4.168871130683     0.544787420751     0.381552640586     1.007825032230
         H           -3.600912130683    -1.889976579249     0.177248640586     1.007825032230

  Basis Set: AUG-CC-PVTZ
    Blend: AUG-CC-PVTZ
  Basis Set: (AUG-CC-PVTZ AUX)
    Blend: AUG-CC-PVTZ-JKFIT
	 Reference Energy          =    -514.5799043777369661 [Eh]
	 Singles Energy            =      -0.0000000000000000 [Eh]
	 Same-Spin Energy          =      -0.5592737481225942 [Eh]
	 Opposite-Spin Energy      =      -1.7451859854216343 [Eh]
	 Correlation Energy        =      -2.3044597335442285 [Eh]
	 Total Energy              =    -516.8843641112812293 [Eh]

	 ================> DF-SCS-MP2 Energies <==================
	-----------------------------------------------------------
	 SCS Same-Spin Scale       =       0.3333333333333333 [-]
	 SCS Opposite-Spin Scale   =       1.2000000000000000 [-]
	 SCS Same-Spin Energy      =      -0.1864245827075314 [Eh]
	 SCS Opposite-Spin Energy  =      -2.0942231825059610 [Eh]
	 SCS Correlation Energy    =      -2.2806477652134922 [Eh]
	 SCS Total Energy          =    -516.8605521429504961 [Eh]
	-----------------------------------------------------------

  Dipole Moment: [D]
     X:    -2.5898      Y:     2.1227      Z:     0.0100     Total:     3.3486

*** Psi4 exiting successfully. Buy a developer a beer!
