                               Psi4 1.3.2 release

  ==> Input File <==

--------------------------------------------------------------------------
#psi4
#
memory 32 gb

molecule  {
0 1
  O        3.0005300    -1.5493530     0.0754490
  N        0.8317470    -1.1153310    -0.4215630
  C        0.1960040     1.9504030    -0.2395030
  C        1.6857700     1.6448450    -0.3508570
  C       -0.8114255     0.6447656    -0.1002762
  C        2.1481850     0.6250380     0.6971500
  C       -0.4596220    -0.5879500    -0.1790540
  C        2.0510250    -0.7686880     0.1361100
  C       -2.1103850     1.1321340     0.1249900
  C       -1.4919760    -1.5397800    -0.0852490
  C       -3.1313420     0.1920050     0.2149350
  C       -2.8150140    -1.1632860     0.1069400
  H       -0.1141940     2.5504580    -1.1051150
  H        0.0480080     2.5950730     0.6372840
  H        1.9308140     1.2745600    -1.3520490
  H        2.2359360     2.5841340    -0.2253410
  H        1.5370720     0.7103830     1.6057590
  H        3.1934550     0.7649280     0.9813470
  H        0.8461440    -2.0798130    -0.7458600
  H       -2.3558010     2.1909910     0.2008090
  H       -1.2325710    -2.5958500    -0.1409630
  H       -4.1571650     0.5114050     0.3790120
  H       -3.5892060    -1.9233590     0.1747080
units angstrom
no_reorient  #important for SAPT in psi4, default
symmetry c1  #important for SAPT in psi4, default
}

set PROPERTIES_ORIGIN ["COM"]
properties('MP2/aug-cc-pvtz', properties = ['dipole'])
--------------------------------------------------------------------------

    Molecular point group: c1
  Charge       = 0
  Multiplicity = 1
  Basis Set: AUG-CC-PVTZ
    Blend: AUG-CC-PVTZ
  Basis Set: (AUG-CC-PVTZ AUX)
    Blend: AUG-CC-PVTZ-JKFIT

    Orbital Energies [Eh]
    ---------------------

    Doubly Occupied:

       1A    -20.524954     2A    -15.595855     3A    -11.356408
       4A    -11.281715     5A    -11.248688     6A    -11.247049
       7A    -11.246789     8A    -11.245402     9A    -11.245325
      10A    -11.241164    11A    -11.241049    12A    -11.238898
      13A     -1.379516    14A     -1.256927    15A     -1.160233
      16A     -1.092797    17A     -1.040238    18A     -1.019674
      19A     -0.959032    20A     -0.870448    21A     -0.855126
      22A     -0.808736    23A     -0.763321    24A     -0.726553
      25A     -0.680276    26A     -0.670668    27A     -0.640914
      28A     -0.637286    29A     -0.611733    30A     -0.603078
      31A     -0.597333    32A     -0.574821    33A     -0.563648
      34A     -0.542908    35A     -0.525821    36A     -0.509751
      37A     -0.500000    38A     -0.491773    39A     -0.452273
      40A     -0.434783    41A     -0.425244    42A     -0.343599
      43A     -0.328392

  @DF-RHF Final Energy:  -514.57100423721829

   => Energetics <=

    Nuclear Repulsion Energy =            676.2638401531414729
    One-Electron Energy =               -2040.1092917043247326
    Two-Electron Energy =                 849.2744473139649699
    Total Energy =                       -514.5710042372182897
  Basis Set: (AUG-CC-PVTZ AUX)
    Blend: AUG-CC-PVTZ-RI
    Molecular point group: c1

    Geometry (in Angstrom), charge = 0, multiplicity = 1:

       Center              X                  Y                   Z               Mass
    ------------   -----------------  -----------------  -----------------  -----------------
         O            2.993674002724    -1.498376071573     0.077816409297    15.994914619570
         N            0.824891002724    -1.064354071573    -0.419195590703    14.003074004430
         C            0.189148002724     2.001379928427    -0.237135590703    12.000000000000
         C            1.678914002724     1.695821928427    -0.348489590703    12.000000000000
         C           -0.818281497276     0.695742528427    -0.097908790703    12.000000000000
         C            2.141329002724     0.676014928427     0.699517409297    12.000000000000
         C           -0.466477997276    -0.536973071573    -0.176686590703    12.000000000000
         C            2.044169002724    -0.717711071573     0.138477409297    12.000000000000
         C           -2.117240997276     1.183110928427     0.127357409297    12.000000000000
         C           -1.498831997276    -1.488803071573    -0.082881590703    12.000000000000
         C           -3.138197997276     0.242981928427     0.217302409297    12.000000000000
         C           -2.821869997276    -1.112309071573     0.109307409297    12.000000000000
         H           -0.121049997276     2.601434928427    -1.102747590703     1.007825032230
         H            0.041152002724     2.646049928427     0.639651409297     1.007825032230
         H            1.923958002724     1.325536928427    -1.349681590703     1.007825032230
         H            2.229080002724     2.635110928427    -0.222973590703     1.007825032230
         H            1.530216002724     0.761359928427     1.608126409297     1.007825032230
         H            3.186599002724     0.815904928427     0.983714409297     1.007825032230
         H            0.839288002724    -2.028836071573    -0.743492590703     1.007825032230
         H           -2.362656997276     2.241967928427     0.203176409297     1.007825032230
         H           -1.239426997276    -2.544873071573    -0.138595590703     1.007825032230
         H           -4.164020997276     0.562381928427     0.381379409297     1.007825032230
         H           -3.596061997276    -1.872382071573     0.177075409297     1.007825032230

  Basis Set: AUG-CC-PVTZ
    Blend: AUG-CC-PVTZ
  Basis Set: (AUG-CC-PVTZ AUX)
    Blend: AUG-CC-PVTZ-JKFIT
	 Reference Energy          =    -514.5710042372182897 [Eh]
	 Singles Energy            =      -0.0000000000000000 [Eh]
	 Same-Spin Energy          =      -0.5569320241952780 [Eh]
	 Opposite-Spin Energy      =      -1.7426101309733191 [Eh]
	 Correlation Energy        =      -2.2995421551685968 [Eh]
	 Total Energy              =    -516.8705463923869274 [Eh]

	 ================> DF-SCS-MP2 Energies <==================
	-----------------------------------------------------------
	 SCS Same-Spin Scale       =       0.3333333333333333 [-]
	 SCS Opposite-Spin Scale   =       1.2000000000000000 [-]
	 SCS Same-Spin Energy      =      -0.1856440080650927 [Eh]
	 SCS Opposite-Spin Energy  =      -2.0911321571679826 [Eh]
	 SCS Correlation Energy    =      -2.2767761652330751 [Eh]
	 SCS Total Energy          =    -516.8477804024513489 [Eh]
	-----------------------------------------------------------

  Dipole Moment: [D]
     X:    -2.9340      Y:     2.0165      Z:     0.0670     Total:     3.5608

*** Psi4 exiting successfully. Buy a developer a beer!
