                               Psi4 1.3.2 release

  ==> Input File <==

--------------------------------------------------------------------------
#psi4
#
memory 32 gb

molecule  {
0 1
  O        3.0005300    -1.5493530     0.0754490
  N        0.8317470    -1.1153310    -0.4215630
  C        0.1960040     1.9504030    -0.2395030
  C        1.6857700     1.6448450    -0.3508570
  C       -0.7674710     0.7851500    -0.1025020
  C        2.1481850     0.6250380     0.6971500
  C       -0.3666932    -0.7014585    -0.1924411
  C        2.0510250    -0.7686880     0.1361100
  C       -2.1103850     1.1321340     0.1249900
  C       -1.4919760    -1.5397800    -0.0852490
  C       -3.1313420     0.1920050     0.2149350
  C       -2.8150140    -1.1632860     0.1069400
  H       -0.1141940     2.5504580    -1.1051150
  H        0.0480080     2.5950730     0.6372840
  H        1.9308140     1.2745600    -1.3520490
  H        2.2359360     2.5841340    -0.2253410
  H        1.5370720     0.7103830     1.6057590
  H        3.1934550     0.7649280     0.9813470
  H        0.8461440    -2.0798130    -0.7458600
  H       -2.3558010     2.1909910     0.2008090
  H       -1.2325710    -2.5958500    -0.1409630
  H       -4.1571650     0.5114050     0.3790120
  H       -3.5892060    -1.9233590     0.1747080
units angstrom
no_reorient  #important for SAPT in psi4, default
symmetry c1  #important for SAPT in psi4, default
}

set PROPERTIES_ORIGIN ["COM"]
properties('MP2/aug-cc-pvtz', properties = ['dipole'])
--------------------------------------------------------------------------

    Molecular point group: c1
  Charge       = 0
  Multiplicity = 1
  Basis Set: AUG-CC-PVTZ
    Blend: AUG-CC-PVTZ
  Basis Set: (AUG-CC-PVTZ AUX)
    Blend: AUG-CC-PVTZ-JKFIT

    Orbital Energies [Eh]
    ---------------------

    Doubly Occupied:

       1A    -20.538790     2A    -15.606471     3A    -11.369465
       4A    -11.303459     5A    -11.260347     6A    -11.247958
       7A    -11.244108     8A    -11.242697     9A    -11.241295
      10A    -11.239767    11A    -11.238064    12A    -11.233054
      13A     -1.395563    14A     -1.295690    15A     -1.139644
      16A     -1.103873    17A     -1.032578    18A     -1.014799
      19A     -0.950660    20A     -0.894594    21A     -0.842351
      22A     -0.809028    23A     -0.771580    24A     -0.736292
      25A     -0.689802    26A     -0.670884    27A     -0.650867
      28A     -0.626245    29A     -0.615386    30A     -0.605357
      31A     -0.600948    32A     -0.576509    33A     -0.567119
      34A     -0.546234    35A     -0.516876    36A     -0.509150
      37A     -0.498788    38A     -0.486931    39A     -0.471129
      40A     -0.444159    41A     -0.437866    42A     -0.337203
      43A     -0.294549

  @DF-RHF Final Energy:  -514.56391237027867

   => Energetics <=

    Nuclear Repulsion Energy =            674.8499502648883208
    One-Electron Energy =               -2037.0314682155881201
    Two-Electron Energy =                 847.6176055804211273
    Total Energy =                       -514.5639123702786719
  Basis Set: (AUG-CC-PVTZ AUX)
    Blend: AUG-CC-PVTZ-RI
    Molecular point group: c1

    Geometry (in Angstrom), charge = 0, multiplicity = 1:

       Center              X                  Y                   Z               Mass
    ------------   -----------------  -----------------  -----------------  -----------------
         O            2.983476845044    -1.500378198860     0.078979496416    15.994914619570
         N            0.814693845044    -1.066356198860    -0.418032503584    14.003074004430
         C            0.178950845044     1.999377801140    -0.235972503584    12.000000000000
         C            1.668716845044     1.693819801140    -0.347326503584    12.000000000000
         C           -0.784524154956     0.834124801140    -0.098971503584    12.000000000000
         C            2.131131845044     0.674012801140     0.700680496416    12.000000000000
         C           -0.383746354956    -0.652483698860    -0.188910603584    12.000000000000
         C            2.033971845044    -0.719713198860     0.139640496416    12.000000000000
         C           -2.127438154956     1.181108801140     0.128520496416    12.000000000000
         C           -1.509029154956    -1.490805198860    -0.081718503584    12.000000000000
         C           -3.148395154956     0.240979801140     0.218465496416    12.000000000000
         C           -2.832067154956    -1.114311198860     0.110470496416    12.000000000000
         H           -0.131247154956     2.599432801140    -1.101584503584     1.007825032230
         H            0.030954845044     2.644047801140     0.640814496416     1.007825032230
         H            1.913760845044     1.323534801140    -1.348518503584     1.007825032230
         H            2.218882845044     2.633108801140    -0.221810503584     1.007825032230
         H            1.520018845044     0.759357801140     1.609289496416     1.007825032230
         H            3.176401845044     0.813902801140     0.984877496416     1.007825032230
         H            0.829090845044    -2.030838198860    -0.742329503584     1.007825032230
         H           -2.372854154956     2.239965801140     0.204339496416     1.007825032230
         H           -1.249624154956    -2.546875198860    -0.137432503584     1.007825032230
         H           -4.174218154956     0.560379801140     0.382542496416     1.007825032230
         H           -3.606259154956    -1.874384198860     0.178238496416     1.007825032230

  Basis Set: AUG-CC-PVTZ
    Blend: AUG-CC-PVTZ
  Basis Set: (AUG-CC-PVTZ AUX)
    Blend: AUG-CC-PVTZ-JKFIT
	 Reference Energy          =    -514.5639123702786719 [Eh]
	 Singles Energy            =      -0.0000000000000000 [Eh]
	 Same-Spin Energy          =      -0.5598857687758827 [Eh]
	 Opposite-Spin Energy      =      -1.7461301599596470 [Eh]
	 Correlation Energy        =      -2.3060159287355297 [Eh]
	 Total Energy              =    -516.8699282990141910 [Eh]

	 ================> DF-SCS-MP2 Energies <==================
	-----------------------------------------------------------
	 SCS Same-Spin Scale       =       0.3333333333333333 [-]
	 SCS Opposite-Spin Scale   =       1.2000000000000000 [-]
	 SCS Same-Spin Energy      =      -0.1866285895919609 [Eh]
	 SCS Opposite-Spin Energy  =      -2.0953561919515762 [Eh]
	 SCS Correlation Energy    =      -2.2819847815435370 [Eh]
	 SCS Total Energy          =    -516.8458971518222143 [Eh]
	-----------------------------------------------------------

  Dipole Moment: [D]
     X:    -1.8891      Y:     1.8699      Z:    -0.0102     Total:     2.6580

*** Psi4 exiting successfully. Buy a developer a beer!
