                               Psi4 1.3.2 release

  ==> Input File <==

--------------------------------------------------------------------------
#psi4
#
memory 32 gb

molecule  {
0 1
  O        3.0005300    -1.5493530     0.0754490
  N        0.8317470    -1.1153310    -0.4215630
  C        0.0708329     2.0457007    -0.2170718
  C        1.6857700     1.6448450    -0.3508570
  C       -0.7674710     0.7851500    -0.1025020
  C        2.1481850     0.6250380     0.6971500
  C       -0.4596220    -0.5879500    -0.1790540
  C        2.0510250    -0.7686880     0.1361100
  C       -2.1103850     1.1321340     0.1249900
  C       -1.4919760    -1.5397800    -0.0852490
  C       -3.1313420     0.1920050     0.2149350
  C       -2.8150140    -1.1632860     0.1069400
  H       -0.1141940     2.5504580    -1.1051150
  H        0.0480080     2.5950730     0.6372840
  H        1.9308140     1.2745600    -1.3520490
  H        2.2359360     2.5841340    -0.2253410
  H        1.5370720     0.7103830     1.6057590
  H        3.1934550     0.7649280     0.9813470
  H        0.8461440    -2.0798130    -0.7458600
  H       -2.3558010     2.1909910     0.2008090
  H       -1.2325710    -2.5958500    -0.1409630
  H       -4.1571650     0.5114050     0.3790120
  H       -3.5892060    -1.9233590     0.1747080
units angstrom
no_reorient  #important for SAPT in psi4, default
symmetry c1  #important for SAPT in psi4, default
}

set PROPERTIES_ORIGIN ["COM"]
properties('MP2/aug-cc-pvtz', properties = ['dipole'])
--------------------------------------------------------------------------

    Molecular point group: c1
  Charge       = 0
  Multiplicity = 1
  Basis Set: AUG-CC-PVTZ
    Blend: AUG-CC-PVTZ
  Basis Set: (AUG-CC-PVTZ AUX)
    Blend: AUG-CC-PVTZ-JKFIT

    Orbital Energies [Eh]
    ---------------------

    Doubly Occupied:

       1A    -20.525009     2A    -15.595619     3A    -11.356150
       4A    -11.300507     5A    -11.254024     6A    -11.247197
       7A    -11.245208     8A    -11.244944     9A    -11.243220
      10A    -11.242114    11A    -11.240467    12A    -11.238618
      13A     -1.379403    14A     -1.252339    15A     -1.151901
      16A     -1.090015    17A     -1.040053    18A     -1.014890
      19A     -0.954083    20A     -0.878927    21A     -0.842105
      22A     -0.813792    23A     -0.765787    24A     -0.722076
      25A     -0.680627    26A     -0.671053    27A     -0.646515
      28A     -0.629918    29A     -0.622632    30A     -0.605440
      31A     -0.595528    32A     -0.580830    33A     -0.565821
      34A     -0.539588    35A     -0.516085    36A     -0.513633
      37A     -0.505850    38A     -0.495539    39A     -0.450264
      40A     -0.434792    41A     -0.423579    42A     -0.342700
      43A     -0.317017

  @DF-RHF Final Energy:  -514.57261602343374

   => Energetics <=

    Nuclear Repulsion Energy =            673.2871421035173398
    One-Electron Energy =               -2034.1678044025229610
    Two-Electron Energy =                 846.3080462755717690
    Total Energy =                       -514.5726160234337385
  Basis Set: (AUG-CC-PVTZ AUX)
    Blend: AUG-CC-PVTZ-RI
    Molecular point group: c1

    Geometry (in Angstrom), charge = 0, multiplicity = 1:

       Center              X                  Y                   Z               Mass
    ------------   -----------------  -----------------  -----------------  -----------------
         O            2.999724254846    -1.515933272020     0.076311202674    15.994914619570
         N            0.830941254846    -1.081911272020    -0.420700797326    14.003074004430
         C            0.070027154846     2.079120427980    -0.216209597326    12.000000000000
         C            1.684964254846     1.678264727980    -0.349994797326    12.000000000000
         C           -0.768276745154     0.818569727980    -0.101639797326    12.000000000000
         C            2.147379254846     0.658457727980     0.698012202674    12.000000000000
         C           -0.460427745154    -0.554530272020    -0.178191797326    12.000000000000
         C            2.050219254846    -0.735268272020     0.136972202674    12.000000000000
         C           -2.111190745154     1.165553727980     0.125852202674    12.000000000000
         C           -1.492781745154    -1.506360272020    -0.084386797326    12.000000000000
         C           -3.132147745154     0.225424727980     0.215797202674    12.000000000000
         C           -2.815819745154    -1.129866272020     0.107802202674    12.000000000000
         H           -0.114999745154     2.583877727980    -1.104252797326     1.007825032230
         H            0.047202254846     2.628492727980     0.638146202674     1.007825032230
         H            1.930008254846     1.307979727980    -1.351186797326     1.007825032230
         H            2.235130254846     2.617553727980    -0.224478797326     1.007825032230
         H            1.536266254846     0.743802727980     1.606621202674     1.007825032230
         H            3.192649254846     0.798347727980     0.982209202674     1.007825032230
         H            0.845338254846    -2.046393272020    -0.744997797326     1.007825032230
         H           -2.356606745154     2.224410727980     0.201671202674     1.007825032230
         H           -1.233376745154    -2.562430272020    -0.140100797326     1.007825032230
         H           -4.157970745154     0.544824727980     0.379874202674     1.007825032230
         H           -3.590011745154    -1.889939272020     0.175570202674     1.007825032230

  Basis Set: AUG-CC-PVTZ
    Blend: AUG-CC-PVTZ
  Basis Set: (AUG-CC-PVTZ AUX)
    Blend: AUG-CC-PVTZ-JKFIT
	 Reference Energy          =    -514.5726160234337385 [Eh]
	 Singles Energy            =      -0.0000000000000000 [Eh]
	 Same-Spin Energy          =      -0.5577759616964001 [Eh]
	 Opposite-Spin Energy      =      -1.7438592358872778 [Eh]
	 Correlation Energy        =      -2.3016351975836780 [Eh]
	 Total Energy              =    -516.8742512210174027 [Eh]

	 ================> DF-SCS-MP2 Energies <==================
	-----------------------------------------------------------
	 SCS Same-Spin Scale       =       0.3333333333333333 [-]
	 SCS Opposite-Spin Scale   =       1.2000000000000000 [-]
	 SCS Same-Spin Energy      =      -0.1859253205654667 [Eh]
	 SCS Opposite-Spin Energy  =      -2.0926310830647332 [Eh]
	 SCS Correlation Energy    =      -2.2785564036302000 [Eh]
	 SCS Total Energy          =    -516.8511724270639434 [Eh]
	-----------------------------------------------------------

  Dipole Moment: [D]
     X:    -2.8294      Y:     2.0494      Z:     0.0564     Total:     3.4941

*** Psi4 exiting successfully. Buy a developer a beer!
