                               Psi4 1.3.2 release

  ==> Input File <==

--------------------------------------------------------------------------
#psi4
#
memory 32 gb

molecule  {
0 1
  O        3.0005300    -1.5493530     0.0754490
  N        0.8317470    -1.1153310    -0.4215630
  C        0.1960040     1.9504030    -0.2395030
  C        1.6857700     1.6448450    -0.3508570
  C       -0.7674710     0.7851500    -0.1025020
  C        2.1481850     0.6250380     0.6971500
  C       -0.4596220    -0.5879500    -0.1790540
  C        2.0946365    -0.9035513     0.1057498
  C       -2.1103850     1.1321340     0.1249900
  C       -1.4919760    -1.5397800    -0.0852490
  C       -3.1313420     0.1920050     0.2149350
  C       -2.8150140    -1.1632860     0.1069400
  H       -0.1141940     2.5504580    -1.1051150
  H        0.0480080     2.5950730     0.6372840
  H        1.9308140     1.2745600    -1.3520490
  H        2.2359360     2.5841340    -0.2253410
  H        1.5370720     0.7103830     1.6057590
  H        3.1934550     0.7649280     0.9813470
  H        0.8461440    -2.0798130    -0.7458600
  H       -2.3558010     2.1909910     0.2008090
  H       -1.2325710    -2.5958500    -0.1409630
  H       -4.1571650     0.5114050     0.3790120
  H       -3.5892060    -1.9233590     0.1747080
units angstrom
no_reorient  #important for SAPT in psi4, default
symmetry c1  #important for SAPT in psi4, default
}

set PROPERTIES_ORIGIN ["COM"]
properties('MP2/aug-cc-pvtz', properties = ['dipole'])
--------------------------------------------------------------------------

    Molecular point group: c1
  Charge       = 0
  Multiplicity = 1
  Basis Set: AUG-CC-PVTZ
    Blend: AUG-CC-PVTZ
  Basis Set: (AUG-CC-PVTZ AUX)
    Blend: AUG-CC-PVTZ-JKFIT

    Orbital Energies [Eh]
    ---------------------

    Doubly Occupied:

       1A    -20.543074     2A    -15.589453     3A    -11.349648
       4A    -11.297417     5A    -11.252540     6A    -11.244365
       7A    -11.242868     8A    -11.242268     9A    -11.239261
      10A    -11.237986    11A    -11.233020    12A    -11.231075
      13A     -1.465311    14A     -1.257827    15A     -1.150600
      16A     -1.089043    17A     -1.026175    18A     -1.015650
      19A     -0.939389    20A     -0.872169    21A     -0.841312
      22A     -0.801924    23A     -0.757153    24A     -0.720405
      25A     -0.690689    26A     -0.671249    27A     -0.652291
      28A     -0.637410    29A     -0.615692    30A     -0.609457
      31A     -0.597780    32A     -0.583337    33A     -0.572471
      34A     -0.539388    35A     -0.519328    36A     -0.517162
      37A     -0.497924    38A     -0.483963    39A     -0.479123
      40A     -0.445433    41A     -0.403062    42A     -0.337874
      43A     -0.315148

  @DF-RHF Final Energy:  -514.57006872056729

   => Energetics <=

    Nuclear Repulsion Energy =            674.8618437106849797
    One-Electron Energy =               -2037.2463992499956476
    Two-Electron Energy =                 847.8144868187433758
    Total Energy =                       -514.5700687205672921
  Basis Set: (AUG-CC-PVTZ AUX)
    Blend: AUG-CC-PVTZ-RI
    Molecular point group: c1

    Geometry (in Angstrom), charge = 0, multiplicity = 1:

       Center              X                  Y                   Z               Mass
    ------------   -----------------  -----------------  -----------------  -----------------
         O            2.987150750367    -1.498787367380     0.080243911995    15.994914619570
         N            0.818367750367    -1.064765367380    -0.416768088005    14.003074004430
         C            0.182624750367     2.000968632620    -0.234708088005    12.000000000000
         C            1.672390750367     1.695410632620    -0.346062088005    12.000000000000
         C           -0.780850249633     0.835715632620    -0.097707088005    12.000000000000
         C            2.134805750367     0.675603632620     0.701944911995    12.000000000000
         C           -0.473001249633    -0.537384367380    -0.174259088005    12.000000000000
         C            2.081257250367    -0.852985667380     0.110544711995    12.000000000000
         C           -2.123764249633     1.182699632620     0.129784911995    12.000000000000
         C           -1.505355249633    -1.489214367380    -0.080454088005    12.000000000000
         C           -3.144721249633     0.242570632620     0.219729911995    12.000000000000
         C           -2.828393249633    -1.112720367380     0.111734911995    12.000000000000
         H           -0.127573249633     2.601023632620    -1.100320088005     1.007825032230
         H            0.034628750367     2.645638632620     0.642078911995     1.007825032230
         H            1.917434750367     1.325125632620    -1.347254088005     1.007825032230
         H            2.222556750367     2.634699632620    -0.220546088005     1.007825032230
         H            1.523692750367     0.760948632620     1.610553911995     1.007825032230
         H            3.180075750367     0.815493632620     0.986141911995     1.007825032230
         H            0.832764750367    -2.029247367380    -0.741065088005     1.007825032230
         H           -2.369180249633     2.241556632620     0.205603911995     1.007825032230
         H           -1.245950249633    -2.545284367380    -0.136168088005     1.007825032230
         H           -4.170544249633     0.561970632620     0.383806911995     1.007825032230
         H           -3.602585249633    -1.872793367380     0.179502911995     1.007825032230

  Basis Set: AUG-CC-PVTZ
    Blend: AUG-CC-PVTZ
  Basis Set: (AUG-CC-PVTZ AUX)
    Blend: AUG-CC-PVTZ-JKFIT
	 Reference Energy          =    -514.5700687205672921 [Eh]
	 Singles Energy            =      -0.0000000000000000 [Eh]
	 Same-Spin Energy          =      -0.5555663239348390 [Eh]
	 Opposite-Spin Energy      =      -1.7386548547364293 [Eh]
	 Correlation Energy        =      -2.2942211786712683 [Eh]
	 Total Energy              =    -516.8642898992385426 [Eh]

	 ================> DF-SCS-MP2 Energies <==================
	-----------------------------------------------------------
	 SCS Same-Spin Scale       =       0.3333333333333333 [-]
	 SCS Opposite-Spin Scale   =       1.2000000000000000 [-]
	 SCS Same-Spin Energy      =      -0.1851887746449463 [Eh]
	 SCS Opposite-Spin Energy  =      -2.0863858256837151 [Eh]
	 SCS Correlation Energy    =      -2.2715746003286617 [Eh]
	 SCS Total Energy          =    -516.8416433208959688 [Eh]
	-----------------------------------------------------------

  Dipole Moment: [D]
     X:    -2.2481      Y:     1.2887      Z:    -0.0701     Total:     2.5923

*** Psi4 exiting successfully. Buy a developer a beer!
