                               Psi4 1.3.2 release

  ==> Input File <==

--------------------------------------------------------------------------
#psi4
#
memory 32 gb

molecule  {
0 1
  O        3.0005300    -1.5493530     0.0754490
  N        0.8317470    -1.1153310    -0.4215630
  C        0.1553877     1.9836420    -0.2321809
  C        1.6857700     1.6448450    -0.3508570
  C       -0.7674710     0.7851500    -0.1025020
  C        2.1481850     0.6250380     0.6971500
  C       -0.4596220    -0.5879500    -0.1790540
  C        2.0510250    -0.7686880     0.1361100
  C       -2.1103850     1.1321340     0.1249900
  C       -1.4919760    -1.5397800    -0.0852490
  C       -3.1313420     0.1920050     0.2149350
  C       -2.8150140    -1.1632860     0.1069400
  H       -0.1141940     2.5504580    -1.1051150
  H        0.0480080     2.5950730     0.6372840
  H        1.9308140     1.2745600    -1.3520490
  H        2.2359360     2.5841340    -0.2253410
  H        1.5370720     0.7103830     1.6057590
  H        3.1934550     0.7649280     0.9813470
  H        0.8461440    -2.0798130    -0.7458600
  H       -2.3558010     2.1909910     0.2008090
  H       -1.2325710    -2.5958500    -0.1409630
  H       -4.1571650     0.5114050     0.3790120
  H       -3.5892060    -1.9233590     0.1747080
units angstrom
no_reorient  #important for SAPT in psi4, default
symmetry c1  #important for SAPT in psi4, default
}

set PROPERTIES_ORIGIN ["COM"]
properties('MP2/aug-cc-pvtz', properties = ['dipole'])
--------------------------------------------------------------------------

    Molecular point group: c1
  Charge       = 0
  Multiplicity = 1
  Basis Set: AUG-CC-PVTZ
    Blend: AUG-CC-PVTZ
  Basis Set: (AUG-CC-PVTZ AUX)
    Blend: AUG-CC-PVTZ-JKFIT

    Orbital Energies [Eh]
    ---------------------

    Doubly Occupied:

       1A    -20.525399     2A    -15.595911     3A    -11.356664
       4A    -11.298330     5A    -11.254480     6A    -11.246677
       7A    -11.244660     8A    -11.244330     9A    -11.243534
      10A    -11.242580    11A    -11.242384    12A    -11.239384
      13A     -1.379817    14A     -1.252709    15A     -1.151516
      16A     -1.097080    17A     -1.039221    18A     -1.015624
      19A     -0.955725    20A     -0.880026    21A     -0.842487
      22A     -0.810574    23A     -0.765583    24A     -0.721814
      25A     -0.680910    26A     -0.670965    27A     -0.645266
      28A     -0.629072    29A     -0.613068    30A     -0.604291
      31A     -0.599607    32A     -0.579507    33A     -0.565127
      34A     -0.541332    35A     -0.517028    36A     -0.511267
      37A     -0.501113    38A     -0.492783    39A     -0.475247
      40A     -0.435177    41A     -0.425498    42A     -0.341310
      43A     -0.316365

  @DF-RHF Final Energy:  -514.59220597015872

   => Energetics <=

    Nuclear Repulsion Energy =            674.4396776944145131
    One-Electron Energy =               -2036.4808777855319022
    Two-Electron Energy =                 847.4489941209586732
    Total Energy =                       -514.5922059701587159
  Basis Set: (AUG-CC-PVTZ AUX)
    Blend: AUG-CC-PVTZ-RI
    Molecular point group: c1

    Geometry (in Angstrom), charge = 0, multiplicity = 1:

       Center              X                  Y                   Z               Mass
    ------------   -----------------  -----------------  -----------------  -----------------
         O            2.993425322631    -1.511310192731     0.077436759079    15.994914619570
         N            0.824642322631    -1.077288192731    -0.419575240921    14.003074004430
         C            0.148283022631     2.021684807269    -0.230193140921    12.000000000000
         C            1.678665322631     1.682887807269    -0.348869240921    12.000000000000
         C           -0.774575677369     0.823192807269    -0.100514240921    12.000000000000
         C            2.141080322631     0.663080807269     0.699137759079    12.000000000000
         C           -0.466726677369    -0.549907192731    -0.177066240921    12.000000000000
         C            2.043920322631    -0.730645192731     0.138097759079    12.000000000000
         C           -2.117489677369     1.170176807269     0.126977759079    12.000000000000
         C           -1.499080677369    -1.501737192731    -0.083261240921    12.000000000000
         C           -3.138446677369     0.230047807269     0.216922759079    12.000000000000
         C           -2.822118677369    -1.125243192731     0.108927759079    12.000000000000
         H           -0.121298677369     2.588500807269    -1.103127240921     1.007825032230
         H            0.040903322631     2.633115807269     0.639271759079     1.007825032230
         H            1.923709322631     1.312602807269    -1.350061240921     1.007825032230
         H            2.228831322631     2.622176807269    -0.223353240921     1.007825032230
         H            1.529967322631     0.748425807269     1.607746759079     1.007825032230
         H            3.186350322631     0.802970807269     0.983334759079     1.007825032230
         H            0.839039322631    -2.041770192731    -0.743872240921     1.007825032230
         H           -2.362905677369     2.229033807269     0.202796759079     1.007825032230
         H           -1.239675677369    -2.557807192731    -0.138975240921     1.007825032230
         H           -4.164269677369     0.549447807269     0.380999759079     1.007825032230
         H           -3.596310677369    -1.885316192731     0.176695759079     1.007825032230

  Basis Set: AUG-CC-PVTZ
    Blend: AUG-CC-PVTZ
  Basis Set: (AUG-CC-PVTZ AUX)
    Blend: AUG-CC-PVTZ-JKFIT
	 Reference Energy          =    -514.5922059701587159 [Eh]
	 Singles Energy            =      -0.0000000000000000 [Eh]
	 Same-Spin Energy          =      -0.5576196395896886 [Eh]
	 Opposite-Spin Energy      =      -1.7428945180987299 [Eh]
	 Correlation Energy        =      -2.3005141576884185 [Eh]
	 Total Energy              =    -516.8927201278471557 [Eh]

	 ================> DF-SCS-MP2 Energies <==================
	-----------------------------------------------------------
	 SCS Same-Spin Scale       =       0.3333333333333333 [-]
	 SCS Opposite-Spin Scale   =       1.2000000000000000 [-]
	 SCS Same-Spin Energy      =      -0.1858732131965629 [Eh]
	 SCS Opposite-Spin Energy  =      -2.0914734217184758 [Eh]
	 SCS Correlation Energy    =      -2.2773466349150389 [Eh]
	 SCS Total Energy          =    -516.8695526050737499 [Eh]
	-----------------------------------------------------------

  Dipole Moment: [D]
     X:    -2.7729      Y:     2.0634      Z:     0.0419     Total:     3.4567

*** Psi4 exiting successfully. Buy a developer a beer!
