                               Psi4 1.4a3.dev225

  ==> Input File <==

--------------------------------------------------------------------------
#psi4
#
memory 32 gb

molecule  {
0 1
  O        3.0005300    -1.5493530     0.0754490
  N        0.8317470    -1.1153310    -0.4215630
  C        0.1960040     1.9504030    -0.2395030
  C        1.6857700     1.6448450    -0.3508570
  C       -0.7674710     0.7851500    -0.1025020
  C        2.1481850     0.6250380     0.6971500
  C       -0.4552531    -0.6074367    -0.1801404
  C        2.0510250    -0.7686880     0.1361100
  C       -2.1103850     1.1321340     0.1249900
  C       -1.4919760    -1.5397800    -0.0852490
  C       -3.1313420     0.1920050     0.2149350
  C       -2.8150140    -1.1632860     0.1069400
  H       -0.1141940     2.5504580    -1.1051150
  H        0.0480080     2.5950730     0.6372840
  H        1.9308140     1.2745600    -1.3520490
  H        2.2359360     2.5841340    -0.2253410
  H        1.5370720     0.7103830     1.6057590
  H        3.1934550     0.7649280     0.9813470
  H        0.8461440    -2.0798130    -0.7458600
  H       -2.3558010     2.1909910     0.2008090
  H       -1.2325710    -2.5958500    -0.1409630
  H       -4.1571650     0.5114050     0.3790120
  H       -3.5892060    -1.9233590     0.1747080
units angstrom
no_reorient  #important for SAPT in psi4, default
symmetry c1  #important for SAPT in psi4, default
}

set PROPERTIES_ORIGIN ["COM"]
properties('MP2/aug-cc-pvtz', properties = ['dipole'])
--------------------------------------------------------------------------

    Molecular point group: c1
  Charge       = 0
  Multiplicity = 1
  Basis Set: AUG-CC-PVTZ
    Blend: AUG-CC-PVTZ
  Basis Set: (AUG-CC-PVTZ AUX)
    Blend: AUG-CC-PVTZ-JKFIT

    Orbital Energies [Eh]
    ---------------------

    Doubly Occupied:

       1A    -20.526806     2A    -15.596884     3A    -11.358201
       4A    -11.297697     5A    -11.256738     6A    -11.246056
       7A    -11.244827     8A    -11.244375     9A    -11.243284
      10A    -11.242969    11A    -11.242340    12A    -11.239311
      13A     -1.381304    14A     -1.256129    15A     -1.150393
      16A     -1.102109    17A     -1.037711    18A     -1.017148
      19A     -0.956242    20A     -0.881736    21A     -0.841311
      22A     -0.808925    23A     -0.766938    24A     -0.722924
      25A     -0.682261    26A     -0.670609    27A     -0.646491
      28A     -0.628408    29A     -0.611612    30A     -0.603702
      31A     -0.601392    32A     -0.578458    33A     -0.564745
      34A     -0.542543    35A     -0.517003    36A     -0.510576
      37A     -0.498093    38A     -0.491166    39A     -0.483072
      40A     -0.436514    41A     -0.427062    42A     -0.340436
      43A     -0.313872

  @DF-RHF Final Energy:  -514.59359397714479

   => Energetics <=

    Nuclear Repulsion Energy =            674.9725100337208232
    One-Electron Energy =               -2037.5114667486402595
    Two-Electron Energy =                 847.9453627377747580
    Total Energy =                       -514.5935939771447920
  Basis Set: (AUG-CC-PVTZ AUX)
    Blend: AUG-CC-PVTZ-RI
    Molecular point group: c1

    Geometry (in Angstrom), charge = 0, multiplicity = 1:

       Center              X                  Y                   Z               Mass
    ------------   -----------------  -----------------  -----------------  -----------------
         O            2.990074138245    -1.507382377748     0.078063152513    15.994914619570
         N            0.821291138245    -1.073360377748    -0.418948847487    14.003074004430
         C            0.185548138245     1.992373622252    -0.236888847487    12.000000000000
         C            1.675314138245     1.686815622252    -0.348242847487    12.000000000000
         C           -0.777926861755     0.827120622252    -0.099887847487    12.000000000000
         C            2.137729138245     0.667008622252     0.699764152513    12.000000000000
         C           -0.465708961755    -0.565466077748    -0.177526247487    12.000000000000
         C            2.040569138245    -0.726717377748     0.138724152513    12.000000000000
         C           -2.120840861755     1.174104622252     0.127604152513    12.000000000000
         C           -1.502431861755    -1.497809377748    -0.082634847487    12.000000000000
         C           -3.141797861755     0.233975622252     0.217549152513    12.000000000000
         C           -2.825469861755    -1.121315377748     0.109554152513    12.000000000000
         H           -0.124649861755     2.592428622252    -1.102500847487     1.007825032230
         H            0.037552138245     2.637043622252     0.639898152513     1.007825032230
         H            1.920358138245     1.316530622252    -1.349434847487     1.007825032230
         H            2.225480138245     2.626104622252    -0.222726847487     1.007825032230
         H            1.526616138245     0.752353622252     1.608373152513     1.007825032230
         H            3.182999138245     0.806898622252     0.983961152513     1.007825032230
         H            0.835688138245    -2.037842377748    -0.743245847487     1.007825032230
         H           -2.366256861755     2.232961622252     0.203423152513     1.007825032230
         H           -1.243026861755    -2.553879377748    -0.138348847487     1.007825032230
         H           -4.167620861755     0.553375622252     0.381626152513     1.007825032230
         H           -3.599661861755    -1.881388377748     0.177322152513     1.007825032230

  Basis Set: AUG-CC-PVTZ
    Blend: AUG-CC-PVTZ
  Basis Set: (AUG-CC-PVTZ AUX)
    Blend: AUG-CC-PVTZ-JKFIT
	 Reference Energy          =    -514.5935939771447920 [Eh]
	 Singles Energy            =      -0.0000000000000000 [Eh]
	 Same-Spin Energy          =      -0.5580292339986144 [Eh]
	 Opposite-Spin Energy      =      -1.7432129767537148 [Eh]
	 Correlation Energy        =      -2.3012422107523292 [Eh]
	 Total Energy              =    -516.8948361878971127 [Eh]

	 ================> DF-SCS-MP2 Energies <==================
	-----------------------------------------------------------
	 SCS Same-Spin Scale       =       0.3333333333333333 [-]
	 SCS Opposite-Spin Scale   =       1.2000000000000000 [-]
	 SCS Same-Spin Energy      =      -0.1860097446662048 [Eh]
	 SCS Opposite-Spin Energy  =      -2.0918555721044578 [Eh]
	 SCS Correlation Energy    =      -2.2778653167706624 [Eh]
	 SCS Total Energy          =    -516.8714592939154500 [Eh]
	-----------------------------------------------------------

  Dipole Moment: [D]
     X:    -2.6679      Y:     2.0458      Z:     0.0337     Total:     3.3621

*** Psi4 exiting successfully. Buy a developer a beer!
