                               Psi4 1.3.2 release

  ==> Input File <==

--------------------------------------------------------------------------
#psi4
#
memory 32 gb

molecule  {
0 1
  O        3.0005300    -1.5493530     0.0754490
  N        0.8317470    -1.1153310    -0.4215630
  C        0.1960040     1.9504030    -0.2395030
  C        1.6857700     1.6448450    -0.3508570
  C       -0.7674710     0.7851500    -0.1025020
  C        2.1481850     0.6250380     0.6971500
  C       -0.4596220    -0.5879500    -0.1790540
  C        2.1281752    -0.8321195     0.1311811
  C       -2.1103850     1.1321340     0.1249900
  C       -1.4919760    -1.5397800    -0.0852490
  C       -3.1313420     0.1920050     0.2149350
  C       -2.8150140    -1.1632860     0.1069400
  H       -0.1141940     2.5504580    -1.1051150
  H        0.0480080     2.5950730     0.6372840
  H        1.9308140     1.2745600    -1.3520490
  H        2.2359360     2.5841340    -0.2253410
  H        1.5370720     0.7103830     1.6057590
  H        3.1934550     0.7649280     0.9813470
  H        0.8461440    -2.0798130    -0.7458600
  H       -2.3558010     2.1909910     0.2008090
  H       -1.2325710    -2.5958500    -0.1409630
  H       -4.1571650     0.5114050     0.3790120
  H       -3.5892060    -1.9233590     0.1747080
units angstrom
no_reorient  #important for SAPT in psi4, default
symmetry c1  #important for SAPT in psi4, default
}

set PROPERTIES_ORIGIN ["COM"]
properties('MP2/aug-cc-pvtz', properties = ['dipole'])
--------------------------------------------------------------------------

    Molecular point group: c1
  Charge       = 0
  Multiplicity = 1
  Basis Set: AUG-CC-PVTZ
    Blend: AUG-CC-PVTZ
  Basis Set: (AUG-CC-PVTZ AUX)
    Blend: AUG-CC-PVTZ-JKFIT

    Orbital Energies [Eh]
    ---------------------

    Doubly Occupied:

       1A    -20.545925     2A    -15.582222     3A    -11.354208
       4A    -11.292842     5A    -11.249314     6A    -11.241893
       7A    -11.240682     8A    -11.240475     9A    -11.239624
      10A    -11.238955    11A    -11.238238    12A    -11.234720
      13A     -1.454363    14A     -1.242290    15A     -1.144493
      16A     -1.094087    17A     -1.030898    18A     -1.008882
      19A     -0.947797    20A     -0.871372    21A     -0.837241
      22A     -0.801387    23A     -0.756353    24A     -0.715468
      25A     -0.689665    26A     -0.668335    27A     -0.654287
      28A     -0.632806    29A     -0.611091    30A     -0.610077
      31A     -0.597533    32A     -0.584679    33A     -0.570947
      34A     -0.539495    35A     -0.518340    36A     -0.515319
      37A     -0.498625    38A     -0.485742    39A     -0.481883
      40A     -0.440076    41A     -0.422759    42A     -0.335889
      43A     -0.309291

  @DF-RHF Final Energy:  -514.58326077262473

   => Energetics <=

    Nuclear Repulsion Energy =            674.5955493305046957
    One-Electron Energy =               -2036.8164809836328004
    Two-Electron Energy =                 847.6376708805032649
    Total Energy =                       -514.5832607726247261
  Basis Set: (AUG-CC-PVTZ AUX)
    Blend: AUG-CC-PVTZ-RI
    Molecular point group: c1

    Geometry (in Angstrom), charge = 0, multiplicity = 1:

       Center              X                  Y                   Z               Mass
    ------------   -----------------  -----------------  -----------------  -----------------
         O            2.984652276029    -1.504108698236     0.078349400568    15.994914619570
         N            0.815869276029    -1.070086698236    -0.418662599432    14.003074004430
         C            0.180126276029     1.995647301764    -0.236602599432    12.000000000000
         C            1.669892276029     1.690089301764    -0.347956599432    12.000000000000
         C           -0.783348723971     0.830394301764    -0.099601599432    12.000000000000
         C            2.132307276029     0.670282301764     0.700050400568    12.000000000000
         C           -0.475499723971    -0.542705698236    -0.176153599432    12.000000000000
         C            2.112297476029    -0.786875198236     0.134081500568    12.000000000000
         C           -2.126262723971     1.177378301764     0.127890400568    12.000000000000
         C           -1.507853723971    -1.494535698236    -0.082348599432    12.000000000000
         C           -3.147219723971     0.237249301764     0.217835400568    12.000000000000
         C           -2.830891723971    -1.118041698236     0.109840400568    12.000000000000
         H           -0.130071723971     2.595702301764    -1.102214599432     1.007825032230
         H            0.032130276029     2.640317301764     0.640184400568     1.007825032230
         H            1.914936276029     1.319804301764    -1.349148599432     1.007825032230
         H            2.220058276029     2.629378301764    -0.222440599432     1.007825032230
         H            1.521194276029     0.755627301764     1.608659400568     1.007825032230
         H            3.177577276029     0.810172301764     0.984247400568     1.007825032230
         H            0.830266276029    -2.034568698236    -0.742959599432     1.007825032230
         H           -2.371678723971     2.236235301764     0.203709400568     1.007825032230
         H           -1.248448723971    -2.550605698236    -0.138062599432     1.007825032230
         H           -4.173042723971     0.556649301764     0.381912400568     1.007825032230
         H           -3.605083723971    -1.878114698236     0.177608400568     1.007825032230

  Basis Set: AUG-CC-PVTZ
    Blend: AUG-CC-PVTZ
  Basis Set: (AUG-CC-PVTZ AUX)
    Blend: AUG-CC-PVTZ-JKFIT
	 Reference Energy          =    -514.5832607726247261 [Eh]
	 Singles Energy            =      -0.0000000000000000 [Eh]
	 Same-Spin Energy          =      -0.5558650957240874 [Eh]
	 Opposite-Spin Energy      =      -1.7391723906614778 [Eh]
	 Correlation Energy        =      -2.2950374863855654 [Eh]
	 Total Energy              =    -516.8782982590103074 [Eh]

	 ================> DF-SCS-MP2 Energies <==================
	-----------------------------------------------------------
	 SCS Same-Spin Scale       =       0.3333333333333333 [-]
	 SCS Opposite-Spin Scale   =       1.2000000000000000 [-]
	 SCS Same-Spin Energy      =      -0.1852883652413624 [Eh]
	 SCS Opposite-Spin Energy  =      -2.0870068687937731 [Eh]
	 SCS Correlation Energy    =      -2.2722952340351354 [Eh]
	 SCS Total Energy          =    -516.8555560066598673 [Eh]
	-----------------------------------------------------------

  Dipole Moment: [D]
     X:    -1.8282      Y:     1.6014      Z:     0.0936     Total:     2.4322

*** Psi4 exiting successfully. Buy a developer a beer!
