                               Psi4 1.3.2 release

  ==> Input File <==

--------------------------------------------------------------------------
#psi4
#
memory 32 gb

molecule  {
0 1
  O        3.0005300    -1.5493530     0.0754490
  N        0.8317470    -1.1153310    -0.4215630
  C        0.1960040     1.9504030    -0.2395030
  C        1.6857700     1.6448450    -0.3508570
  C       -0.7674710     0.7851500    -0.1025020
  C        2.1481850     0.6250380     0.6971500
  C       -0.5096003    -0.6851119    -0.2791754
  C        2.0510250    -0.7686880     0.1361100
  C       -2.1103850     1.1321340     0.1249900
  C       -1.4919760    -1.5397800    -0.0852490
  C       -3.1313420     0.1920050     0.2149350
  C       -2.8150140    -1.1632860     0.1069400
  H       -0.1141940     2.5504580    -1.1051150
  H        0.0480080     2.5950730     0.6372840
  H        1.9308140     1.2745600    -1.3520490
  H        2.2359360     2.5841340    -0.2253410
  H        1.5370720     0.7103830     1.6057590
  H        3.1934550     0.7649280     0.9813470
  H        0.8461440    -2.0798130    -0.7458600
  H       -2.3558010     2.1909910     0.2008090
  H       -1.2325710    -2.5958500    -0.1409630
  H       -4.1571650     0.5114050     0.3790120
  H       -3.5892060    -1.9233590     0.1747080
units angstrom
no_reorient  #important for SAPT in psi4, default
symmetry c1  #important for SAPT in psi4, default
}

set PROPERTIES_ORIGIN ["COM"]
properties('MP2/aug-cc-pvtz', properties = ['dipole'])
--------------------------------------------------------------------------

    Molecular point group: c1
  Charge       = 0
  Multiplicity = 1
  Basis Set: AUG-CC-PVTZ
    Blend: AUG-CC-PVTZ
  Basis Set: (AUG-CC-PVTZ AUX)
    Blend: AUG-CC-PVTZ-JKFIT

    Orbital Energies [Eh]
    ---------------------

    Doubly Occupied:

       1A    -20.526271     2A    -15.594434     3A    -11.360230
       4A    -11.296824     5A    -11.263976     6A    -11.246633
       7A    -11.246214     8A    -11.243079     9A    -11.242965
      10A    -11.242228    11A    -11.240450    12A    -11.234726
      13A     -1.380342    14A     -1.252525    15A     -1.151281
      16A     -1.103814    17A     -1.035721    18A     -1.027161
      19A     -0.953672    20A     -0.884248    21A     -0.834365
      22A     -0.807281    23A     -0.774159    24A     -0.719249
      25A     -0.681323    26A     -0.668088    27A     -0.646277
      28A     -0.627966    29A     -0.612487    30A     -0.607209
      31A     -0.601694    32A     -0.573482    33A     -0.564226
      34A     -0.542771    35A     -0.515420    36A     -0.509747
      37A     -0.500101    38A     -0.486389    39A     -0.485113
      40A     -0.434894    41A     -0.427213    42A     -0.345645
      43A     -0.311477

  @DF-RHF Final Energy:  -514.57596890443506

   => Energetics <=

    Nuclear Repulsion Energy =            674.2019653985804553
    One-Electron Energy =               -2035.9491331033109418
    Two-Electron Energy =                 847.1711988002955422
    Total Energy =                       -514.5759689044350580
  Basis Set: (AUG-CC-PVTZ AUX)
    Blend: AUG-CC-PVTZ-RI
    Molecular point group: c1

    Geometry (in Angstrom), charge = 0, multiplicity = 1:

       Center              X                  Y                   Z               Mass
    ------------   -----------------  -----------------  -----------------  -----------------
         O            2.994122747300    -1.501595943156     0.085440791062    15.994914619570
         N            0.825339747300    -1.067573943156    -0.411571208938    14.003074004430
         C            0.189596747300     1.998160056844    -0.229511208938    12.000000000000
         C            1.679362747300     1.692602056844    -0.340865208938    12.000000000000
         C           -0.773878252700     0.832907056844    -0.092510208938    12.000000000000
         C            2.141777747300     0.672795056844     0.707141791062    12.000000000000
         C           -0.516007552700    -0.637354843156    -0.269183608938    12.000000000000
         C            2.044617747300    -0.720930943156     0.146101791062    12.000000000000
         C           -2.116792252700     1.179891056844     0.134981791062    12.000000000000
         C           -1.498383252700    -1.492022943156    -0.075257208938    12.000000000000
         C           -3.137749252700     0.239762056844     0.224926791062    12.000000000000
         C           -2.821421252700    -1.115528943156     0.116931791062    12.000000000000
         H           -0.120601252700     2.598215056844    -1.095123208938     1.007825032230
         H            0.041600747300     2.642830056844     0.647275791062     1.007825032230
         H            1.924406747300     1.322317056844    -1.342057208938     1.007825032230
         H            2.229528747300     2.631891056844    -0.215349208938     1.007825032230
         H            1.530664747300     0.758140056844     1.615750791062     1.007825032230
         H            3.187047747300     0.812685056844     0.991338791062     1.007825032230
         H            0.839736747300    -2.032055943156    -0.735868208938     1.007825032230
         H           -2.362208252700     2.238748056844     0.210800791062     1.007825032230
         H           -1.238978252700    -2.548092943156    -0.130971208938     1.007825032230
         H           -4.163572252700     0.559162056844     0.389003791062     1.007825032230
         H           -3.595613252700    -1.875601943156     0.184699791062     1.007825032230

  Basis Set: AUG-CC-PVTZ
    Blend: AUG-CC-PVTZ
  Basis Set: (AUG-CC-PVTZ AUX)
    Blend: AUG-CC-PVTZ-JKFIT
	 Reference Energy          =    -514.5759689044350580 [Eh]
	 Singles Energy            =      -0.0000000000000000 [Eh]
	 Same-Spin Energy          =      -0.5580613971238381 [Eh]
	 Opposite-Spin Energy      =      -1.7441549410590040 [Eh]
	 Correlation Energy        =      -2.3022163381828422 [Eh]
	 Total Energy              =    -516.8781852426178602 [Eh]

	 ================> DF-SCS-MP2 Energies <==================
	-----------------------------------------------------------
	 SCS Same-Spin Scale       =       0.3333333333333333 [-]
	 SCS Opposite-Spin Scale   =       1.2000000000000000 [-]
	 SCS Same-Spin Energy      =      -0.1860204657079460 [Eh]
	 SCS Opposite-Spin Energy  =      -2.0929859292708048 [Eh]
	 SCS Correlation Energy    =      -2.2790063949787509 [Eh]
	 SCS Total Energy          =    -516.8549752994138089 [Eh]
	-----------------------------------------------------------

  Dipole Moment: [D]
     X:    -2.7610      Y:     2.0852      Z:     0.0452     Total:     3.4602

*** Psi4 exiting successfully. Buy a developer a beer!
