                               Psi4 1.3.2 release

  ==> Input File <==

--------------------------------------------------------------------------
#psi4
#
memory 32 gb

molecule  {
0 1
  O        3.0005300    -1.5493530     0.0754490
  N        0.8317470    -1.1153310    -0.4215630
  C        0.1960040     1.9504030    -0.2395030
  C        1.6857700     1.6448450    -0.3508570
  C       -0.7674710     0.7851500    -0.1025020
  C        2.1481850     0.6250380     0.6971500
  C       -0.2772034    -0.6624478    -0.2133108
  C        2.0510250    -0.7686880     0.1361100
  C       -2.1103850     1.1321340     0.1249900
  C       -1.4919760    -1.5397800    -0.0852490
  C       -3.1313420     0.1920050     0.2149350
  C       -2.8150140    -1.1632860     0.1069400
  H       -0.1141940     2.5504580    -1.1051150
  H        0.0480080     2.5950730     0.6372840
  H        1.9308140     1.2745600    -1.3520490
  H        2.2359360     2.5841340    -0.2253410
  H        1.5370720     0.7103830     1.6057590
  H        3.1934550     0.7649280     0.9813470
  H        0.8461440    -2.0798130    -0.7458600
  H       -2.3558010     2.1909910     0.2008090
  H       -1.2325710    -2.5958500    -0.1409630
  H       -4.1571650     0.5114050     0.3790120
  H       -3.5892060    -1.9233590     0.1747080
units angstrom
no_reorient  #important for SAPT in psi4, default
symmetry c1  #important for SAPT in psi4, default
}

set PROPERTIES_ORIGIN ["COM"]
properties('MP2/aug-cc-pvtz', properties = ['dipole'])
--------------------------------------------------------------------------

    Molecular point group: c1
  Charge       = 0
  Multiplicity = 1
  Basis Set: AUG-CC-PVTZ
    Blend: AUG-CC-PVTZ
  Basis Set: (AUG-CC-PVTZ AUX)
    Blend: AUG-CC-PVTZ-JKFIT

    Orbital Energies [Eh]
    ---------------------

    Doubly Occupied:

       1A    -20.546566     2A    -15.614857     3A    -11.375413
       4A    -11.309313     5A    -11.255591     6A    -11.251213
       7A    -11.245199     8A    -11.242585     9A    -11.240387
      10A    -11.239142    11A    -11.237138    12A    -11.227164
      13A     -1.407850    14A     -1.326198    15A     -1.133484
      16A     -1.103783    17A     -1.032997    18A     -1.003953
      19A     -0.949597    20A     -0.903978    21A     -0.848828
      22A     -0.814039    23A     -0.765485    24A     -0.747105
      25A     -0.695595    26A     -0.671337    27A     -0.655408
      28A     -0.629973    29A     -0.618480    30A     -0.605509
      31A     -0.595531    32A     -0.576780    33A     -0.569380
      34A     -0.547657    35A     -0.517316    36A     -0.509633
      37A     -0.499566    38A     -0.487742    39A     -0.464872
      40A     -0.444545    41A     -0.440044    42A     -0.332505
      43A     -0.282838

  @DF-RHF Final Energy:  -514.53030424369661

   => Energetics <=

    Nuclear Repulsion Energy =            675.5324090120080882
    One-Electron Energy =               -2038.1922719054971367
    Two-Electron Energy =                 848.1295586497923296
    Total Energy =                       -514.5303042436966052
  Basis Set: (AUG-CC-PVTZ AUX)
    Blend: AUG-CC-PVTZ-RI
    Molecular point group: c1

    Geometry (in Angstrom), charge = 0, multiplicity = 1:

       Center              X                  Y                   Z               Mass
    ------------   -----------------  -----------------  -----------------  -----------------
         O            2.976810278697    -1.503284311287     0.080534190244    15.994914619570
         N            0.808027278697    -1.069262311287    -0.416477809756    14.003074004430
         C            0.172284278697     1.996471688713    -0.234417809756    12.000000000000
         C            1.662050278697     1.690913688713    -0.345771809756    12.000000000000
         C           -0.791190721303     0.831218688713    -0.097416809756    12.000000000000
         C            2.124465278697     0.671106688713     0.702235190244    12.000000000000
         C           -0.300923121303    -0.616379111287    -0.208225609756    12.000000000000
         C            2.027305278697    -0.722619311287     0.141195190244    12.000000000000
         C           -2.134104721303     1.178202688713     0.130075190244    12.000000000000
         C           -1.515695721303    -1.493711311287    -0.080163809756    12.000000000000
         C           -3.155061721303     0.238073688713     0.220020190244    12.000000000000
         C           -2.838733721303    -1.117217311287     0.112025190244    12.000000000000
         H           -0.137913721303     2.596526688713    -1.100029809756     1.007825032230
         H            0.024288278697     2.641141688713     0.642369190244     1.007825032230
         H            1.907094278697     1.320628688713    -1.346963809756     1.007825032230
         H            2.212216278697     2.630202688713    -0.220255809756     1.007825032230
         H            1.513352278697     0.756451688713     1.610844190244     1.007825032230
         H            3.169735278697     0.810996688713     0.986432190244     1.007825032230
         H            0.822424278697    -2.033744311287    -0.740774809756     1.007825032230
         H           -2.379520721303     2.237059688713     0.205894190244     1.007825032230
         H           -1.256290721303    -2.549781311287    -0.135877809756     1.007825032230
         H           -4.180884721303     0.557473688713     0.384097190244     1.007825032230
         H           -3.612925721303    -1.877290311287     0.179793190244     1.007825032230

  Basis Set: AUG-CC-PVTZ
    Blend: AUG-CC-PVTZ
  Basis Set: (AUG-CC-PVTZ AUX)
    Blend: AUG-CC-PVTZ-JKFIT
	 Reference Energy          =    -514.5303042436966052 [Eh]
	 Singles Energy            =      -0.0000000000000000 [Eh]
	 Same-Spin Energy          =      -0.5616165698181521 [Eh]
	 Opposite-Spin Energy      =      -1.7484343110380682 [Eh]
	 Correlation Energy        =      -2.3100508808562203 [Eh]
	 Total Energy              =    -516.8403551245528433 [Eh]

	 ================> DF-SCS-MP2 Energies <==================
	-----------------------------------------------------------
	 SCS Same-Spin Scale       =       0.3333333333333333 [-]
	 SCS Opposite-Spin Scale   =       1.2000000000000000 [-]
	 SCS Same-Spin Energy      =      -0.1872055232727174 [Eh]
	 SCS Opposite-Spin Energy  =      -2.0981211732456817 [Eh]
	 SCS Correlation Energy    =      -2.2853266965183989 [Eh]
	 SCS Total Energy          =    -516.8156309402149873 [Eh]
	-----------------------------------------------------------

  Dipole Moment: [D]
     X:    -1.3996      Y:     1.7387      Z:    -0.0748     Total:     2.2333

*** Psi4 exiting successfully. Buy a developer a beer!
