                               Psi4 1.3.2 release

  ==> Input File <==

--------------------------------------------------------------------------
#psi4
#
memory 32 gb

molecule  {
0 1
  O        3.0005300    -1.5493530     0.0754490
  N        0.8317470    -1.1153310    -0.4215630
  C        0.1960040     1.9504030    -0.2395030
  C        1.6857700     1.6448450    -0.3508570
  C       -0.7558040     0.8327789    -0.1009867
  C        2.1481850     0.6250380     0.6971500
  C       -0.4596220    -0.5879500    -0.1790540
  C        2.0510250    -0.7686880     0.1361100
  C       -2.1103850     1.1321340     0.1249900
  C       -1.4919760    -1.5397800    -0.0852490
  C       -3.1313420     0.1920050     0.2149350
  C       -2.8150140    -1.1632860     0.1069400
  H       -0.1141940     2.5504580    -1.1051150
  H        0.0480080     2.5950730     0.6372840
  H        1.9308140     1.2745600    -1.3520490
  H        2.2359360     2.5841340    -0.2253410
  H        1.5370720     0.7103830     1.6057590
  H        3.1934550     0.7649280     0.9813470
  H        0.8461440    -2.0798130    -0.7458600
  H       -2.3558010     2.1909910     0.2008090
  H       -1.2325710    -2.5958500    -0.1409630
  H       -4.1571650     0.5114050     0.3790120
  H       -3.5892060    -1.9233590     0.1747080
units angstrom
no_reorient  #important for SAPT in psi4, default
symmetry c1  #important for SAPT in psi4, default
}

set PROPERTIES_ORIGIN ["COM"]
properties('MP2/aug-cc-pvtz', properties = ['dipole'])
--------------------------------------------------------------------------

    Molecular point group: c1
  Charge       = 0
  Multiplicity = 1
  Basis Set: AUG-CC-PVTZ
    Blend: AUG-CC-PVTZ
  Basis Set: (AUG-CC-PVTZ AUX)
    Blend: AUG-CC-PVTZ-JKFIT

    Orbital Energies [Eh]
    ---------------------

    Doubly Occupied:

       1A    -20.525915     2A    -15.596288     3A    -11.357200
       4A    -11.301814     5A    -11.258537     6A    -11.246443
       7A    -11.244658     8A    -11.244006     9A    -11.243943
      10A    -11.243350    11A    -11.243057    12A    -11.239519
      13A     -1.380295    14A     -1.252045    15A     -1.149897
      16A     -1.105494    17A     -1.040629    18A     -1.014782
      19A     -0.956122    20A     -0.884133    21A     -0.839079
      22A     -0.808155    23A     -0.766399    24A     -0.720304
      25A     -0.682494    26A     -0.672360    27A     -0.648072
      28A     -0.627029    29A     -0.611822    30A     -0.603598
      31A     -0.600761    32A     -0.580898    33A     -0.564734
      34A     -0.542703    35A     -0.516772    36A     -0.511587
      37A     -0.497702    38A     -0.489346    39A     -0.488565
      40A     -0.435179    41A     -0.426152    42A     -0.340377
      43A     -0.311178

  @DF-RHF Final Energy:  -514.59002554731728

   => Energetics <=

    Nuclear Repulsion Energy =            674.7132409753390903
    One-Electron Energy =               -2036.9797482776011748
    Two-Electron Energy =                 847.6764817549449162
    Total Energy =                       -514.5900255473172820
  Basis Set: (AUG-CC-PVTZ AUX)
    Blend: AUG-CC-PVTZ-RI
    Molecular point group: c1

    Geometry (in Angstrom), charge = 0, multiplicity = 1:

       Center              X                  Y                   Z               Mass
    ------------   -----------------  -----------------  -----------------  -----------------
         O            2.989530464353    -1.512382172142     0.077869338182    15.994914619570
         N            0.820747464353    -1.078360172142    -0.419142661818    14.003074004430
         C            0.185004464353     1.987373827858    -0.237082661818    12.000000000000
         C            1.674770464353     1.681815827858    -0.348436661818    12.000000000000
         C           -0.766803535647     0.869749727858    -0.098566361818    12.000000000000
         C            2.137185464353     0.662008827858     0.699570338182    12.000000000000
         C           -0.470621535647    -0.550979172142    -0.176633661818    12.000000000000
         C            2.040025464353    -0.731717172142     0.138530338182    12.000000000000
         C           -2.121384535647     1.169104827858     0.127410338182    12.000000000000
         C           -1.502975535647    -1.502809172142    -0.082828661818    12.000000000000
         C           -3.142341535647     0.228975827858     0.217355338182    12.000000000000
         C           -2.826013535647    -1.126315172142     0.109360338182    12.000000000000
         H           -0.125193535647     2.587428827858    -1.102694661818     1.007825032230
         H            0.037008464353     2.632043827858     0.639704338182     1.007825032230
         H            1.919814464353     1.311530827858    -1.349628661818     1.007825032230
         H            2.224936464353     2.621104827858    -0.222920661818     1.007825032230
         H            1.526072464353     0.747353827858     1.608179338182     1.007825032230
         H            3.182455464353     0.801898827858     0.983767338182     1.007825032230
         H            0.835144464353    -2.042842172142    -0.743439661818     1.007825032230
         H           -2.366800535647     2.227961827858     0.203229338182     1.007825032230
         H           -1.243570535647    -2.558879172142    -0.138542661818     1.007825032230
         H           -4.168164535647     0.548375827858     0.381432338182     1.007825032230
         H           -3.600205535647    -1.886388172142     0.177128338182     1.007825032230

  Basis Set: AUG-CC-PVTZ
    Blend: AUG-CC-PVTZ
  Basis Set: (AUG-CC-PVTZ AUX)
    Blend: AUG-CC-PVTZ-JKFIT
	 Reference Energy          =    -514.5900255473172820 [Eh]
	 Singles Energy            =      -0.0000000000000000 [Eh]
	 Same-Spin Energy          =      -0.5585036347479837 [Eh]
	 Opposite-Spin Energy      =      -1.7439360055616291 [Eh]
	 Correlation Energy        =      -2.3024396403096130 [Eh]
	 Total Energy              =    -516.8924651876268399 [Eh]

	 ================> DF-SCS-MP2 Energies <==================
	-----------------------------------------------------------
	 SCS Same-Spin Scale       =       0.3333333333333333 [-]
	 SCS Opposite-Spin Scale   =       1.2000000000000000 [-]
	 SCS Same-Spin Energy      =      -0.1861678782493279 [Eh]
	 SCS Opposite-Spin Energy  =      -2.0927232066739547 [Eh]
	 SCS Correlation Energy    =      -2.2788910849232824 [Eh]
	 SCS Total Energy          =    -516.8689166322405981 [Eh]
	-----------------------------------------------------------

  Dipole Moment: [D]
     X:    -2.6687      Y:     2.0871      Z:     0.0223     Total:     3.3880

*** Psi4 exiting successfully. Buy a developer a beer!
