                               Psi4 1.3.2 release

  ==> Input File <==

--------------------------------------------------------------------------
#psi4
#
memory 32 gb

molecule  {
0 1
  O        3.0005300    -1.5493530     0.0754490
  N        0.8317470    -1.1153310    -0.4215630
  C        0.1960040     1.9504030    -0.2395030
  C        1.6857700     1.6448450    -0.3508570
  C       -0.7674710     0.7851500    -0.1025020
  C        2.1481850     0.6250380     0.6971500
  C       -0.4596220    -0.5879500    -0.1790540
  C        1.8977322    -0.7399861     0.1134886
  C       -2.1103850     1.1321340     0.1249900
  C       -1.4919760    -1.5397800    -0.0852490
  C       -3.1313420     0.1920050     0.2149350
  C       -2.8150140    -1.1632860     0.1069400
  H       -0.1141940     2.5504580    -1.1051150
  H        0.0480080     2.5950730     0.6372840
  H        1.9308140     1.2745600    -1.3520490
  H        2.2359360     2.5841340    -0.2253410
  H        1.5370720     0.7103830     1.6057590
  H        3.1934550     0.7649280     0.9813470
  H        0.8461440    -2.0798130    -0.7458600
  H       -2.3558010     2.1909910     0.2008090
  H       -1.2325710    -2.5958500    -0.1409630
  H       -4.1571650     0.5114050     0.3790120
  H       -3.5892060    -1.9233590     0.1747080
units angstrom
no_reorient  #important for SAPT in psi4, default
symmetry c1  #important for SAPT in psi4, default
}

set PROPERTIES_ORIGIN ["COM"]
properties('MP2/aug-cc-pvtz', properties = ['dipole'])
--------------------------------------------------------------------------

    Molecular point group: c1
  Charge       = 0
  Multiplicity = 1
  Basis Set: AUG-CC-PVTZ
    Blend: AUG-CC-PVTZ
  Basis Set: (AUG-CC-PVTZ AUX)
    Blend: AUG-CC-PVTZ-JKFIT

    Orbital Energies [Eh]
    ---------------------

    Doubly Occupied:

       1A    -20.488397     2A    -15.620739     3A    -11.348551
       4A    -11.307317     5A    -11.267326     6A    -11.257144
       7A    -11.254991     8A    -11.253685     9A    -11.250725
      10A    -11.250245    11A    -11.244753    12A    -11.243156
      13A     -1.355437    14A     -1.234177    15A     -1.165687
      16A     -1.106564    17A     -1.044452    18A     -1.033692
      19A     -0.962540    20A     -0.897362    21A     -0.855863
      22A     -0.823014    23A     -0.784966    24A     -0.738725
      25A     -0.683200    26A     -0.676054    27A     -0.656213
      28A     -0.628768    29A     -0.616522    30A     -0.611357
      31A     -0.600726    32A     -0.579581    33A     -0.549729
      34A     -0.545299    35A     -0.519374    36A     -0.505790
      37A     -0.498337    38A     -0.492752    39A     -0.482776
      40A     -0.405764    41A     -0.394873    42A     -0.349489
      43A     -0.329267

  @DF-RHF Final Energy:  -514.55297326140965

   => Energetics <=

    Nuclear Repulsion Energy =            676.6146098736808199
    One-Electron Energy =               -2040.5044151560634873
    Two-Electron Energy =                 849.3368320209730200
    Total Energy =                       -514.5529732614096474
  Basis Set: (AUG-CC-PVTZ AUX)
    Blend: AUG-CC-PVTZ-RI
    Molecular point group: c1

    Geometry (in Angstrom), charge = 0, multiplicity = 1:

       Center              X                  Y                   Z               Mass
    ------------   -----------------  -----------------  -----------------  -----------------
         O            3.001819188334    -1.510972200265     0.079667408040    15.994914619570
         N            0.833036188334    -1.076950200265    -0.417344591960    14.003074004430
         C            0.197293188334     1.988783799735    -0.235284591960    12.000000000000
         C            1.687059188334     1.683225799735    -0.346638591960    12.000000000000
         C           -0.766181811666     0.823530799735    -0.098283591960    12.000000000000
         C            2.149474188334     0.663418799735     0.701368408040    12.000000000000
         C           -0.458332811666    -0.549569200265    -0.174835591960    12.000000000000
         C            1.899021388334    -0.701605300265     0.117707008040    12.000000000000
         C           -2.109095811666     1.170514799735     0.129208408040    12.000000000000
         C           -1.490686811666    -1.501399200265    -0.081030591960    12.000000000000
         C           -3.130052811666     0.230385799735     0.219153408040    12.000000000000
         C           -2.813724811666    -1.124905200265     0.111158408040    12.000000000000
         H           -0.112904811666     2.588838799735    -1.100896591960     1.007825032230
         H            0.049297188334     2.633453799735     0.641502408040     1.007825032230
         H            1.932103188334     1.312940799735    -1.347830591960     1.007825032230
         H            2.237225188334     2.622514799735    -0.221122591960     1.007825032230
         H            1.538361188334     0.748763799735     1.609977408040     1.007825032230
         H            3.194744188334     0.803308799735     0.985565408040     1.007825032230
         H            0.847433188334    -2.041432200265    -0.741641591960     1.007825032230
         H           -2.354511811666     2.229371799735     0.205027408040     1.007825032230
         H           -1.231281811666    -2.557469200265    -0.136744591960     1.007825032230
         H           -4.155875811666     0.549785799735     0.383230408040     1.007825032230
         H           -3.587916811666    -1.884978200265     0.178926408040     1.007825032230

  Basis Set: AUG-CC-PVTZ
    Blend: AUG-CC-PVTZ
  Basis Set: (AUG-CC-PVTZ AUX)
    Blend: AUG-CC-PVTZ-JKFIT
	 Reference Energy          =    -514.5529732614096474 [Eh]
	 Singles Energy            =      -0.0000000000000000 [Eh]
	 Same-Spin Energy          =      -0.5603416029135804 [Eh]
	 Opposite-Spin Energy      =      -1.7477859538740885 [Eh]
	 Correlation Energy        =      -2.3081275567876691 [Eh]
	 Total Energy              =    -516.8611008181973148 [Eh]

	 ================> DF-SCS-MP2 Energies <==================
	-----------------------------------------------------------
	 SCS Same-Spin Scale       =       0.3333333333333333 [-]
	 SCS Opposite-Spin Scale   =       1.2000000000000000 [-]
	 SCS Same-Spin Energy      =      -0.1867805343045268 [Eh]
	 SCS Opposite-Spin Energy  =      -2.0973431446489061 [Eh]
	 SCS Correlation Energy    =      -2.2841236789534332 [Eh]
	 SCS Total Energy          =    -516.8370969403630397 [Eh]
	-----------------------------------------------------------

  Dipole Moment: [D]
     X:    -4.3893      Y:     2.4971      Z:    -0.1901     Total:     5.0535

*** Psi4 exiting successfully. Buy a developer a beer!
