                               Psi4 1.3.2 release

  ==> Input File <==

--------------------------------------------------------------------------
#psi4
#
memory 32 gb

molecule  {
0 1
  O        3.0005300    -1.5493530     0.0754490
  N        0.8317470    -1.1153310    -0.4215630
  C        0.1960040     1.9504030    -0.2395030
  C        1.6857700     1.6448450    -0.3508570
  C       -0.7674710     0.7851500    -0.1025020
  C        2.1481850     0.6250380     0.6971500
  C       -0.4433193    -0.6061761    -0.1813607
  C        2.0510250    -0.7686880     0.1361100
  C       -2.1103850     1.1321340     0.1249900
  C       -1.4919760    -1.5397800    -0.0852490
  C       -3.1313420     0.1920050     0.2149350
  C       -2.8150140    -1.1632860     0.1069400
  H       -0.1141940     2.5504580    -1.1051150
  H        0.0480080     2.5950730     0.6372840
  H        1.9308140     1.2745600    -1.3520490
  H        2.2359360     2.5841340    -0.2253410
  H        1.5370720     0.7103830     1.6057590
  H        3.1934550     0.7649280     0.9813470
  H        0.8461440    -2.0798130    -0.7458600
  H       -2.3558010     2.1909910     0.2008090
  H       -1.2325710    -2.5958500    -0.1409630
  H       -4.1571650     0.5114050     0.3790120
  H       -3.5892060    -1.9233590     0.1747080
units angstrom
no_reorient  #important for SAPT in psi4, default
symmetry c1  #important for SAPT in psi4, default
}

set PROPERTIES_ORIGIN ["COM"]
properties('MP2/aug-cc-pvtz', properties = ['dipole'])
--------------------------------------------------------------------------

    Molecular point group: c1
  Charge       = 0
  Multiplicity = 1
  Basis Set: AUG-CC-PVTZ
    Blend: AUG-CC-PVTZ
  Basis Set: (AUG-CC-PVTZ AUX)
    Blend: AUG-CC-PVTZ-JKFIT

    Orbital Energies [Eh]
    ---------------------

    Doubly Occupied:

       1A    -20.527642     2A    -15.597875     3A    -11.358919
       4A    -11.298244     5A    -11.256403     6A    -11.245811
       7A    -11.244335     8A    -11.244171     9A    -11.243621
      10A    -11.243439    11A    -11.242465    12A    -11.238871
      13A     -1.382322    14A     -1.259168    15A     -1.149537
      16A     -1.102045    17A     -1.037604    18A     -1.015857
      19A     -0.956015    20A     -0.882380    21A     -0.841600
      22A     -0.809333    23A     -0.766719    24A     -0.724332
      25A     -0.682810    26A     -0.671217    27A     -0.646612
      28A     -0.627988    29A     -0.611828    30A     -0.603449
      31A     -0.601304    32A     -0.578838    33A     -0.565020
      34A     -0.542704    35A     -0.517407    36A     -0.510343
      37A     -0.497965    38A     -0.490608    39A     -0.482397
      40A     -0.437439    41A     -0.427844    42A     -0.339856
      43A     -0.312469

  @DF-RHF Final Energy:  -514.59313939770652

   => Energetics <=

    Nuclear Repulsion Energy =            675.0097148044757205
    One-Electron Energy =               -2037.5720930479108119
    Two-Electron Energy =                 847.9692388457284551
    Total Energy =                       -514.5931393977065227
  Basis Set: (AUG-CC-PVTZ AUX)
    Blend: AUG-CC-PVTZ-RI
    Molecular point group: c1

    Geometry (in Angstrom), charge = 0, multiplicity = 1:

       Center              X                  Y                   Z               Mass
    ------------   -----------------  -----------------  -----------------  -----------------
         O            2.989185126654    -1.507476286479     0.078154059084    15.994914619570
         N            0.820402126654    -1.073454286479    -0.418857940916    14.003074004430
         C            0.184659126654     1.992279713521    -0.236797940916    12.000000000000
         C            1.674425126654     1.686721713521    -0.348151940916    12.000000000000
         C           -0.778815873346     0.827026713521    -0.099796940916    12.000000000000
         C            2.136840126654     0.666914713521     0.699855059084    12.000000000000
         C           -0.454664173346    -0.564299386479    -0.178655640916    12.000000000000
         C            2.039680126654    -0.726811286479     0.138815059084    12.000000000000
         C           -2.121729873346     1.174010713521     0.127695059084    12.000000000000
         C           -1.503320873346    -1.497903286479    -0.082543940916    12.000000000000
         C           -3.142686873346     0.233881713521     0.217640059084    12.000000000000
         C           -2.826358873346    -1.121409286479     0.109645059084    12.000000000000
         H           -0.125538873346     2.592334713521    -1.102409940916     1.007825032230
         H            0.036663126654     2.636949713521     0.639989059084     1.007825032230
         H            1.919469126654     1.316436713521    -1.349343940916     1.007825032230
         H            2.224591126654     2.626010713521    -0.222635940916     1.007825032230
         H            1.525727126654     0.752259713521     1.608464059084     1.007825032230
         H            3.182110126654     0.806804713521     0.984052059084     1.007825032230
         H            0.834799126654    -2.037936286479    -0.743154940916     1.007825032230
         H           -2.367145873346     2.232867713521     0.203514059084     1.007825032230
         H           -1.243915873346    -2.553973286479    -0.138257940916     1.007825032230
         H           -4.168509873346     0.553281713521     0.381717059084     1.007825032230
         H           -3.600550873346    -1.881482286479     0.177413059084     1.007825032230

  Basis Set: AUG-CC-PVTZ
    Blend: AUG-CC-PVTZ
  Basis Set: (AUG-CC-PVTZ AUX)
    Blend: AUG-CC-PVTZ-JKFIT
	 Reference Energy          =    -514.5931393977065227 [Eh]
	 Singles Energy            =      -0.0000000000000000 [Eh]
	 Same-Spin Energy          =      -0.5581430500832161 [Eh]
	 Opposite-Spin Energy      =      -1.7433597734421156 [Eh]
	 Correlation Energy        =      -2.3015028235253316 [Eh]
	 Total Energy              =    -516.8946422212318339 [Eh]

	 ================> DF-SCS-MP2 Energies <==================
	-----------------------------------------------------------
	 SCS Same-Spin Scale       =       0.3333333333333333 [-]
	 SCS Opposite-Spin Scale   =       1.2000000000000000 [-]
	 SCS Same-Spin Energy      =      -0.1860476833610720 [Eh]
	 SCS Opposite-Spin Energy  =      -2.0920317281305385 [Eh]
	 SCS Correlation Energy    =      -2.2780794114916105 [Eh]
	 SCS Total Energy          =    -516.8712188091981261 [Eh]
	-----------------------------------------------------------

  Dipole Moment: [D]
     X:    -2.6060      Y:     2.0291      Z:     0.0272     Total:     3.3029

*** Psi4 exiting successfully. Buy a developer a beer!
