                               Psi4 1.3.2 release

  ==> Input File <==

--------------------------------------------------------------------------
#psi4
#
memory 32 gb

molecule  {
0 1
  O        3.0005300    -1.5493530     0.0754490
  N        0.8317470    -1.1153310    -0.4215630
  C        0.1960040     1.9504030    -0.2395030
  C        1.6803275     1.6188496    -0.3491574
  C       -0.7674710     0.7851500    -0.1025020
  C        2.1481850     0.6250380     0.6971500
  C       -0.4596220    -0.5879500    -0.1790540
  C        2.0510250    -0.7686880     0.1361100
  C       -2.1103850     1.1321340     0.1249900
  C       -1.4919760    -1.5397800    -0.0852490
  C       -3.1313420     0.1920050     0.2149350
  C       -2.8150140    -1.1632860     0.1069400
  H       -0.1141940     2.5504580    -1.1051150
  H        0.0480080     2.5950730     0.6372840
  H        1.9308140     1.2745600    -1.3520490
  H        2.2359360     2.5841340    -0.2253410
  H        1.5370720     0.7103830     1.6057590
  H        3.1934550     0.7649280     0.9813470
  H        0.8461440    -2.0798130    -0.7458600
  H       -2.3558010     2.1909910     0.2008090
  H       -1.2325710    -2.5958500    -0.1409630
  H       -4.1571650     0.5114050     0.3790120
  H       -3.5892060    -1.9233590     0.1747080
units angstrom
no_reorient  #important for SAPT in psi4, default
symmetry c1  #important for SAPT in psi4, default
}

set PROPERTIES_ORIGIN ["COM"]
properties('MP2/aug-cc-pvtz', properties = ['dipole'])
--------------------------------------------------------------------------

    Molecular point group: c1
  Charge       = 0
  Multiplicity = 1
  Basis Set: AUG-CC-PVTZ
    Blend: AUG-CC-PVTZ
  Basis Set: (AUG-CC-PVTZ AUX)
    Blend: AUG-CC-PVTZ-JKFIT

    Orbital Energies [Eh]
    ---------------------

    Doubly Occupied:

       1A    -20.525653     2A    -15.596118     3A    -11.356870
       4A    -11.297289     5A    -11.254725     6A    -11.246429
       7A    -11.245218     8A    -11.244858     9A    -11.244449
      10A    -11.243057    11A    -11.242318    12A    -11.239787
      13A     -1.380175    14A     -1.253182    15A     -1.151476
      16A     -1.103589    17A     -1.039985    18A     -1.016055
      19A     -0.957121    20A     -0.879531    21A     -0.842794
      22A     -0.808542    23A     -0.765829    24A     -0.722125
      25A     -0.682919    26A     -0.670890    27A     -0.644629
      28A     -0.629338    29A     -0.612202    30A     -0.603906
      31A     -0.600050    32A     -0.578600    33A     -0.564636
      34A     -0.540611    35A     -0.518151    36A     -0.512490
      37A     -0.499070    38A     -0.494870    39A     -0.478333
      40A     -0.435350    41A     -0.425509    42A     -0.340520
      43A     -0.315945

  @DF-RHF Final Energy:  -514.59334280347821

   => Energetics <=

    Nuclear Repulsion Energy =            675.4989743199547547
    One-Electron Energy =               -2038.5742485753696656
    Two-Electron Energy =                 848.4819314519368163
    Total Energy =                       -514.5933428034782082
  Basis Set: (AUG-CC-PVTZ AUX)
    Blend: AUG-CC-PVTZ-RI
    Molecular point group: c1

    Geometry (in Angstrom), charge = 0, multiplicity = 1:

       Center              X                  Y                   Z               Mass
    ------------   -----------------  -----------------  -----------------  -----------------
         O            2.990805041086    -1.506897510418     0.077855608705    15.994914619570
         N            0.822022041086    -1.072875510418    -0.419156391295    14.003074004430
         C            0.186279041086     1.992858489582    -0.237096391295    12.000000000000
         C            1.670602541086     1.661305089582    -0.346750791295    12.000000000000
         C           -0.777195958914     0.827605489582    -0.100095391295    12.000000000000
         C            2.138460041086     0.667493489582     0.699556608705    12.000000000000
         C           -0.469346958914    -0.545494510418    -0.176647391295    12.000000000000
         C            2.041300041086    -0.726232510418     0.138516608705    12.000000000000
         C           -2.120109958914     1.174589489582     0.127396608705    12.000000000000
         C           -1.501700958914    -1.497324510418    -0.082842391295    12.000000000000
         C           -3.141066958914     0.234460489582     0.217341608705    12.000000000000
         C           -2.824738958914    -1.120830510418     0.109346608705    12.000000000000
         H           -0.123918958914     2.592913489582    -1.102708391295     1.007825032230
         H            0.038283041086     2.637528489582     0.639690608705     1.007825032230
         H            1.921089041086     1.317015489582    -1.349642391295     1.007825032230
         H            2.226211041086     2.626589489582    -0.222934391295     1.007825032230
         H            1.527347041086     0.752838489582     1.608165608705     1.007825032230
         H            3.183730041086     0.807383489582     0.983753608705     1.007825032230
         H            0.836419041086    -2.037357510418    -0.743453391295     1.007825032230
         H           -2.365525958914     2.233446489582     0.203215608705     1.007825032230
         H           -1.242295958914    -2.553394510418    -0.138556391295     1.007825032230
         H           -4.166889958914     0.553860489582     0.381418608705     1.007825032230
         H           -3.598930958914    -1.880903510418     0.177114608705     1.007825032230

  Basis Set: AUG-CC-PVTZ
    Blend: AUG-CC-PVTZ
  Basis Set: (AUG-CC-PVTZ AUX)
    Blend: AUG-CC-PVTZ-JKFIT
	 Reference Energy          =    -514.5933428034782082 [Eh]
	 Singles Energy            =      -0.0000000000000000 [Eh]
	 Same-Spin Energy          =      -0.5580321722226042 [Eh]
	 Opposite-Spin Energy      =      -1.7432103742582279 [Eh]
	 Correlation Energy        =      -2.3012425464808319 [Eh]
	 Total Energy              =    -516.8945853499590157 [Eh]

	 ================> DF-SCS-MP2 Energies <==================
	-----------------------------------------------------------
	 SCS Same-Spin Scale       =       0.3333333333333333 [-]
	 SCS Opposite-Spin Scale   =       1.2000000000000000 [-]
	 SCS Same-Spin Energy      =      -0.1860107240742014 [Eh]
	 SCS Opposite-Spin Energy  =      -2.0918524491098736 [Eh]
	 SCS Correlation Energy    =      -2.2778631731840751 [Eh]
	 SCS Total Energy          =    -516.8712059766622815 [Eh]
	-----------------------------------------------------------

  Dipole Moment: [D]
     X:    -2.7408      Y:     2.0495      Z:     0.0371     Total:     3.4225

*** Psi4 exiting successfully. Buy a developer a beer!
