                               Psi4 1.4a3.dev225

  ==> Input File <==

--------------------------------------------------------------------------
#psi4
#
memory 32 gb

molecule  {
0 1
  O        3.0005300    -1.5493530     0.0754490
  N        0.8317470    -1.1153310    -0.4215630
  C        0.1960040     1.9504030    -0.2395030
  C        1.6857700     1.6448450    -0.3508570
  C       -0.7674710     0.7851500    -0.1025020
  C        2.1481850     0.6250380     0.6971500
  C       -0.4778639    -0.5805002    -0.1756283
  C        2.0510250    -0.7686880     0.1361100
  C       -2.1103850     1.1321340     0.1249900
  C       -1.4919760    -1.5397800    -0.0852490
  C       -3.1313420     0.1920050     0.2149350
  C       -2.8150140    -1.1632860     0.1069400
  H       -0.1141940     2.5504580    -1.1051150
  H        0.0480080     2.5950730     0.6372840
  H        1.9308140     1.2745600    -1.3520490
  H        2.2359360     2.5841340    -0.2253410
  H        1.5370720     0.7103830     1.6057590
  H        3.1934550     0.7649280     0.9813470
  H        0.8461440    -2.0798130    -0.7458600
  H       -2.3558010     2.1909910     0.2008090
  H       -1.2325710    -2.5958500    -0.1409630
  H       -4.1571650     0.5114050     0.3790120
  H       -3.5892060    -1.9233590     0.1747080
units angstrom
no_reorient  #important for SAPT in psi4, default
symmetry c1  #important for SAPT in psi4, default
}

set PROPERTIES_ORIGIN ["COM"]
properties('MP2/aug-cc-pvtz', properties = ['dipole'])
--------------------------------------------------------------------------

    Molecular point group: c1
  Charge       = 0
  Multiplicity = 1
  Basis Set: AUG-CC-PVTZ
    Blend: AUG-CC-PVTZ
  Basis Set: (AUG-CC-PVTZ AUX)
    Blend: AUG-CC-PVTZ-JKFIT

    Orbital Energies [Eh]
    ---------------------

    Doubly Occupied:

       1A    -20.524004     2A    -15.594384     3A    -11.355432
       4A    -11.296495     5A    -11.254904     6A    -11.246999
       7A    -11.245752     8A    -11.245631     9A    -11.244562
      10A    -11.242377    11A    -11.241782    12A    -11.240648
      13A     -1.378204    14A     -1.247889    15A     -1.153143
      16A     -1.101790    17A     -1.039697    18A     -1.017359
      19A     -0.957917    20A     -0.879163    21A     -0.843474
      22A     -0.808046    23A     -0.765202    24A     -0.719571
      25A     -0.680723    26A     -0.670052    27A     -0.645859
      28A     -0.629980    29A     -0.610932    30A     -0.603437
      31A     -0.600503    32A     -0.578466    33A     -0.564057
      34A     -0.541756    35A     -0.517450    36A     -0.511247
      37A     -0.498566    38A     -0.492911    39A     -0.483267
      40A     -0.433393    41A     -0.424330    42A     -0.341381
      43A     -0.318856

  @DF-RHF Final Energy:  -514.59425221292372

   => Energetics <=

    Nuclear Repulsion Energy =            675.0667672345410892
    One-Electron Energy =               -2037.7388559002715738
    Two-Electron Energy =                 848.0778364528066504
    Total Energy =                       -514.5942522129237204
  Basis Set: (AUG-CC-PVTZ AUX)
    Blend: AUG-CC-PVTZ-RI
    Molecular point group: c1

    Geometry (in Angstrom), charge = 0, multiplicity = 1:

       Center              X                  Y                   Z               Mass
    ------------   -----------------  -----------------  -----------------  -----------------
         O            2.991758535778    -1.509389019448     0.077727022429    15.994914619570
         N            0.822975535778    -1.075367019448    -0.419284977571    14.003074004430
         C            0.187232535778     1.990366980552    -0.237224977571    12.000000000000
         C            1.676998535778     1.684808980552    -0.348578977571    12.000000000000
         C           -0.776242464222     0.825113980552    -0.100223977571    12.000000000000
         C            2.139413535778     0.665001980552     0.699428022429    12.000000000000
         C           -0.486635364222    -0.540536219448    -0.173350277571    12.000000000000
         C            2.042253535778    -0.728724019448     0.138388022429    12.000000000000
         C           -2.119156464222     1.172097980552     0.127268022429    12.000000000000
         C           -1.500747464222    -1.499816019448    -0.082970977571    12.000000000000
         C           -3.140113464222     0.231968980552     0.217213022429    12.000000000000
         C           -2.823785464222    -1.123322019448     0.109218022429    12.000000000000
         H           -0.122965464222     2.590421980552    -1.102836977571     1.007825032230
         H            0.039236535778     2.635036980552     0.639562022429     1.007825032230
         H            1.922042535778     1.314523980552    -1.349770977571     1.007825032230
         H            2.227164535778     2.624097980552    -0.223062977571     1.007825032230
         H            1.528300535778     0.750346980552     1.608037022429     1.007825032230
         H            3.184683535778     0.804891980552     0.983625022429     1.007825032230
         H            0.837372535778    -2.039849019448    -0.743581977571     1.007825032230
         H           -2.364572464222     2.230954980552     0.203087022429     1.007825032230
         H           -1.241342464222    -2.555886019448    -0.138684977571     1.007825032230
         H           -4.165936464222     0.551368980552     0.381290022429     1.007825032230
         H           -3.597977464222    -1.883395019448     0.176986022429     1.007825032230

  Basis Set: AUG-CC-PVTZ
    Blend: AUG-CC-PVTZ
  Basis Set: (AUG-CC-PVTZ AUX)
    Blend: AUG-CC-PVTZ-JKFIT
	 Reference Energy          =    -514.5942522129237204 [Eh]
	 Singles Energy            =      -0.0000000000000000 [Eh]
	 Same-Spin Energy          =      -0.5576941841394611 [Eh]
	 Opposite-Spin Energy      =      -1.7428432940775305 [Eh]
	 Correlation Energy        =      -2.3005374782169916 [Eh]
	 Total Energy              =    -516.8947896911406588 [Eh]

	 ================> DF-SCS-MP2 Energies <==================
	-----------------------------------------------------------
	 SCS Same-Spin Scale       =       0.3333333333333333 [-]
	 SCS Opposite-Spin Scale   =       1.2000000000000000 [-]
	 SCS Same-Spin Energy      =      -0.1858980613798204 [Eh]
	 SCS Opposite-Spin Energy  =      -2.0914119528930364 [Eh]
	 SCS Correlation Energy    =      -2.2773100142728566 [Eh]
	 SCS Total Energy          =    -516.8715622271965913 [Eh]
	-----------------------------------------------------------

  Dipole Moment: [D]
     X:    -2.8567      Y:     2.0919      Z:     0.0439     Total:     3.5410

*** Psi4 exiting successfully. Buy a developer a beer!
