                               Psi4 1.3.2 release

  ==> Input File <==

--------------------------------------------------------------------------
#psi4
#
memory 32 gb

molecule  {
0 1
  O        3.0716682    -1.4563777     0.1292083
  N        0.8317470    -1.1153310    -0.4215630
  C        0.1960040     1.9504030    -0.2395030
  C        1.6857700     1.6448450    -0.3508570
  C       -0.7674710     0.7851500    -0.1025020
  C        2.1481850     0.6250380     0.6971500
  C       -0.4596220    -0.5879500    -0.1790540
  C        2.0510250    -0.7686880     0.1361100
  C       -2.1103850     1.1321340     0.1249900
  C       -1.4919760    -1.5397800    -0.0852490
  C       -3.1313420     0.1920050     0.2149350
  C       -2.8150140    -1.1632860     0.1069400
  H       -0.1141940     2.5504580    -1.1051150
  H        0.0480080     2.5950730     0.6372840
  H        1.9308140     1.2745600    -1.3520490
  H        2.2359360     2.5841340    -0.2253410
  H        1.5370720     0.7103830     1.6057590
  H        3.1934550     0.7649280     0.9813470
  H        0.8461440    -2.0798130    -0.7458600
  H       -2.3558010     2.1909910     0.2008090
  H       -1.2325710    -2.5958500    -0.1409630
  H       -4.1571650     0.5114050     0.3790120
  H       -3.5892060    -1.9233590     0.1747080
units angstrom
no_reorient  #important for SAPT in psi4, default
symmetry c1  #important for SAPT in psi4, default
}

set PROPERTIES_ORIGIN ["COM"]
properties('MP2/aug-cc-pvtz', properties = ['dipole'])
--------------------------------------------------------------------------

    Molecular point group: c1
  Charge       = 0
  Multiplicity = 1
  Basis Set: AUG-CC-PVTZ
    Blend: AUG-CC-PVTZ
  Basis Set: (AUG-CC-PVTZ AUX)
    Blend: AUG-CC-PVTZ-JKFIT

    Orbital Energies [Eh]
    ---------------------

    Doubly Occupied:

       1A    -20.526279     2A    -15.602271     3A    -11.356547
       4A    -11.299881     5A    -11.256669     6A    -11.247783
       7A    -11.246331     8A    -11.245915     9A    -11.244062
      10A    -11.241333    11A    -11.239231    12A    -11.235796
      13A     -1.378446    14A     -1.258917    15A     -1.153590
      16A     -1.099457    17A     -1.037686    18A     -1.018179
      19A     -0.955134    20A     -0.880761    21A     -0.844522
      22A     -0.808650    23A     -0.766302    24A     -0.723206
      25A     -0.681332    26A     -0.672119    27A     -0.646115
      28A     -0.629781    29A     -0.611260    30A     -0.603476
      31A     -0.599961    32A     -0.577932    33A     -0.565288
      34A     -0.541241    35A     -0.518837    36A     -0.509467
      37A     -0.497885    38A     -0.490891    39A     -0.481258
      40A     -0.438358    41A     -0.420650    42A     -0.341565
      43A     -0.318645

  @DF-RHF Final Energy:  -514.59122616551463

   => Energetics <=

    Nuclear Repulsion Energy =            674.8862934121174249
    One-Electron Energy =               -2037.3290227175987184
    Two-Electron Energy =                 847.8515031399667805
    Total Energy =                       -514.5912261655146267
  Basis Set: (AUG-CC-PVTZ AUX)
    Blend: AUG-CC-PVTZ-RI
    Molecular point group: c1

    Geometry (in Angstrom), charge = 0, multiplicity = 1:

       Center              X                  Y                   Z               Mass
    ------------   -----------------  -----------------  -----------------  -----------------
         O            3.054474101027    -1.425090768876     0.126403466972    15.994914619570
         N            0.814552901027    -1.084044068876    -0.424367833028    14.003074004430
         C            0.178809901027     1.981689931124    -0.242307833028    12.000000000000
         C            1.668575901027     1.676131931124    -0.353661833028    12.000000000000
         C           -0.784665098973     0.816436931124    -0.105306833028    12.000000000000
         C            2.130990901027     0.656324931124     0.694345166972    12.000000000000
         C           -0.476816098973    -0.556663068876    -0.181858833028    12.000000000000
         C            2.033830901027    -0.737401068876     0.133305166972    12.000000000000
         C           -2.127579098973     1.163420931124     0.122185166972    12.000000000000
         C           -1.509170098973    -1.508493068876    -0.088053833028    12.000000000000
         C           -3.148536098973     0.223291931124     0.212130166972    12.000000000000
         C           -2.832208098973    -1.131999068876     0.104135166972    12.000000000000
         H           -0.131388098973     2.581744931124    -1.107919833028     1.007825032230
         H            0.030813901027     2.626359931124     0.634479166972     1.007825032230
         H            1.913619901027     1.305846931124    -1.354853833028     1.007825032230
         H            2.218741901027     2.615420931124    -0.228145833028     1.007825032230
         H            1.519877901027     0.741669931124     1.602954166972     1.007825032230
         H            3.176260901027     0.796214931124     0.978542166972     1.007825032230
         H            0.828949901027    -2.048526068876    -0.748664833028     1.007825032230
         H           -2.372995098973     2.222277931124     0.198004166972     1.007825032230
         H           -1.249765098973    -2.564563068876    -0.143767833028     1.007825032230
         H           -4.174359098973     0.542691931124     0.376207166972     1.007825032230
         H           -3.606400098973    -1.892072068876     0.171903166972     1.007825032230

  Basis Set: AUG-CC-PVTZ
    Blend: AUG-CC-PVTZ
  Basis Set: (AUG-CC-PVTZ AUX)
    Blend: AUG-CC-PVTZ-JKFIT
	 Reference Energy          =    -514.5912261655146267 [Eh]
	 Singles Energy            =      -0.0000000000000000 [Eh]
	 Same-Spin Energy          =      -0.5579629252877161 [Eh]
	 Opposite-Spin Energy      =      -1.7433994345848838 [Eh]
	 Correlation Energy        =      -2.3013623598725998 [Eh]
	 Total Energy              =    -516.8925885253872821 [Eh]

	 ================> DF-SCS-MP2 Energies <==================
	-----------------------------------------------------------
	 SCS Same-Spin Scale       =       0.3333333333333333 [-]
	 SCS Opposite-Spin Scale   =       1.2000000000000000 [-]
	 SCS Same-Spin Energy      =      -0.1859876417625720 [Eh]
	 SCS Opposite-Spin Energy  =      -2.0920793215018603 [Eh]
	 SCS Correlation Energy    =      -2.2780669632644321 [Eh]
	 SCS Total Energy          =    -516.8692931287790771 [Eh]
	-----------------------------------------------------------

  Dipole Moment: [D]
     X:    -2.9791      Y:     1.8164      Z:    -0.0886     Total:     3.4903

*** Psi4 exiting successfully. Buy a developer a beer!
