                               Psi4 1.3.2 release

  ==> Input File <==

--------------------------------------------------------------------------
#psi4
#
memory 32 gb

molecule  {
0 1
  O        3.0005300    -1.5493530     0.0754490
  N        0.8317470    -1.1153310    -0.4215630
  C        0.1960040     1.9504030    -0.2395030
  C        1.6857700     1.6448450    -0.3508570
  C       -0.7674710     0.7851500    -0.1025020
  C        2.1481850     0.6250380     0.6971500
  C       -0.6420406    -0.5134522    -0.1447972
  C        2.0510250    -0.7686880     0.1361100
  C       -2.1103850     1.1321340     0.1249900
  C       -1.4919760    -1.5397800    -0.0852490
  C       -3.1313420     0.1920050     0.2149350
  C       -2.8150140    -1.1632860     0.1069400
  H       -0.1141940     2.5504580    -1.1051150
  H        0.0480080     2.5950730     0.6372840
  H        1.9308140     1.2745600    -1.3520490
  H        2.2359360     2.5841340    -0.2253410
  H        1.5370720     0.7103830     1.6057590
  H        3.1934550     0.7649280     0.9813470
  H        0.8461440    -2.0798130    -0.7458600
  H       -2.3558010     2.1909910     0.2008090
  H       -1.2325710    -2.5958500    -0.1409630
  H       -4.1571650     0.5114050     0.3790120
  H       -3.5892060    -1.9233590     0.1747080
units angstrom
no_reorient  #important for SAPT in psi4, default
symmetry c1  #important for SAPT in psi4, default
}

set PROPERTIES_ORIGIN ["COM"]
properties('MP2/aug-cc-pvtz', properties = ['dipole'])
--------------------------------------------------------------------------

    Molecular point group: c1
  Charge       = 0
  Multiplicity = 1
  Basis Set: AUG-CC-PVTZ
    Blend: AUG-CC-PVTZ
  Basis Set: (AUG-CC-PVTZ AUX)
    Blend: AUG-CC-PVTZ-JKFIT

    Orbital Energies [Eh]
    ---------------------

    Doubly Occupied:

       1A    -20.510039     2A    -15.575383     3A    -11.341438
       4A    -11.294636     5A    -11.253469     6A    -11.253062
       7A    -11.253004     8A    -11.252032     9A    -11.246568
      10A    -11.246376    11A    -11.240402    12A    -11.236130
      13A     -1.363102    14A     -1.223381    15A     -1.160064
      16A     -1.103411    17A     -1.048721    18A     -1.027363
      19A     -0.964216    20A     -0.872772    21A     -0.855083
      22A     -0.803156    23A     -0.758072    24A     -0.713510
      25A     -0.675709    26A     -0.657833    27A     -0.645305
      28A     -0.638991    29A     -0.607081    30A     -0.606476
      31A     -0.595115    32A     -0.571065    33A     -0.561126
      34A     -0.543638    35A     -0.524175    36A     -0.505454
      37A     -0.502995    38A     -0.494360    39A     -0.478999
      40A     -0.414548    41A     -0.409121    42A     -0.350134
      43A     -0.339660

  @DF-RHF Final Energy:  -514.55468119838315

   => Energetics <=

    Nuclear Repulsion Energy =            675.3635815692537108
    One-Electron Energy =               -2038.4021706107344016
    Two-Electron Energy =                 848.4839078430975405
    Total Energy =                       -514.5546811983831503
  Basis Set: (AUG-CC-PVTZ AUX)
    Blend: AUG-CC-PVTZ-RI
    Molecular point group: c1

    Geometry (in Angstrom), charge = 0, multiplicity = 1:

       Center              X                  Y                   Z               Mass
    ------------   -----------------  -----------------  -----------------  -----------------
         O            3.003988922517    -1.514383777962     0.075430251470    15.994914619570
         N            0.835205922517    -1.080361777962    -0.421581748530    14.003074004430
         C            0.199462922517     1.985372222038    -0.239521748530    12.000000000000
         C            1.689228922517     1.679814222038    -0.350875748530    12.000000000000
         C           -0.764012077483     0.820119222038    -0.102520748530    12.000000000000
         C            2.151643922517     0.660007222038     0.697131251470    12.000000000000
         C           -0.638581677483    -0.478482977962    -0.144815948530    12.000000000000
         C            2.054483922517    -0.733718777962     0.136091251470    12.000000000000
         C           -2.106926077483     1.167103222038     0.124971251470    12.000000000000
         C           -1.488517077483    -1.504810777962    -0.085267748530    12.000000000000
         C           -3.127883077483     0.226974222038     0.214916251470    12.000000000000
         C           -2.811555077483    -1.128316777962     0.106921251470    12.000000000000
         H           -0.110735077483     2.585427222038    -1.105133748530     1.007825032230
         H            0.051466922517     2.630042222038     0.637265251470     1.007825032230
         H            1.934272922517     1.309529222038    -1.352067748530     1.007825032230
         H            2.239394922517     2.619103222038    -0.225359748530     1.007825032230
         H            1.540530922517     0.745352222038     1.605740251470     1.007825032230
         H            3.196913922517     0.799897222038     0.981328251470     1.007825032230
         H            0.849602922517    -2.044843777962    -0.745878748530     1.007825032230
         H           -2.352342077483     2.225960222038     0.200790251470     1.007825032230
         H           -1.229112077483    -2.560880777962    -0.140981748530     1.007825032230
         H           -4.153706077483     0.546374222038     0.378993251470     1.007825032230
         H           -3.585747077483    -1.888389777962     0.174689251470     1.007825032230

  Basis Set: AUG-CC-PVTZ
    Blend: AUG-CC-PVTZ
  Basis Set: (AUG-CC-PVTZ AUX)
    Blend: AUG-CC-PVTZ-JKFIT
	 Reference Energy          =    -514.5546811983831503 [Eh]
	 Singles Energy            =      -0.0000000000000000 [Eh]
	 Same-Spin Energy          =      -0.5578685231530838 [Eh]
	 Opposite-Spin Energy      =      -1.7440324183817273 [Eh]
	 Correlation Energy        =      -2.3019009415348108 [Eh]
	 Total Energy              =    -516.8565821399179185 [Eh]

	 ================> DF-SCS-MP2 Energies <==================
	-----------------------------------------------------------
	 SCS Same-Spin Scale       =       0.3333333333333333 [-]
	 SCS Opposite-Spin Scale   =       1.2000000000000000 [-]
	 SCS Same-Spin Energy      =      -0.1859561743843612 [Eh]
	 SCS Opposite-Spin Energy  =      -2.0928389020580727 [Eh]
	 SCS Correlation Energy    =      -2.2787950764424338 [Eh]
	 SCS Total Energy          =    -516.8334762748255571 [Eh]
	-----------------------------------------------------------

  Dipole Moment: [D]
     X:    -3.8252      Y:     2.3648      Z:     0.1191     Total:     4.4988

*** Psi4 exiting successfully. Buy a developer a beer!
