                               Psi4 1.3.2 release

  ==> Input File <==

--------------------------------------------------------------------------
#psi4
#
memory 32 gb

molecule  {
0 1
  O        3.0005300    -1.5493530     0.0754490
  N        0.8317470    -1.1153310    -0.4215630
  C        0.1960040     1.9504030    -0.2395030
  C        1.6857700     1.6448450    -0.3508570
  C       -0.7674710     0.7851500    -0.1025020
  C        2.1481850     0.6250380     0.6971500
  C       -0.4596220    -0.5879500    -0.1790540
  C        1.9940548    -0.6376226     0.1603603
  C       -2.1103850     1.1321340     0.1249900
  C       -1.4919760    -1.5397800    -0.0852490
  C       -3.1313420     0.1920050     0.2149350
  C       -2.8150140    -1.1632860     0.1069400
  H       -0.1141940     2.5504580    -1.1051150
  H        0.0480080     2.5950730     0.6372840
  H        1.9308140     1.2745600    -1.3520490
  H        2.2359360     2.5841340    -0.2253410
  H        1.5370720     0.7103830     1.6057590
  H        3.1934550     0.7649280     0.9813470
  H        0.8461440    -2.0798130    -0.7458600
  H       -2.3558010     2.1909910     0.2008090
  H       -1.2325710    -2.5958500    -0.1409630
  H       -4.1571650     0.5114050     0.3790120
  H       -3.5892060    -1.9233590     0.1747080
units angstrom
no_reorient  #important for SAPT in psi4, default
symmetry c1  #important for SAPT in psi4, default
}

set PROPERTIES_ORIGIN ["COM"]
properties('MP2/aug-cc-pvtz', properties = ['dipole'])
--------------------------------------------------------------------------

    Molecular point group: c1
  Charge       = 0
  Multiplicity = 1
  Basis Set: AUG-CC-PVTZ
    Blend: AUG-CC-PVTZ
  Basis Set: (AUG-CC-PVTZ AUX)
    Blend: AUG-CC-PVTZ-JKFIT

    Orbital Energies [Eh]
    ---------------------

    Doubly Occupied:

       1A    -20.507280     2A    -15.606774     3A    -11.365454
       4A    -11.298029     5A    -11.258572     6A    -11.251660
       7A    -11.250491     8A    -11.249098     9A    -11.248228
      10A    -11.246650    11A    -11.246521    12A    -11.242320
      13A     -1.325558    14A     -1.233334    15A     -1.152236
      16A     -1.120732    17A     -1.053312    18A     -1.017380
      19A     -0.974296    20A     -0.887744    21A     -0.845395
      22A     -0.816368    23A     -0.775107    24A     -0.723378
      25A     -0.693487    26A     -0.672903    27A     -0.648703
      28A     -0.631721    29A     -0.612246    30A     -0.607828
      31A     -0.602788    32A     -0.572304    33A     -0.555700
      34A     -0.545430    35A     -0.514670    36A     -0.512468
      37A     -0.500552    38A     -0.492645    39A     -0.477270
      40A     -0.416356    41A     -0.412049    42A     -0.343597
      43A     -0.316880

  @DF-RHF Final Energy:  -514.55181370200023

   => Energetics <=

    Nuclear Repulsion Energy =            675.7596414798555315
    One-Electron Energy =               -2038.9718798091364533
    Two-Electron Energy =                 848.6604246272805767
    Total Energy =                       -514.5518137020002314
  Basis Set: (AUG-CC-PVTZ AUX)
    Blend: AUG-CC-PVTZ-RI
    Molecular point group: c1

    Geometry (in Angstrom), charge = 0, multiplicity = 1:

       Center              X                  Y                   Z               Mass
    ------------   -----------------  -----------------  -----------------  -----------------
         O            2.994643610742    -1.518597796302     0.076175688337    15.994914619570
         N            0.825860610742    -1.084575796302    -0.420836311663    14.003074004430
         C            0.190117610742     1.981158203698    -0.238776311663    12.000000000000
         C            1.679883610742     1.675600203698    -0.350130311663    12.000000000000
         C           -0.773357389258     0.815905203698    -0.101775311663    12.000000000000
         C            2.142298610742     0.655793203698     0.697876688337    12.000000000000
         C           -0.465508389258    -0.557194796302    -0.178327311663    12.000000000000
         C            1.988168410742    -0.606867396302     0.161086988337    12.000000000000
         C           -2.116271389258     1.162889203698     0.125716688337    12.000000000000
         C           -1.497862389258    -1.509024796302    -0.084522311663    12.000000000000
         C           -3.137228389258     0.222760203698     0.215661688337    12.000000000000
         C           -2.820900389258    -1.132530796302     0.107666688337    12.000000000000
         H           -0.120080389258     2.581213203698    -1.104388311663     1.007825032230
         H            0.042121610742     2.625828203698     0.638010688337     1.007825032230
         H            1.924927610742     1.305315203698    -1.351322311663     1.007825032230
         H            2.230049610742     2.614889203698    -0.224614311663     1.007825032230
         H            1.531185610742     0.741138203698     1.606485688337     1.007825032230
         H            3.187568610742     0.795683203698     0.982073688337     1.007825032230
         H            0.840257610742    -2.049057796302    -0.745133311663     1.007825032230
         H           -2.361687389258     2.221746203698     0.201535688337     1.007825032230
         H           -1.238457389258    -2.565094796302    -0.140236311663     1.007825032230
         H           -4.163051389258     0.542160203698     0.379738688337     1.007825032230
         H           -3.595092389258    -1.892603796302     0.175434688337     1.007825032230

  Basis Set: AUG-CC-PVTZ
    Blend: AUG-CC-PVTZ
  Basis Set: (AUG-CC-PVTZ AUX)
    Blend: AUG-CC-PVTZ-JKFIT
	 Reference Energy          =    -514.5518137020002314 [Eh]
	 Singles Energy            =      -0.0000000000000000 [Eh]
	 Same-Spin Energy          =      -0.5622185037863653 [Eh]
	 Opposite-Spin Energy      =      -1.7508870420677469 [Eh]
	 Correlation Energy        =      -2.3131055458541123 [Eh]
	 Total Energy              =    -516.8649192478543455 [Eh]

	 ================> DF-SCS-MP2 Energies <==================
	-----------------------------------------------------------
	 SCS Same-Spin Scale       =       0.3333333333333333 [-]
	 SCS Opposite-Spin Scale   =       1.2000000000000000 [-]
	 SCS Same-Spin Energy      =      -0.1874061679287884 [Eh]
	 SCS Opposite-Spin Energy  =      -2.1010644504812963 [Eh]
	 SCS Correlation Energy    =      -2.2884706184100847 [Eh]
	 SCS Total Energy          =    -516.8402843204103192 [Eh]
	-----------------------------------------------------------

  Dipole Moment: [D]
     X:    -3.2316      Y:     2.6632      Z:     0.0788     Total:     4.1883

*** Psi4 exiting successfully. Buy a developer a beer!
