                               Psi4 1.3.2 release

  ==> Input File <==

--------------------------------------------------------------------------
#psi4
#
memory 32 gb

molecule  {
0 1
  O        3.0005300    -1.5493530     0.0754490
  N        0.8317470    -1.1153310    -0.4215630
  C        0.1960040     1.9504030    -0.2395030
  C        1.6857700     1.6448450    -0.3508570
  C       -0.7674710     0.7851500    -0.1025020
  C        2.1481850     0.6250380     0.6971500
  C       -0.4778838    -0.6197467    -0.2121863
  C        2.0510250    -0.7686880     0.1361100
  C       -2.1103850     1.1321340     0.1249900
  C       -1.4919760    -1.5397800    -0.0852490
  C       -3.1313420     0.1920050     0.2149350
  C       -2.8150140    -1.1632860     0.1069400
  H       -0.1141940     2.5504580    -1.1051150
  H        0.0480080     2.5950730     0.6372840
  H        1.9308140     1.2745600    -1.3520490
  H        2.2359360     2.5841340    -0.2253410
  H        1.5370720     0.7103830     1.6057590
  H        3.1934550     0.7649280     0.9813470
  H        0.8461440    -2.0798130    -0.7458600
  H       -2.3558010     2.1909910     0.2008090
  H       -1.2325710    -2.5958500    -0.1409630
  H       -4.1571650     0.5114050     0.3790120
  H       -3.5892060    -1.9233590     0.1747080
units angstrom
no_reorient  #important for SAPT in psi4, default
symmetry c1  #important for SAPT in psi4, default
}

set PROPERTIES_ORIGIN ["COM"]
properties('MP2/aug-cc-pvtz', properties = ['dipole'])
--------------------------------------------------------------------------

    Molecular point group: c1
  Charge       = 0
  Multiplicity = 1
  Basis Set: AUG-CC-PVTZ
    Blend: AUG-CC-PVTZ
  Basis Set: (AUG-CC-PVTZ AUX)
    Blend: AUG-CC-PVTZ-JKFIT

    Orbital Energies [Eh]
    ---------------------

    Doubly Occupied:

       1A    -20.525902     2A    -15.595575     3A    -11.358066
       4A    -11.297242     5A    -11.258185     6A    -11.246376
       7A    -11.245613     8A    -11.244449     9A    -11.242934
      10A    -11.242206    11A    -11.241183    12A    -11.239798
      13A     -1.380194    14A     -1.252836    15A     -1.151277
      16A     -1.102459    17A     -1.037368    18A     -1.020120
      19A     -0.956000    20A     -0.881823    21A     -0.840044
      22A     -0.808599    23A     -0.768227    24A     -0.721157
      25A     -0.681561    26A     -0.669310    27A     -0.646262
      28A     -0.628924    29A     -0.611807    30A     -0.604842
      31A     -0.601460    32A     -0.577098    33A     -0.564549
      34A     -0.542321    35A     -0.516100    36A     -0.510834
      37A     -0.498501    38A     -0.491769    39A     -0.483954
      40A     -0.435198    41A     -0.426428    42A     -0.341590
      43A     -0.314844

  @DF-RHF Final Energy:  -514.59237987200470

   => Energetics <=

    Nuclear Repulsion Energy =            674.7953142907962274
    One-Electron Energy =               -2037.1654152923388210
    Two-Electron Energy =                 847.7777211295377811
    Total Energy =                       -514.5923798720046989
  Basis Set: (AUG-CC-PVTZ AUX)
    Blend: AUG-CC-PVTZ-RI
    Molecular point group: c1

    Geometry (in Angstrom), charge = 0, multiplicity = 1:

       Center              X                  Y                   Z               Mass
    ------------   -----------------  -----------------  -----------------  -----------------
         O            2.991760018234    -1.506465341038     0.080450420319    15.994914619570
         N            0.822977018234    -1.072443341038    -0.416561579681    14.003074004430
         C            0.187234018234     1.993290658962    -0.234501579681    12.000000000000
         C            1.677000018234     1.687732658962    -0.345855579681    12.000000000000
         C           -0.776240981766     0.828037658962    -0.097500579681    12.000000000000
         C            2.139415018234     0.667925658962     0.702151420319    12.000000000000
         C           -0.486653781766    -0.576859041038    -0.207184879681    12.000000000000
         C            2.042255018234    -0.725800341038     0.141111420319    12.000000000000
         C           -2.119154981766     1.175021658962     0.129991420319    12.000000000000
         C           -1.500745981766    -1.496892341038    -0.080247579681    12.000000000000
         C           -3.140111981766     0.234892658962     0.219936420319    12.000000000000
         C           -2.823783981766    -1.120398341038     0.111941420319    12.000000000000
         H           -0.122963981766     2.593345658962    -1.100113579681     1.007825032230
         H            0.039238018234     2.637960658962     0.642285420319     1.007825032230
         H            1.922044018234     1.317447658962    -1.347047579681     1.007825032230
         H            2.227166018234     2.627021658962    -0.220339579681     1.007825032230
         H            1.528302018234     0.753270658962     1.610760420319     1.007825032230
         H            3.184685018234     0.807815658962     0.986348420319     1.007825032230
         H            0.837374018234    -2.036925341038    -0.740858579681     1.007825032230
         H           -2.364570981766     2.233878658962     0.205810420319     1.007825032230
         H           -1.241340981766    -2.552962341038    -0.135961579681     1.007825032230
         H           -4.165934981766     0.554292658962     0.384013420319     1.007825032230
         H           -3.597975981766    -1.880471341038     0.179709420319     1.007825032230

  Basis Set: AUG-CC-PVTZ
    Blend: AUG-CC-PVTZ
  Basis Set: (AUG-CC-PVTZ AUX)
    Blend: AUG-CC-PVTZ-JKFIT
	 Reference Energy          =    -514.5923798720046989 [Eh]
	 Singles Energy            =      -0.0000000000000000 [Eh]
	 Same-Spin Energy          =      -0.5579621685080445 [Eh]
	 Opposite-Spin Energy      =      -1.7431823987938095 [Eh]
	 Correlation Energy        =      -2.3011445673018542 [Eh]
	 Total Energy              =    -516.8935244393065886 [Eh]

	 ================> DF-SCS-MP2 Energies <==================
	-----------------------------------------------------------
	 SCS Same-Spin Scale       =       0.3333333333333333 [-]
	 SCS Opposite-Spin Scale   =       1.2000000000000000 [-]
	 SCS Same-Spin Energy      =      -0.1859873895026815 [Eh]
	 SCS Opposite-Spin Energy  =      -2.0918188785525715 [Eh]
	 SCS Correlation Energy    =      -2.2778062680552531 [Eh]
	 SCS Total Energy          =    -516.8701861400599000 [Eh]
	-----------------------------------------------------------

  Dipole Moment: [D]
     X:    -2.7416      Y:     2.0709      Z:     0.0383     Total:     3.4361

*** Psi4 exiting successfully. Buy a developer a beer!
