                               Psi4 1.4a3.dev225

  ==> Input File <==

--------------------------------------------------------------------------
#psi4
#
memory 32 gb

molecule  {
0 1
  O        3.0005300    -1.5493530     0.0754490
  N        0.8317470    -1.1153310    -0.4215630
  C        0.1960040     1.9504030    -0.2395030
  C        1.6857700     1.6448450    -0.3508570
  C       -0.7674710     0.7851500    -0.1025020
  C        2.1481850     0.6250380     0.6971500
  C       -0.4596220    -0.5879500    -0.1790540
  C        2.0510250    -0.7686880     0.1361100
  C       -2.1581569     1.1444774     0.1330826
  C       -1.4919760    -1.5397800    -0.0852490
  C       -3.1313420     0.1920050     0.2149350
  C       -2.8150140    -1.1632860     0.1069400
  H       -0.1141940     2.5504580    -1.1051150
  H        0.0480080     2.5950730     0.6372840
  H        1.9308140     1.2745600    -1.3520490
  H        2.2359360     2.5841340    -0.2253410
  H        1.5370720     0.7103830     1.6057590
  H        3.1934550     0.7649280     0.9813470
  H        0.8461440    -2.0798130    -0.7458600
  H       -2.3558010     2.1909910     0.2008090
  H       -1.2325710    -2.5958500    -0.1409630
  H       -4.1571650     0.5114050     0.3790120
  H       -3.5892060    -1.9233590     0.1747080
units angstrom
no_reorient  #important for SAPT in psi4, default
symmetry c1  #important for SAPT in psi4, default
}

set PROPERTIES_ORIGIN ["COM"]
properties('MP2/aug-cc-pvtz', properties = ['dipole'])
--------------------------------------------------------------------------

    Molecular point group: c1
  Charge       = 0
  Multiplicity = 1
  Basis Set: AUG-CC-PVTZ
    Blend: AUG-CC-PVTZ
  Basis Set: (AUG-CC-PVTZ AUX)
    Blend: AUG-CC-PVTZ-JKFIT

    Orbital Energies [Eh]
    ---------------------

    Doubly Occupied:

       1A    -20.525260     2A    -15.595641     3A    -11.356668
       4A    -11.296233     5A    -11.259335     6A    -11.246964
       7A    -11.245565     8A    -11.245277     9A    -11.245205
      10A    -11.242725    11A    -11.242118    12A    -11.237735
      13A     -1.379727    14A     -1.252328    15A     -1.149307
      16A     -1.101370    17A     -1.036039    18A     -1.019742
      19A     -0.955630    20A     -0.881651    21A     -0.843149
      22A     -0.807216    23A     -0.764250    24A     -0.723352
      25A     -0.681199    26A     -0.670901    27A     -0.647970
      28A     -0.627916    29A     -0.611349    30A     -0.605214
      31A     -0.601402    32A     -0.578036    33A     -0.564090
      34A     -0.542184    35A     -0.517807    36A     -0.510189
      37A     -0.496648    38A     -0.492152    39A     -0.482103
      40A     -0.436327    41A     -0.425576    42A     -0.337782
      43A     -0.317087

  @DF-RHF Final Energy:  -514.59157033569738

   => Energetics <=

    Nuclear Repulsion Energy =            674.3130955490006500
    One-Electron Energy =               -2036.2124966625608522
    Two-Electron Energy =                 847.3078307778627050
    Total Energy =                       -514.5915703356973836
  Basis Set: (AUG-CC-PVTZ AUX)
    Blend: AUG-CC-PVTZ-RI
    Molecular point group: c1

    Geometry (in Angstrom), charge = 0, multiplicity = 1:

       Center              X                  Y                   Z               Mass
    ------------   -----------------  -----------------  -----------------  -----------------
         O            2.993958380947    -1.509753569476     0.077379360477    15.994914619570
         N            0.825175380947    -1.075731569476    -0.419632639523    14.003074004430
         C            0.189432380947     1.990002430524    -0.237572639523    12.000000000000
         C            1.679198380947     1.684444430524    -0.348926639523    12.000000000000
         C           -0.774042619053     0.824749430524    -0.100571639523    12.000000000000
         C            2.141613380947     0.664637430524     0.699080360477    12.000000000000
         C           -0.466193619053    -0.548350569476    -0.177123639523    12.000000000000
         C            2.044453380947    -0.729088569476     0.138040360477    12.000000000000
         C           -2.164728519053     1.184076830524     0.135012960477    12.000000000000
         C           -1.498547619053    -1.500180569476    -0.083318639523    12.000000000000
         C           -3.137913619053     0.231604430524     0.216865360477    12.000000000000
         C           -2.821585619053    -1.123686569476     0.108870360477    12.000000000000
         H           -0.120765619053     2.590057430524    -1.103184639523     1.007825032230
         H            0.041436380947     2.634672430524     0.639214360477     1.007825032230
         H            1.924242380947     1.314159430524    -1.350118639523     1.007825032230
         H            2.229364380947     2.623733430524    -0.223410639523     1.007825032230
         H            1.530500380947     0.749982430524     1.607689360477     1.007825032230
         H            3.186883380947     0.804527430524     0.983277360477     1.007825032230
         H            0.839572380947    -2.040213569476    -0.743929639523     1.007825032230
         H           -2.362372619053     2.230590430524     0.202739360477     1.007825032230
         H           -1.239142619053    -2.556250569476    -0.139032639523     1.007825032230
         H           -4.163736619053     0.551004430524     0.380942360477     1.007825032230
         H           -3.595777619053    -1.883759569476     0.176638360477     1.007825032230

  Basis Set: AUG-CC-PVTZ
    Blend: AUG-CC-PVTZ
  Basis Set: (AUG-CC-PVTZ AUX)
    Blend: AUG-CC-PVTZ-JKFIT
	 Reference Energy          =    -514.5915703356973836 [Eh]
	 Singles Energy            =      -0.0000000000000000 [Eh]
	 Same-Spin Energy          =      -0.5576508375888430 [Eh]
	 Opposite-Spin Energy      =      -1.7430948125395145 [Eh]
	 Correlation Energy        =      -2.3007456501283574 [Eh]
	 Total Energy              =    -516.8923159858256895 [Eh]

	 ================> DF-SCS-MP2 Energies <==================
	-----------------------------------------------------------
	 SCS Same-Spin Scale       =       0.3333333333333333 [-]
	 SCS Opposite-Spin Scale   =       1.2000000000000000 [-]
	 SCS Same-Spin Energy      =      -0.1858836125296143 [Eh]
	 SCS Opposite-Spin Energy  =      -2.0917137750474173 [Eh]
	 SCS Correlation Energy    =      -2.2775973875770315 [Eh]
	 SCS Total Energy          =    -516.8691677232743587 [Eh]
	-----------------------------------------------------------

  Dipole Moment: [D]
     X:    -2.7502      Y:     2.0789      Z:     0.0343     Total:     3.4477

*** Psi4 exiting successfully. Buy a developer a beer!
