                               Psi4 1.3.2 release

  ==> Input File <==

--------------------------------------------------------------------------
#psi4
#
memory 32 gb

molecule  {
0 1
  O        3.0005300    -1.5493530     0.0754490
  N        0.7866194    -0.9820040    -0.3869332
  C        0.1960040     1.9504030    -0.2395030
  C        1.6857700     1.6448450    -0.3508570
  C       -0.7674710     0.7851500    -0.1025020
  C        2.1481850     0.6250380     0.6971500
  C       -0.4596220    -0.5879500    -0.1790540
  C        2.0510250    -0.7686880     0.1361100
  C       -2.1103850     1.1321340     0.1249900
  C       -1.4919760    -1.5397800    -0.0852490
  C       -3.1313420     0.1920050     0.2149350
  C       -2.8150140    -1.1632860     0.1069400
  H       -0.1141940     2.5504580    -1.1051150
  H        0.0480080     2.5950730     0.6372840
  H        1.9308140     1.2745600    -1.3520490
  H        2.2359360     2.5841340    -0.2253410
  H        1.5370720     0.7103830     1.6057590
  H        3.1934550     0.7649280     0.9813470
  H        0.8461440    -2.0798130    -0.7458600
  H       -2.3558010     2.1909910     0.2008090
  H       -1.2325710    -2.5958500    -0.1409630
  H       -4.1571650     0.5114050     0.3790120
  H       -3.5892060    -1.9233590     0.1747080
units angstrom
no_reorient  #important for SAPT in psi4, default
symmetry c1  #important for SAPT in psi4, default
}

set PROPERTIES_ORIGIN ["COM"]
properties('MP2/aug-cc-pvtz', properties = ['dipole'])
--------------------------------------------------------------------------

    Molecular point group: c1
  Charge       = 0
  Multiplicity = 1
  Basis Set: AUG-CC-PVTZ
    Blend: AUG-CC-PVTZ
  Basis Set: (AUG-CC-PVTZ AUX)
    Blend: AUG-CC-PVTZ-JKFIT

    Orbital Energies [Eh]
    ---------------------

    Doubly Occupied:

       1A    -20.537581     2A    -15.607827     3A    -11.366160
       4A    -11.293273     5A    -11.248708     6A    -11.245459
       7A    -11.243450     8A    -11.242371     9A    -11.242311
      10A    -11.241167    11A    -11.239319    12A    -11.236067
      13A     -1.386065    14A     -1.277320    15A     -1.148237
      16A     -1.100985    17A     -1.041281    18A     -1.015243
      19A     -0.950996    20A     -0.891054    21A     -0.847123
      22A     -0.811582    23A     -0.758773    24A     -0.716374
      25A     -0.682732    26A     -0.670320    27A     -0.645814
      28A     -0.631639    29A     -0.611528    30A     -0.604630
      31A     -0.598652    32A     -0.576558    33A     -0.555174
      34A     -0.543038    35A     -0.517917    36A     -0.509941
      37A     -0.499768    38A     -0.483814    39A     -0.482448
      40A     -0.443186    41A     -0.431471    42A     -0.339072
      43A     -0.307949

  @DF-RHF Final Energy:  -514.56139902034374

   => Energetics <=

    Nuclear Repulsion Energy =            677.5104096122073543
    One-Electron Energy =               -2042.4948629847951906
    Two-Electron Energy =                 850.4230543522439802
    Total Energy =                       -514.5613990203437424
  Basis Set: (AUG-CC-PVTZ AUX)
    Blend: AUG-CC-PVTZ-RI
    Molecular point group: c1

    Geometry (in Angstrom), charge = 0, multiplicity = 1:

       Center              X                  Y                   Z               Mass
    ------------   -----------------  -----------------  -----------------  -----------------
         O            2.994322553051    -1.520424190798     0.074971844534    15.994914619570
         N            0.780411953051    -0.953075190798    -0.387410355466    14.003074004430
         C            0.189796553051     1.979331809202    -0.239980155466    12.000000000000
         C            1.679562553051     1.673773809202    -0.351334155466    12.000000000000
         C           -0.773678446949     0.814078809202    -0.102979155466    12.000000000000
         C            2.141977553051     0.653966809202     0.696672844534    12.000000000000
         C           -0.465829446949    -0.559021190798    -0.179531155466    12.000000000000
         C            2.044817553051    -0.739759190798     0.135632844534    12.000000000000
         C           -2.116592446949     1.161062809202     0.124512844534    12.000000000000
         C           -1.498183446949    -1.510851190798    -0.085726155466    12.000000000000
         C           -3.137549446949     0.220933809202     0.214457844534    12.000000000000
         C           -2.821221446949    -1.134357190798     0.106462844534    12.000000000000
         H           -0.120401446949     2.579386809202    -1.105592155466     1.007825032230
         H            0.041800553051     2.624001809202     0.636806844534     1.007825032230
         H            1.924606553051     1.303488809202    -1.352526155466     1.007825032230
         H            2.229728553051     2.613062809202    -0.225818155466     1.007825032230
         H            1.530864553051     0.739311809202     1.605281844534     1.007825032230
         H            3.187247553051     0.793856809202     0.980869844534     1.007825032230
         H            0.839936553051    -2.050884190798    -0.746337155466     1.007825032230
         H           -2.362008446949     2.219919809202     0.200331844534     1.007825032230
         H           -1.238778446949    -2.566921190798    -0.141440155466     1.007825032230
         H           -4.163372446949     0.540333809202     0.378534844534     1.007825032230
         H           -3.595413446949    -1.894430190798     0.174230844534     1.007825032230

  Basis Set: AUG-CC-PVTZ
    Blend: AUG-CC-PVTZ
  Basis Set: (AUG-CC-PVTZ AUX)
    Blend: AUG-CC-PVTZ-JKFIT
	 Reference Energy          =    -514.5613990203437424 [Eh]
	 Singles Energy            =      -0.0000000000000000 [Eh]
	 Same-Spin Energy          =      -0.5612080978771218 [Eh]
	 Opposite-Spin Energy      =      -1.7485690298411511 [Eh]
	 Correlation Energy        =      -2.3097771277182728 [Eh]
	 Total Energy              =    -516.8711761480619771 [Eh]

	 ================> DF-SCS-MP2 Energies <==================
	-----------------------------------------------------------
	 SCS Same-Spin Scale       =       0.3333333333333333 [-]
	 SCS Opposite-Spin Scale   =       1.2000000000000000 [-]
	 SCS Same-Spin Energy      =      -0.1870693659590406 [Eh]
	 SCS Opposite-Spin Energy  =      -2.0982828358093815 [Eh]
	 SCS Correlation Energy    =      -2.2853522017684220 [Eh]
	 SCS Total Energy          =    -516.8467512221121751 [Eh]
	-----------------------------------------------------------

  Dipole Moment: [D]
     X:    -2.4339      Y:     1.8608      Z:    -0.0015     Total:     3.0637

*** Psi4 exiting successfully. Buy a developer a beer!
