                               Psi4 1.3.2 release

  ==> Input File <==

--------------------------------------------------------------------------
#psi4
#
memory 32 gb

molecule  {
0 1
  O        3.0005300    -1.5493530     0.0754490
  N        0.8317470    -1.1153310    -0.4215630
  C        0.1960040     1.9504030    -0.2395030
  C        1.6744330     1.5929552    -0.3474245
  C       -0.7674710     0.7851500    -0.1025020
  C        2.1481850     0.6250380     0.6971500
  C       -0.4596220    -0.5879500    -0.1790540
  C        2.0510250    -0.7686880     0.1361100
  C       -2.1103850     1.1321340     0.1249900
  C       -1.4919760    -1.5397800    -0.0852490
  C       -3.1313420     0.1920050     0.2149350
  C       -2.8150140    -1.1632860     0.1069400
  H       -0.1141940     2.5504580    -1.1051150
  H        0.0480080     2.5950730     0.6372840
  H        1.9308140     1.2745600    -1.3520490
  H        2.2359360     2.5841340    -0.2253410
  H        1.5370720     0.7103830     1.6057590
  H        3.1934550     0.7649280     0.9813470
  H        0.8461440    -2.0798130    -0.7458600
  H       -2.3558010     2.1909910     0.2008090
  H       -1.2325710    -2.5958500    -0.1409630
  H       -4.1571650     0.5114050     0.3790120
  H       -3.5892060    -1.9233590     0.1747080
units angstrom
no_reorient  #important for SAPT in psi4, default
symmetry c1  #important for SAPT in psi4, default
}

set PROPERTIES_ORIGIN ["COM"]
properties('MP2/aug-cc-pvtz', properties = ['dipole'])
--------------------------------------------------------------------------

    Molecular point group: c1
  Charge       = 0
  Multiplicity = 1
  Basis Set: AUG-CC-PVTZ
    Blend: AUG-CC-PVTZ
  Basis Set: (AUG-CC-PVTZ AUX)
    Blend: AUG-CC-PVTZ-JKFIT

    Orbital Energies [Eh]
    ---------------------

    Doubly Occupied:

       1A    -20.525684     2A    -15.596131     3A    -11.356788
       4A    -11.297288     5A    -11.254272     6A    -11.246402
       7A    -11.245558     8A    -11.244706     9A    -11.244460
      10A    -11.243722    11A    -11.242207    12A    -11.239731
      13A     -1.380299    14A     -1.253387    15A     -1.151456
      16A     -1.105527    17A     -1.041072    18A     -1.016013
      19A     -0.957122    20A     -0.878665    21A     -0.842780
      22A     -0.808424    23A     -0.766047    24A     -0.722489
      25A     -0.684232    26A     -0.670837    27A     -0.643356
      28A     -0.629724    29A     -0.613147    30A     -0.604947
      31A     -0.599196    32A     -0.578329    33A     -0.564866
      34A     -0.539208    35A     -0.519384    36A     -0.513907
      37A     -0.499837    38A     -0.497238    39A     -0.473344
      40A     -0.435384    41A     -0.424927    42A     -0.340499
      43A     -0.315902

  @DF-RHF Final Energy:  -514.59085063902751

   => Energetics <=

    Nuclear Repulsion Energy =            675.9388274490804633
    One-Electron Energy =               -2039.4423753673424926
    Two-Electron Energy =                 848.9126972792345214
    Total Energy =                       -514.5908506390275079
  Basis Set: (AUG-CC-PVTZ AUX)
    Blend: AUG-CC-PVTZ-RI
    Molecular point group: c1

    Geometry (in Angstrom), charge = 0, multiplicity = 1:

       Center              X                  Y                   Z               Mass
    ------------   -----------------  -----------------  -----------------  -----------------
         O            2.991244153424    -1.504968500233     0.077726515861    15.994914619570
         N            0.822461153424    -1.070946500233    -0.419285484139    14.003074004430
         C            0.186718153424     1.994787499767    -0.237225484139    12.000000000000
         C            1.665147153424     1.637339699767    -0.345146984139    12.000000000000
         C           -0.776756846576     0.829534499767    -0.100224484139    12.000000000000
         C            2.138899153424     0.669422499767     0.699427515861    12.000000000000
         C           -0.468907846576    -0.543565500233    -0.176776484139    12.000000000000
         C            2.041739153424    -0.724303500233     0.138387515861    12.000000000000
         C           -2.119670846576     1.176518499767     0.127267515861    12.000000000000
         C           -1.501261846576    -1.495395500233    -0.082971484139    12.000000000000
         C           -3.140627846576     0.236389499767     0.217212515861    12.000000000000
         C           -2.824299846576    -1.118901500233     0.109217515861    12.000000000000
         H           -0.123479846576     2.594842499767    -1.102837484139     1.007825032230
         H            0.038722153424     2.639457499767     0.639561515861     1.007825032230
         H            1.921528153424     1.318944499767    -1.349771484139     1.007825032230
         H            2.226650153424     2.628518499767    -0.223063484139     1.007825032230
         H            1.527786153424     0.754767499767     1.608036515861     1.007825032230
         H            3.184169153424     0.809312499767     0.983624515861     1.007825032230
         H            0.836858153424    -2.035428500233    -0.743582484139     1.007825032230
         H           -2.365086846576     2.235375499767     0.203086515861     1.007825032230
         H           -1.241856846576    -2.551465500233    -0.138685484139     1.007825032230
         H           -4.166450846576     0.555789499767     0.381289515861     1.007825032230
         H           -3.598491846576    -1.878974500233     0.176985515861     1.007825032230

  Basis Set: AUG-CC-PVTZ
    Blend: AUG-CC-PVTZ
  Basis Set: (AUG-CC-PVTZ AUX)
    Blend: AUG-CC-PVTZ-JKFIT
	 Reference Energy          =    -514.5908506390275079 [Eh]
	 Singles Energy            =      -0.0000000000000000 [Eh]
	 Same-Spin Energy          =      -0.5582317727402057 [Eh]
	 Opposite-Spin Energy      =      -1.7434662472050673 [Eh]
	 Correlation Energy        =      -2.3016980199452730 [Eh]
	 Total Energy              =    -516.8925486589728280 [Eh]

	 ================> DF-SCS-MP2 Energies <==================
	-----------------------------------------------------------
	 SCS Same-Spin Scale       =       0.3333333333333333 [-]
	 SCS Opposite-Spin Scale   =       1.2000000000000000 [-]
	 SCS Same-Spin Energy      =      -0.1860772575800686 [Eh]
	 SCS Opposite-Spin Energy  =      -2.0921594966460808 [Eh]
	 SCS Correlation Energy    =      -2.2782367542261492 [Eh]
	 SCS Total Energy          =    -516.8690873932536078 [Eh]
	-----------------------------------------------------------

  Dipole Moment: [D]
     X:    -2.7427      Y:     2.0349      Z:     0.0402     Total:     3.4154

*** Psi4 exiting successfully. Buy a developer a beer!
