                               Psi4 1.3.2 release

  ==> Input File <==

--------------------------------------------------------------------------
#psi4
#
memory 32 gb

molecule  {
0 1
  O        3.0005300    -1.5493530     0.0754490
  N        0.8317470    -1.1153310    -0.4215630
  C        0.1960040     1.9504030    -0.2395030
  C        1.6857700     1.6448450    -0.3508570
  C       -0.8186246     0.8222635    -0.1875607
  C        2.1481850     0.6250380     0.6971500
  C       -0.4596220    -0.5879500    -0.1790540
  C        2.0510250    -0.7686880     0.1361100
  C       -2.1103850     1.1321340     0.1249900
  C       -1.4919760    -1.5397800    -0.0852490
  C       -3.1313420     0.1920050     0.2149350
  C       -2.8150140    -1.1632860     0.1069400
  H       -0.1141940     2.5504580    -1.1051150
  H        0.0480080     2.5950730     0.6372840
  H        1.9308140     1.2745600    -1.3520490
  H        2.2359360     2.5841340    -0.2253410
  H        1.5370720     0.7103830     1.6057590
  H        3.1934550     0.7649280     0.9813470
  H        0.8461440    -2.0798130    -0.7458600
  H       -2.3558010     2.1909910     0.2008090
  H       -1.2325710    -2.5958500    -0.1409630
  H       -4.1571650     0.5114050     0.3790120
  H       -3.5892060    -1.9233590     0.1747080
units angstrom
no_reorient  #important for SAPT in psi4, default
symmetry c1  #important for SAPT in psi4, default
}

set PROPERTIES_ORIGIN ["COM"]
properties('MP2/aug-cc-pvtz', properties = ['dipole'])
--------------------------------------------------------------------------

    Molecular point group: c1
  Charge       = 0
  Multiplicity = 1
  Basis Set: AUG-CC-PVTZ
    Blend: AUG-CC-PVTZ
  Basis Set: (AUG-CC-PVTZ AUX)
    Blend: AUG-CC-PVTZ-JKFIT

    Orbital Energies [Eh]
    ---------------------

    Doubly Occupied:

       1A    -20.526359     2A    -15.597510     3A    -11.357444
       4A    -11.301308     5A    -11.256486     6A    -11.245846
       7A    -11.244390     8A    -11.243761     9A    -11.243706
      10A    -11.243066    11A    -11.240526    12A    -11.239256
      13A     -1.380650    14A     -1.252087    15A     -1.153394
      16A     -1.101775    17A     -1.040276    18A     -1.016297
      19A     -0.955975    20A     -0.881622    21A     -0.839334
      22A     -0.807974    23A     -0.767979    24A     -0.721814
      25A     -0.682328    26A     -0.669964    27A     -0.647143
      28A     -0.628101    29A     -0.609933    30A     -0.604359
      31A     -0.600624    32A     -0.579422    33A     -0.564076
      34A     -0.543902    35A     -0.517417    36A     -0.511068
      37A     -0.498705    38A     -0.491375    39A     -0.479610
      40A     -0.434925    41A     -0.426349    42A     -0.345345
      43A     -0.311963

  @DF-RHF Final Energy:  -514.58782597161917

   => Energetics <=

    Nuclear Repulsion Energy =            674.4321904825989122
    One-Electron Energy =               -2036.4291455231114014
    Two-Electron Energy =                 847.4091290688934350
    Total Energy =                       -514.5878259716191678
  Basis Set: (AUG-CC-PVTZ AUX)
    Blend: AUG-CC-PVTZ-RI
    Molecular point group: c1

    Geometry (in Angstrom), charge = 0, multiplicity = 1:

       Center              X                  Y                   Z               Mass
    ------------   -----------------  -----------------  -----------------  -----------------
         O            2.994210301584    -1.511598824634     0.084318691237    15.994914619570
         N            0.825427301584    -1.077576824634    -0.412693308763    14.003074004430
         C            0.189684301584     1.988157175366    -0.230633308763    12.000000000000
         C            1.679450301584     1.682599175366    -0.341987308763    12.000000000000
         C           -0.824944298416     0.860017675366    -0.178691008763    12.000000000000
         C            2.141865301584     0.662792175366     0.706019691237    12.000000000000
         C           -0.465941698416    -0.550195824634    -0.170184308763    12.000000000000
         C            2.044705301584    -0.730933824634     0.144979691237    12.000000000000
         C           -2.116704698416     1.169888175366     0.133859691237    12.000000000000
         C           -1.498295698416    -1.502025824634    -0.076379308763    12.000000000000
         C           -3.137661698416     0.229759175366     0.223804691237    12.000000000000
         C           -2.821333698416    -1.125531824634     0.115809691237    12.000000000000
         H           -0.120513698416     2.588212175366    -1.096245308763     1.007825032230
         H            0.041688301584     2.632827175366     0.646153691237     1.007825032230
         H            1.924494301584     1.312314175366    -1.343179308763     1.007825032230
         H            2.229616301584     2.621888175366    -0.216471308763     1.007825032230
         H            1.530752301584     0.748137175366     1.614628691237     1.007825032230
         H            3.187135301584     0.802682175366     0.990216691237     1.007825032230
         H            0.839824301584    -2.042058824634    -0.736990308763     1.007825032230
         H           -2.362120698416     2.228745175366     0.209678691237     1.007825032230
         H           -1.238890698416    -2.558095824634    -0.132093308763     1.007825032230
         H           -4.163484698416     0.549159175366     0.387881691237     1.007825032230
         H           -3.595525698416    -1.885604824634     0.183577691237     1.007825032230

  Basis Set: AUG-CC-PVTZ
    Blend: AUG-CC-PVTZ
  Basis Set: (AUG-CC-PVTZ AUX)
    Blend: AUG-CC-PVTZ-JKFIT
	 Reference Energy          =    -514.5878259716191678 [Eh]
	 Singles Energy            =      -0.0000000000000000 [Eh]
	 Same-Spin Energy          =      -0.5580544274112297 [Eh]
	 Opposite-Spin Energy      =      -1.7433916162924319 [Eh]
	 Correlation Energy        =      -2.3014460437036615 [Eh]
	 Total Energy              =    -516.8892720153228311 [Eh]

	 ================> DF-SCS-MP2 Energies <==================
	-----------------------------------------------------------
	 SCS Same-Spin Scale       =       0.3333333333333333 [-]
	 SCS Opposite-Spin Scale   =       1.2000000000000000 [-]
	 SCS Same-Spin Energy      =      -0.1860181424704099 [Eh]
	 SCS Opposite-Spin Energy  =      -2.0920699395509184 [Eh]
	 SCS Correlation Energy    =      -2.2780880820213283 [Eh]
	 SCS Total Energy          =    -516.8659140536404948 [Eh]
	-----------------------------------------------------------

  Dipole Moment: [D]
     X:    -2.6875      Y:     2.0471      Z:     0.0565     Total:     3.3788

*** Psi4 exiting successfully. Buy a developer a beer!
