                               Psi4 1.3.2 release

  ==> Input File <==

--------------------------------------------------------------------------
#psi4
#
memory 32 gb

molecule  {
0 1
  O        3.0005300    -1.5493530     0.0754490
  N        0.8317470    -1.1153310    -0.4215630
  C        0.1960040     1.9504030    -0.2395030
  C        1.6857700     1.6448450    -0.3508570
  C       -0.6820236     0.7401731     0.0237059
  C        2.1481850     0.6250380     0.6971500
  C       -0.4596220    -0.5879500    -0.1790540
  C        2.0510250    -0.7686880     0.1361100
  C       -2.1103850     1.1321340     0.1249900
  C       -1.4919760    -1.5397800    -0.0852490
  C       -3.1313420     0.1920050     0.2149350
  C       -2.8150140    -1.1632860     0.1069400
  H       -0.1141940     2.5504580    -1.1051150
  H        0.0480080     2.5950730     0.6372840
  H        1.9308140     1.2745600    -1.3520490
  H        2.2359360     2.5841340    -0.2253410
  H        1.5370720     0.7103830     1.6057590
  H        3.1934550     0.7649280     0.9813470
  H        0.8461440    -2.0798130    -0.7458600
  H       -2.3558010     2.1909910     0.2008090
  H       -1.2325710    -2.5958500    -0.1409630
  H       -4.1571650     0.5114050     0.3790120
  H       -3.5892060    -1.9233590     0.1747080
units angstrom
no_reorient  #important for SAPT in psi4, default
symmetry c1  #important for SAPT in psi4, default
}

set PROPERTIES_ORIGIN ["COM"]
properties('MP2/aug-cc-pvtz', properties = ['dipole'])
--------------------------------------------------------------------------

    Molecular point group: c1
  Charge       = 0
  Multiplicity = 1
  Basis Set: AUG-CC-PVTZ
    Blend: AUG-CC-PVTZ
  Basis Set: (AUG-CC-PVTZ AUX)
    Blend: AUG-CC-PVTZ-JKFIT

    Orbital Energies [Eh]
    ---------------------

    Doubly Occupied:

       1A    -20.524688     2A    -15.594048     3A    -11.356367
       4A    -11.293855     5A    -11.254987     6A    -11.254001
       7A    -11.249380     8A    -11.246106     9A    -11.245432
      10A    -11.241844    11A    -11.240045    12A    -11.239796
      13A     -1.379309    14A     -1.254474    15A     -1.147737
      16A     -1.102010    17A     -1.038726    18A     -1.013681
      19A     -0.958180    20A     -0.879133    21A     -0.846798
      22A     -0.807415    23A     -0.761489    24A     -0.721586
      25A     -0.681238    26A     -0.671341    27A     -0.645789
      28A     -0.628313    29A     -0.614731    30A     -0.601399
      31A     -0.600051    32A     -0.576018    33A     -0.564154
      34A     -0.538911    35A     -0.517455    36A     -0.511508
      37A     -0.499064    38A     -0.495841    39A     -0.473115
      40A     -0.435111    41A     -0.425127    42A     -0.333942
      43A     -0.321807

  @DF-RHF Final Energy:  -514.58104785229114

   => Energetics <=

    Nuclear Repulsion Energy =            675.5959180714463628
    One-Electron Energy =               -2038.7819323259238899
    Two-Electron Energy =                 848.6049664021862782
    Total Energy =                       -514.5810478522911353
  Basis Set: (AUG-CC-PVTZ AUX)
    Blend: AUG-CC-PVTZ-RI
    Molecular point group: c1

    Geometry (in Angstrom), charge = 0, multiplicity = 1:

       Center              X                  Y                   Z               Mass
    ------------   -----------------  -----------------  -----------------  -----------------
         O            2.984034173918    -1.505483478549     0.068580329928    15.994914619570
         N            0.815251173918    -1.071461478549    -0.428431670072    14.003074004430
         C            0.179508173918     1.994272521451    -0.246371670072    12.000000000000
         C            1.669274173918     1.688714521451    -0.357725670072    12.000000000000
         C           -0.698519426082     0.784042621451     0.016837229928    12.000000000000
         C            2.131689173918     0.668907521451     0.690281329928    12.000000000000
         C           -0.476117826082    -0.544080478549    -0.185922670072    12.000000000000
         C            2.034529173918    -0.724818478549     0.129241329928    12.000000000000
         C           -2.126880826082     1.176003521451     0.118121329928    12.000000000000
         C           -1.508471826082    -1.495910478549    -0.092117670072    12.000000000000
         C           -3.147837826082     0.235874521451     0.208066329928    12.000000000000
         C           -2.831509826082    -1.119416478549     0.100071329928    12.000000000000
         H           -0.130689826082     2.594327521451    -1.111983670072     1.007825032230
         H            0.031512173918     2.638942521451     0.630415329928     1.007825032230
         H            1.914318173918     1.318429521451    -1.358917670072     1.007825032230
         H            2.219440173918     2.628003521451    -0.232209670072     1.007825032230
         H            1.520576173918     0.754252521451     1.598890329928     1.007825032230
         H            3.176959173918     0.808797521451     0.974478329928     1.007825032230
         H            0.829648173918    -2.035943478549    -0.752728670072     1.007825032230
         H           -2.372296826082     2.234860521451     0.193940329928     1.007825032230
         H           -1.249066826082    -2.551980478549    -0.147831670072     1.007825032230
         H           -4.173660826082     0.555274521451     0.372143329928     1.007825032230
         H           -3.605701826082    -1.879489478549     0.167839329928     1.007825032230

  Basis Set: AUG-CC-PVTZ
    Blend: AUG-CC-PVTZ
  Basis Set: (AUG-CC-PVTZ AUX)
    Blend: AUG-CC-PVTZ-JKFIT
	 Reference Energy          =    -514.5810478522911353 [Eh]
	 Singles Energy            =      -0.0000000000000000 [Eh]
	 Same-Spin Energy          =      -0.5580677448580872 [Eh]
	 Opposite-Spin Energy      =      -1.7445688284721672 [Eh]
	 Correlation Energy        =      -2.3026365733302545 [Eh]
	 Total Energy              =    -516.8836844256213681 [Eh]

	 ================> DF-SCS-MP2 Energies <==================
	-----------------------------------------------------------
	 SCS Same-Spin Scale       =       0.3333333333333333 [-]
	 SCS Opposite-Spin Scale   =       1.2000000000000000 [-]
	 SCS Same-Spin Energy      =      -0.1860225816193624 [Eh]
	 SCS Opposite-Spin Energy  =      -2.0934825941666007 [Eh]
	 SCS Correlation Energy    =      -2.2795051757859630 [Eh]
	 SCS Total Energy          =    -516.8605530280771063 [Eh]
	-----------------------------------------------------------

  Dipole Moment: [D]
     X:    -2.8627      Y:     2.0373      Z:    -0.0043     Total:     3.5136

*** Psi4 exiting successfully. Buy a developer a beer!
