                               Psi4 1.3.2 release

  ==> Input File <==

--------------------------------------------------------------------------
#psi4
#
memory 32 gb

molecule  {
0 1
  O        3.0005300    -1.5493530     0.0754490
  N        0.8151927    -1.0712392    -0.4106812
  C        0.1960040     1.9504030    -0.2395030
  C        1.6857700     1.6448450    -0.3508570
  C       -0.7674710     0.7851500    -0.1025020
  C        2.1481850     0.6250380     0.6971500
  C       -0.4596220    -0.5879500    -0.1790540
  C        2.0510250    -0.7686880     0.1361100
  C       -2.1103850     1.1321340     0.1249900
  C       -1.4919760    -1.5397800    -0.0852490
  C       -3.1313420     0.1920050     0.2149350
  C       -2.8150140    -1.1632860     0.1069400
  H       -0.1141940     2.5504580    -1.1051150
  H        0.0480080     2.5950730     0.6372840
  H        1.9308140     1.2745600    -1.3520490
  H        2.2359360     2.5841340    -0.2253410
  H        1.5370720     0.7103830     1.6057590
  H        3.1934550     0.7649280     0.9813470
  H        0.8461440    -2.0798130    -0.7458600
  H       -2.3558010     2.1909910     0.2008090
  H       -1.2325710    -2.5958500    -0.1409630
  H       -4.1571650     0.5114050     0.3790120
  H       -3.5892060    -1.9233590     0.1747080
units angstrom
no_reorient  #important for SAPT in psi4, default
symmetry c1  #important for SAPT in psi4, default
}

set PROPERTIES_ORIGIN ["COM"]
properties('MP2/aug-cc-pvtz', properties = ['dipole'])
--------------------------------------------------------------------------

    Molecular point group: c1
  Charge       = 0
  Multiplicity = 1
  Basis Set: AUG-CC-PVTZ
    Blend: AUG-CC-PVTZ
  Basis Set: (AUG-CC-PVTZ AUX)
    Blend: AUG-CC-PVTZ-JKFIT

    Orbital Energies [Eh]
    ---------------------

    Doubly Occupied:

       1A    -20.529527     2A    -15.600199     3A    -11.359621
       4A    -11.295850     5A    -11.253018     6A    -11.246122
       7A    -11.244415     8A    -11.244149     9A    -11.243740
      10A    -11.242003    11A    -11.241302    12A    -11.238585
      13A     -1.381830    14A     -1.260543    15A     -1.150300
      16A     -1.101369    17A     -1.039324    18A     -1.015861
      19A     -0.955014    20A     -0.883326    21A     -0.844107
      22A     -0.810000    23A     -0.761159    24A     -0.721550
      25A     -0.681645    26A     -0.670997    27A     -0.645501
      28A     -0.629562    29A     -0.611307    30A     -0.603533
      31A     -0.600190    32A     -0.578079    33A     -0.562775
      34A     -0.542468    35A     -0.517842    36A     -0.510514
      37A     -0.498498    38A     -0.489776    39A     -0.482772
      40A     -0.438301    41A     -0.427965    42A     -0.340052
      43A     -0.313274

  @DF-RHF Final Energy:  -514.58905844124092

   => Energetics <=

    Nuclear Repulsion Energy =            675.8692536103301336
    One-Electron Energy =               -2039.3006962808292428
    Two-Electron Energy =                 848.8423842292581867
    Total Energy =                       -514.5890584412409225
  Basis Set: (AUG-CC-PVTZ AUX)
    Blend: AUG-CC-PVTZ-RI
    Molecular point group: c1

    Geometry (in Angstrom), charge = 0, multiplicity = 1:

       Center              X                  Y                   Z               Mass
    ------------   -----------------  -----------------  -----------------  -----------------
         O            2.991838669639    -1.512666954740     0.077036263529    15.994914619570
         N            0.806501369639    -1.034553154740    -0.409093936471    14.003074004430
         C            0.187312669639     1.987089045260    -0.237915736471    12.000000000000
         C            1.677078669639     1.681531045260    -0.349269736471    12.000000000000
         C           -0.776162330361     0.821836045260    -0.100914736471    12.000000000000
         C            2.139493669639     0.661724045260     0.698737263529    12.000000000000
         C           -0.468313330361    -0.551263954740    -0.177466736471    12.000000000000
         C            2.042333669639    -0.732001954740     0.137697263529    12.000000000000
         C           -2.119076330361     1.168820045260     0.126577263529    12.000000000000
         C           -1.500667330361    -1.503093954740    -0.083661736471    12.000000000000
         C           -3.140033330361     0.228691045260     0.216522263529    12.000000000000
         C           -2.823705330361    -1.126599954740     0.108527263529    12.000000000000
         H           -0.122885330361     2.587144045260    -1.103527736471     1.007825032230
         H            0.039316669639     2.631759045260     0.638871263529     1.007825032230
         H            1.922122669639     1.311246045260    -1.350461736471     1.007825032230
         H            2.227244669639     2.620820045260    -0.223753736471     1.007825032230
         H            1.528380669639     0.747069045260     1.607346263529     1.007825032230
         H            3.184763669639     0.801614045260     0.982934263529     1.007825032230
         H            0.837452669639    -2.043126954740    -0.744272736471     1.007825032230
         H           -2.364492330361     2.227677045260     0.202396263529     1.007825032230
         H           -1.241262330361    -2.559163954740    -0.139375736471     1.007825032230
         H           -4.165856330361     0.548091045260     0.380599263529     1.007825032230
         H           -3.597897330361    -1.886672954740     0.176295263529     1.007825032230

  Basis Set: AUG-CC-PVTZ
    Blend: AUG-CC-PVTZ
  Basis Set: (AUG-CC-PVTZ AUX)
    Blend: AUG-CC-PVTZ-JKFIT
	 Reference Energy          =    -514.5890584412409225 [Eh]
	 Singles Energy            =      -0.0000000000000000 [Eh]
	 Same-Spin Energy          =      -0.5588281573171472 [Eh]
	 Opposite-Spin Energy      =      -1.7444912957996974 [Eh]
	 Correlation Energy        =      -2.3033194531168446 [Eh]
	 Total Energy              =    -516.8923778943577645 [Eh]

	 ================> DF-SCS-MP2 Energies <==================
	-----------------------------------------------------------
	 SCS Same-Spin Scale       =       0.3333333333333333 [-]
	 SCS Opposite-Spin Scale   =       1.2000000000000000 [-]
	 SCS Same-Spin Energy      =      -0.1862760524390490 [Eh]
	 SCS Opposite-Spin Energy  =      -2.0933895549596366 [Eh]
	 SCS Correlation Energy    =      -2.2796656073986856 [Eh]
	 SCS Total Energy          =    -516.8687240486395922 [Eh]
	-----------------------------------------------------------

  Dipole Moment: [D]
     X:    -2.6379      Y:     1.9851      Z:     0.0184     Total:     3.3014

*** Psi4 exiting successfully. Buy a developer a beer!
