                               Psi4 1.3.2 release

  ==> Input File <==

--------------------------------------------------------------------------
#psi4
#
memory 32 gb

molecule  {
0 1
  O        3.0244724    -1.5207010     0.0966911
  N        0.8317470    -1.1153310    -0.4215630
  C        0.1960040     1.9504030    -0.2395030
  C        1.6857700     1.6448450    -0.3508570
  C       -0.7674710     0.7851500    -0.1025020
  C        2.1481850     0.6250380     0.6971500
  C       -0.4596220    -0.5879500    -0.1790540
  C        2.0510250    -0.7686880     0.1361100
  C       -2.1103850     1.1321340     0.1249900
  C       -1.4919760    -1.5397800    -0.0852490
  C       -3.1313420     0.1920050     0.2149350
  C       -2.8150140    -1.1632860     0.1069400
  H       -0.1141940     2.5504580    -1.1051150
  H        0.0480080     2.5950730     0.6372840
  H        1.9308140     1.2745600    -1.3520490
  H        2.2359360     2.5841340    -0.2253410
  H        1.5370720     0.7103830     1.6057590
  H        3.1934550     0.7649280     0.9813470
  H        0.8461440    -2.0798130    -0.7458600
  H       -2.3558010     2.1909910     0.2008090
  H       -1.2325710    -2.5958500    -0.1409630
  H       -4.1571650     0.5114050     0.3790120
  H       -3.5892060    -1.9233590     0.1747080
units angstrom
no_reorient  #important for SAPT in psi4, default
symmetry c1  #important for SAPT in psi4, default
}

set PROPERTIES_ORIGIN ["COM"]
properties('MP2/aug-cc-pvtz', properties = ['dipole'])
--------------------------------------------------------------------------

    Molecular point group: c1
  Charge       = 0
  Multiplicity = 1
  Basis Set: AUG-CC-PVTZ
    Blend: AUG-CC-PVTZ
  Basis Set: (AUG-CC-PVTZ AUX)
    Blend: AUG-CC-PVTZ-JKFIT

    Orbital Energies [Eh]
    ---------------------

    Doubly Occupied:

       1A    -20.525926     2A    -15.598205     3A    -11.356816
       4A    -11.298230     5A    -11.255723     6A    -11.246923
       7A    -11.245358     8A    -11.245111     9A    -11.244694
      10A    -11.241391    11A    -11.240371    12A    -11.240362
      13A     -1.379392    14A     -1.255055    15A     -1.152252
      16A     -1.101044    17A     -1.038555    18A     -1.016841
      19A     -0.956536    20A     -0.880581    21A     -0.843427
      22A     -0.808766    23A     -0.765845    24A     -0.722262
      25A     -0.681571    26A     -0.671368    27A     -0.646106
      28A     -0.629308    29A     -0.611352    30A     -0.603194
      31A     -0.600645    32A     -0.578635    33A     -0.564731
      34A     -0.541853    35A     -0.518047    36A     -0.510329
      37A     -0.498148    38A     -0.491593    39A     -0.482359
      40A     -0.436393    41A     -0.424475    42A     -0.340917
      43A     -0.316921

  @DF-RHF Final Energy:  -514.59402829082524

   => Energetics <=

    Nuclear Repulsion Energy =            674.9754091870665889
    One-Electron Energy =               -2037.5236593078095666
    Two-Electron Energy =                 847.9542218299177421
    Total Energy =                       -514.5940282908252357
  Basis Set: (AUG-CC-PVTZ AUX)
    Blend: AUG-CC-PVTZ-RI
    Molecular point group: c1

    Geometry (in Angstrom), charge = 0, multiplicity = 1:

       Center              X                  Y                   Z               Mass
    ------------   -----------------  -----------------  -----------------  -----------------
         O            3.011964629225    -1.483027057857     0.097115076979    15.994914619570
         N            0.819239229225    -1.077657057857    -0.421139023021    14.003074004430
         C            0.183496229225     1.988076942143    -0.239079023021    12.000000000000
         C            1.673262229225     1.682518942143    -0.350433023021    12.000000000000
         C           -0.779978770775     0.822823942143    -0.102078023021    12.000000000000
         C            2.135677229225     0.662711942143     0.697573976979    12.000000000000
         C           -0.472129770775    -0.550276057857    -0.178630023021    12.000000000000
         C            2.038517229225    -0.731014057857     0.136533976979    12.000000000000
         C           -2.122892770775     1.169807942143     0.125413976979    12.000000000000
         C           -1.504483770775    -1.502106057857    -0.084825023021    12.000000000000
         C           -3.143849770775     0.229678942143     0.215358976979    12.000000000000
         C           -2.827521770775    -1.125612057857     0.107363976979    12.000000000000
         H           -0.126701770775     2.588131942143    -1.104691023021     1.007825032230
         H            0.035500229225     2.632746942143     0.637707976979     1.007825032230
         H            1.918306229225     1.312233942143    -1.351625023021     1.007825032230
         H            2.223428229225     2.621807942143    -0.224917023021     1.007825032230
         H            1.524564229225     0.748056942143     1.606182976979     1.007825032230
         H            3.180947229225     0.802601942143     0.981770976979     1.007825032230
         H            0.833636229225    -2.042139057857    -0.745436023021     1.007825032230
         H           -2.368308770775     2.228664942143     0.201232976979     1.007825032230
         H           -1.245078770775    -2.558176057857    -0.140539023021     1.007825032230
         H           -4.169672770775     0.549078942143     0.379435976979     1.007825032230
         H           -3.601713770775    -1.885685057857     0.175131976979     1.007825032230

  Basis Set: AUG-CC-PVTZ
    Blend: AUG-CC-PVTZ
  Basis Set: (AUG-CC-PVTZ AUX)
    Blend: AUG-CC-PVTZ-JKFIT
	 Reference Energy          =    -514.5940282908252357 [Eh]
	 Singles Energy            =      -0.0000000000000000 [Eh]
	 Same-Spin Energy          =      -0.5578767302449730 [Eh]
	 Opposite-Spin Energy      =      -1.7431105344372098 [Eh]
	 Correlation Energy        =      -2.3009872646821830 [Eh]
	 Total Energy              =    -516.8950155555073707 [Eh]

	 ================> DF-SCS-MP2 Energies <==================
	-----------------------------------------------------------
	 SCS Same-Spin Scale       =       0.3333333333333333 [-]
	 SCS Opposite-Spin Scale   =       1.2000000000000000 [-]
	 SCS Same-Spin Energy      =      -0.1859589100816577 [Eh]
	 SCS Opposite-Spin Energy  =      -2.0917326413246515 [Eh]
	 SCS Correlation Energy    =      -2.2776915514063090 [Eh]
	 SCS Total Energy          =    -516.8717198422315278 [Eh]
	-----------------------------------------------------------

  Dipole Moment: [D]
     X:    -2.8229      Y:     1.9847      Z:    -0.0119     Total:     3.4508

*** Psi4 exiting successfully. Buy a developer a beer!
