                               Psi4 1.3.2 release

  ==> Input File <==

--------------------------------------------------------------------------
#psi4
#
memory 32 gb

molecule  {
0 1
  O        3.0005300    -1.5493530     0.0754490
  N        0.8317470    -1.1153310    -0.4215630
  C        0.1960040     1.9504030    -0.2395030
  C        1.6857700     1.6448450    -0.3508570
  C       -0.7912520     0.7794510    -0.0998654
  C        2.1481850     0.6250380     0.6971500
  C       -0.4596220    -0.5879500    -0.1790540
  C        2.0510250    -0.7686880     0.1361100
  C       -2.1103850     1.1321340     0.1249900
  C       -1.4919760    -1.5397800    -0.0852490
  C       -3.1313420     0.1920050     0.2149350
  C       -2.8150140    -1.1632860     0.1069400
  H       -0.1141940     2.5504580    -1.1051150
  H        0.0480080     2.5950730     0.6372840
  H        1.9308140     1.2745600    -1.3520490
  H        2.2359360     2.5841340    -0.2253410
  H        1.5370720     0.7103830     1.6057590
  H        3.1934550     0.7649280     0.9813470
  H        0.8461440    -2.0798130    -0.7458600
  H       -2.3558010     2.1909910     0.2008090
  H       -1.2325710    -2.5958500    -0.1409630
  H       -4.1571650     0.5114050     0.3790120
  H       -3.5892060    -1.9233590     0.1747080
units angstrom
no_reorient  #important for SAPT in psi4, default
symmetry c1  #important for SAPT in psi4, default
}

set PROPERTIES_ORIGIN ["COM"]
properties('MP2/aug-cc-pvtz', properties = ['dipole'])
--------------------------------------------------------------------------

    Molecular point group: c1
  Charge       = 0
  Multiplicity = 1
  Basis Set: AUG-CC-PVTZ
    Blend: AUG-CC-PVTZ
  Basis Set: (AUG-CC-PVTZ AUX)
    Blend: AUG-CC-PVTZ-JKFIT

    Orbital Energies [Eh]
    ---------------------

    Doubly Occupied:

       1A    -20.525944     2A    -15.597026     3A    -11.357224
       4A    -11.297249     5A    -11.253961     6A    -11.246060
       7A    -11.245306     8A    -11.244197     9A    -11.242910
      10A    -11.242720    11A    -11.242198    12A    -11.239687
      13A     -1.380359    14A     -1.253233    15A     -1.153480
      16A     -1.100376    17A     -1.038667    18A     -1.017097
      19A     -0.957142    20A     -0.879449    21A     -0.843135
      22A     -0.809019    23A     -0.766626    24A     -0.722542
      25A     -0.681575    26A     -0.670228    27A     -0.645395
      28A     -0.629698    29A     -0.610958    30A     -0.603890
      31A     -0.600668    32A     -0.577888    33A     -0.564808
      34A     -0.542544    35A     -0.518446    36A     -0.510731
      37A     -0.498980    38A     -0.491561    39A     -0.479729
      40A     -0.435609    41A     -0.426185    42A     -0.343077
      43A     -0.315658

  @DF-RHF Final Energy:  -514.59422729787241

   => Energetics <=

    Nuclear Repulsion Energy =            675.0548732246465988
    One-Electron Energy =               -2037.6917344490245796
    Two-Electron Energy =                 848.0426339265055731
    Total Energy =                       -514.5942272978724077
  Basis Set: (AUG-CC-PVTZ AUX)
    Blend: AUG-CC-PVTZ-RI
    Molecular point group: c1

    Geometry (in Angstrom), charge = 0, multiplicity = 1:

       Center              X                  Y                   Z               Mass
    ------------   -----------------  -----------------  -----------------  -----------------
         O            2.992171172499    -1.508409496110     0.077785806642    15.994914619570
         N            0.823388172499    -1.074387496110    -0.419226193358    14.003074004430
         C            0.187645172499     1.991346503890    -0.237166193358    12.000000000000
         C            1.677411172499     1.685788503890    -0.348520193358    12.000000000000
         C           -0.799610827501     0.820394503890    -0.097528593358    12.000000000000
         C            2.139826172499     0.665981503890     0.699486806642    12.000000000000
         C           -0.467980827501    -0.547006496110    -0.176717193358    12.000000000000
         C            2.042666172499    -0.727744496110     0.138446806642    12.000000000000
         C           -2.118743827501     1.173077503890     0.127326806642    12.000000000000
         C           -1.500334827501    -1.498836496110    -0.082912193358    12.000000000000
         C           -3.139700827501     0.232948503890     0.217271806642    12.000000000000
         C           -2.823372827501    -1.122342496110     0.109276806642    12.000000000000
         H           -0.122552827501     2.591401503890    -1.102778193358     1.007825032230
         H            0.039649172499     2.636016503890     0.639620806642     1.007825032230
         H            1.922455172499     1.315503503890    -1.349712193358     1.007825032230
         H            2.227577172499     2.625077503890    -0.223004193358     1.007825032230
         H            1.528713172499     0.751326503890     1.608095806642     1.007825032230
         H            3.185096172499     0.805871503890     0.983683806642     1.007825032230
         H            0.837785172499    -2.038869496110    -0.743523193358     1.007825032230
         H           -2.364159827501     2.231934503890     0.203145806642     1.007825032230
         H           -1.240929827501    -2.554906496110    -0.138626193358     1.007825032230
         H           -4.165523827501     0.552348503890     0.381348806642     1.007825032230
         H           -3.597564827501    -1.882415496110     0.177044806642     1.007825032230

  Basis Set: AUG-CC-PVTZ
    Blend: AUG-CC-PVTZ
  Basis Set: (AUG-CC-PVTZ AUX)
    Blend: AUG-CC-PVTZ-JKFIT
	 Reference Energy          =    -514.5942272978724077 [Eh]
	 Singles Energy            =      -0.0000000000000000 [Eh]
	 Same-Spin Energy          =      -0.5577277231047346 [Eh]
	 Opposite-Spin Energy      =      -1.7427542148141095 [Eh]
	 Correlation Energy        =      -2.3004819379188444 [Eh]
	 Total Energy              =    -516.8947092357911970 [Eh]

	 ================> DF-SCS-MP2 Energies <==================
	-----------------------------------------------------------
	 SCS Same-Spin Scale       =       0.3333333333333333 [-]
	 SCS Opposite-Spin Scale   =       1.2000000000000000 [-]
	 SCS Same-Spin Energy      =      -0.1859092410349115 [Eh]
	 SCS Opposite-Spin Energy  =      -2.0913050577769314 [Eh]
	 SCS Correlation Energy    =      -2.2772142988118431 [Eh]
	 SCS Total Energy          =    -516.8714415966842353 [Eh]
	-----------------------------------------------------------

  Dipole Moment: [D]
     X:    -2.7346      Y:     2.0448      Z:     0.0368     Total:     3.4147

*** Psi4 exiting successfully. Buy a developer a beer!
