                               Psi4 1.3.2 release

  ==> Input File <==

--------------------------------------------------------------------------
#psi4
#
memory 32 gb

molecule  {
0 1
  O        3.0005300    -1.5493530     0.0754490
  N        0.8317470    -1.1153310    -0.4215630
  C        0.1960040     1.9504030    -0.2395030
  C        1.7059605     1.7218875    -0.2793290
  C       -0.7674710     0.7851500    -0.1025020
  C        2.1481850     0.6250380     0.6971500
  C       -0.4596220    -0.5879500    -0.1790540
  C        2.0510250    -0.7686880     0.1361100
  C       -2.1103850     1.1321340     0.1249900
  C       -1.4919760    -1.5397800    -0.0852490
  C       -3.1313420     0.1920050     0.2149350
  C       -2.8150140    -1.1632860     0.1069400
  H       -0.1141940     2.5504580    -1.1051150
  H        0.0480080     2.5950730     0.6372840
  H        1.9308140     1.2745600    -1.3520490
  H        2.2359360     2.5841340    -0.2253410
  H        1.5370720     0.7103830     1.6057590
  H        3.1934550     0.7649280     0.9813470
  H        0.8461440    -2.0798130    -0.7458600
  H       -2.3558010     2.1909910     0.2008090
  H       -1.2325710    -2.5958500    -0.1409630
  H       -4.1571650     0.5114050     0.3790120
  H       -3.5892060    -1.9233590     0.1747080
units angstrom
no_reorient  #important for SAPT in psi4, default
symmetry c1  #important for SAPT in psi4, default
}

set PROPERTIES_ORIGIN ["COM"]
properties('MP2/aug-cc-pvtz', properties = ['dipole'])
--------------------------------------------------------------------------

    Molecular point group: c1
  Charge       = 0
  Multiplicity = 1
  Basis Set: AUG-CC-PVTZ
    Blend: AUG-CC-PVTZ
  Basis Set: (AUG-CC-PVTZ AUX)
    Blend: AUG-CC-PVTZ-JKFIT

    Orbital Energies [Eh]
    ---------------------

    Doubly Occupied:

       1A    -20.526937     2A    -15.596756     3A    -11.358888
       4A    -11.297785     5A    -11.257099     6A    -11.246936
       7A    -11.245831     8A    -11.245137     9A    -11.244810
      10A    -11.243905    11A    -11.243204    12A    -11.240368
      13A     -1.380926    14A     -1.253265    15A     -1.152038
      16A     -1.101400    17A     -1.039138    18A     -1.016736
      19A     -0.958068    20A     -0.884044    21A     -0.843434
      22A     -0.808061    23A     -0.767376    24A     -0.720553
      25A     -0.680341    26A     -0.671686    27A     -0.651690
      28A     -0.628260    29A     -0.614762    30A     -0.606249
      31A     -0.598263    32A     -0.581261    33A     -0.566843
      34A     -0.546500    35A     -0.518388    36A     -0.506949
      37A     -0.494893    38A     -0.488576    39A     -0.475530
      40A     -0.435390    41A     -0.427638    42A     -0.340978
      43A     -0.316391

  @DF-RHF Final Energy:  -514.58150083836108

   => Energetics <=

    Nuclear Repulsion Energy =            674.1949687696154569
    One-Electron Energy =               -2035.9063708292933370
    Two-Electron Energy =                 847.1299012213166861
    Total Energy =                       -514.5815008383610802
  Basis Set: (AUG-CC-PVTZ AUX)
    Blend: AUG-CC-PVTZ-RI
    Molecular point group: c1

    Geometry (in Angstrom), charge = 0, multiplicity = 1:

       Center              X                  Y                   Z               Mass
    ------------   -----------------  -----------------  -----------------  -----------------
         O            2.988895503964    -1.514573346062     0.072653723557    15.994914619570
         N            0.820112503964    -1.080551346062    -0.424358276443    14.003074004430
         C            0.184369503964     1.985182653938    -0.242298276443    12.000000000000
         C            1.694326003964     1.756667153938    -0.282124276443    12.000000000000
         C           -0.779105496036     0.819929653938    -0.105297276443    12.000000000000
         C            2.136550503964     0.659817653938     0.694354723557    12.000000000000
         C           -0.471256496036    -0.553170346062    -0.181849276443    12.000000000000
         C            2.039390503964    -0.733908346062     0.133314723557    12.000000000000
         C           -2.122019496036     1.166913653938     0.122194723557    12.000000000000
         C           -1.503610496036    -1.505000346062    -0.088044276443    12.000000000000
         C           -3.142976496036     0.226784653938     0.212139723557    12.000000000000
         C           -2.826648496036    -1.128506346062     0.104144723557    12.000000000000
         H           -0.125828496036     2.585237653938    -1.107910276443     1.007825032230
         H            0.036373503964     2.629852653938     0.634488723557     1.007825032230
         H            1.919179503964     1.309339653938    -1.354844276443     1.007825032230
         H            2.224301503964     2.618913653938    -0.228136276443     1.007825032230
         H            1.525437503964     0.745162653938     1.602963723557     1.007825032230
         H            3.181820503964     0.799707653938     0.978551723557     1.007825032230
         H            0.834509503964    -2.045033346062    -0.748655276443     1.007825032230
         H           -2.367435496036     2.225770653938     0.198013723557     1.007825032230
         H           -1.244205496036    -2.561070346062    -0.143758276443     1.007825032230
         H           -4.168799496036     0.546184653938     0.376216723557     1.007825032230
         H           -3.600840496036    -1.888579346062     0.171912723557     1.007825032230

  Basis Set: AUG-CC-PVTZ
    Blend: AUG-CC-PVTZ
  Basis Set: (AUG-CC-PVTZ AUX)
    Blend: AUG-CC-PVTZ-JKFIT
	 Reference Energy          =    -514.5815008383610802 [Eh]
	 Singles Energy            =      -0.0000000000000000 [Eh]
	 Same-Spin Energy          =      -0.5579986020217040 [Eh]
	 Opposite-Spin Energy      =      -1.7436796777636800 [Eh]
	 Correlation Energy        =      -2.3016782797853841 [Eh]
	 Total Energy              =    -516.8831791181464723 [Eh]

	 ================> DF-SCS-MP2 Energies <==================
	-----------------------------------------------------------
	 SCS Same-Spin Scale       =       0.3333333333333333 [-]
	 SCS Opposite-Spin Scale   =       1.2000000000000000 [-]
	 SCS Same-Spin Energy      =      -0.1859995340072347 [Eh]
	 SCS Opposite-Spin Energy  =      -2.0924156133164158 [Eh]
	 SCS Correlation Energy    =      -2.2784151473236505 [Eh]
	 SCS Total Energy          =    -516.8599159856847791 [Eh]
	-----------------------------------------------------------

  Dipole Moment: [D]
     X:    -2.7706      Y:     2.0571      Z:     0.0740     Total:     3.4516

*** Psi4 exiting successfully. Buy a developer a beer!
