                               Psi4 1.3.2 release

  ==> Input File <==

--------------------------------------------------------------------------
#psi4
#
memory 32 gb

molecule  {
0 1
  O        3.0005300    -1.5493530     0.0754490
  N        0.8317470    -1.1153310    -0.4215630
  C        0.1960040     1.9504030    -0.2395030
  C        1.6857700     1.6448450    -0.3508570
  C       -0.8423623     0.8428937    -0.2302109
  C        2.1481850     0.6250380     0.6971500
  C       -0.4596220    -0.5879500    -0.1790540
  C        2.0510250    -0.7686880     0.1361100
  C       -2.1103850     1.1321340     0.1249900
  C       -1.4919760    -1.5397800    -0.0852490
  C       -3.1313420     0.1920050     0.2149350
  C       -2.8150140    -1.1632860     0.1069400
  H       -0.1141940     2.5504580    -1.1051150
  H        0.0480080     2.5950730     0.6372840
  H        1.9308140     1.2745600    -1.3520490
  H        2.2359360     2.5841340    -0.2253410
  H        1.5370720     0.7103830     1.6057590
  H        3.1934550     0.7649280     0.9813470
  H        0.8461440    -2.0798130    -0.7458600
  H       -2.3558010     2.1909910     0.2008090
  H       -1.2325710    -2.5958500    -0.1409630
  H       -4.1571650     0.5114050     0.3790120
  H       -3.5892060    -1.9233590     0.1747080
units angstrom
no_reorient  #important for SAPT in psi4, default
symmetry c1  #important for SAPT in psi4, default
}

set PROPERTIES_ORIGIN ["COM"]
properties('MP2/aug-cc-pvtz', properties = ['dipole'])
--------------------------------------------------------------------------

    Molecular point group: c1
  Charge       = 0
  Multiplicity = 1
  Basis Set: AUG-CC-PVTZ
    Blend: AUG-CC-PVTZ
  Basis Set: (AUG-CC-PVTZ AUX)
    Blend: AUG-CC-PVTZ-JKFIT

    Orbital Energies [Eh]
    ---------------------

    Doubly Occupied:

       1A    -20.526711     2A    -15.598121     3A    -11.357666
       4A    -11.303500     5A    -11.257438     6A    -11.245946
       7A    -11.244666     8A    -11.243766     9A    -11.243334
      10A    -11.243281    11A    -11.239864    12A    -11.238029
      13A     -1.380924    14A     -1.251616    15A     -1.154086
      16A     -1.101774    17A     -1.041298    18A     -1.015992
      19A     -0.955279    20A     -0.882239    21A     -0.837629
      22A     -0.806835    23A     -0.768997    24A     -0.721762
      25A     -0.682812    26A     -0.669160    27A     -0.647774
      28A     -0.627278    29A     -0.609619    30A     -0.604840
      31A     -0.600589    32A     -0.579027    33A     -0.563610
      34A     -0.544755    35A     -0.517078    36A     -0.511329
      37A     -0.498735    38A     -0.492960    39A     -0.474833
      40A     -0.434485    41A     -0.426468    42A     -0.347686
      43A     -0.310069

  @DF-RHF Final Energy:  -514.58001262946345

   => Energetics <=

    Nuclear Repulsion Energy =            674.0338222088464590
    One-Electron Energy =               -2035.6199454105944824
    Two-Electron Energy =                 847.0061105722845696
    Total Energy =                       -514.5800126294634538
  Basis Set: (AUG-CC-PVTZ AUX)
    Blend: AUG-CC-PVTZ-RI
    Molecular point group: c1

    Geometry (in Angstrom), charge = 0, multiplicity = 1:

       Center              X                  Y                   Z               Mass
    ------------   -----------------  -----------------  -----------------  -----------------
         O            2.995978647831    -1.513135676846     0.087495929179    15.994914619570
         N            0.827195647831    -1.079113676846    -0.409516070821    14.003074004430
         C            0.191452647831     1.986620323154    -0.227456070821    12.000000000000
         C            1.681218647831     1.681062323154    -0.338810070821    12.000000000000
         C           -0.846913652169     0.879111023154    -0.218163970821    12.000000000000
         C            2.143633647831     0.661255323154     0.709196929179    12.000000000000
         C           -0.464173352169    -0.551732676846    -0.167007070821    12.000000000000
         C            2.046473647832    -0.732470676846     0.148156929179    12.000000000000
         C           -2.114936352168     1.168351323154     0.137036929179    12.000000000000
         C           -1.496527352169    -1.503562676846    -0.073202070821    12.000000000000
         C           -3.135893352169     0.228222323154     0.226981929179    12.000000000000
         C           -2.819565352169    -1.127068676846     0.118986929179    12.000000000000
         H           -0.118745352169     2.586675323154    -1.093068070821     1.007825032230
         H            0.043456647831     2.631290323154     0.649330929179     1.007825032230
         H            1.926262647831     1.310777323154    -1.340002070821     1.007825032230
         H            2.231384647831     2.620351323154    -0.213294070821     1.007825032230
         H            1.532520647831     0.746600323154     1.617805929179     1.007825032230
         H            3.188903647831     0.801145323154     0.993393929179     1.007825032230
         H            0.841592647831    -2.043595676846    -0.733813070821     1.007825032230
         H           -2.360352352169     2.227208323154     0.212855929179     1.007825032230
         H           -1.237122352169    -2.559632676846    -0.128916070821     1.007825032230
         H           -4.161716352169     0.547622323154     0.391058929179     1.007825032230
         H           -3.593757352169    -1.887141676846     0.186754929179     1.007825032230

  Basis Set: AUG-CC-PVTZ
    Blend: AUG-CC-PVTZ
  Basis Set: (AUG-CC-PVTZ AUX)
    Blend: AUG-CC-PVTZ-JKFIT
	 Reference Energy          =    -514.5800126294634538 [Eh]
	 Singles Energy            =      -0.0000000000000000 [Eh]
	 Same-Spin Energy          =      -0.5582299944856060 [Eh]
	 Opposite-Spin Energy      =      -1.7440155097517720 [Eh]
	 Correlation Energy        =      -2.3022455042373782 [Eh]
	 Total Energy              =    -516.8822581337008160 [Eh]

	 ================> DF-SCS-MP2 Energies <==================
	-----------------------------------------------------------
	 SCS Same-Spin Scale       =       0.3333333333333333 [-]
	 SCS Opposite-Spin Scale   =       1.2000000000000000 [-]
	 SCS Same-Spin Energy      =      -0.1860766648285353 [Eh]
	 SCS Opposite-Spin Energy  =      -2.0928186117021261 [Eh]
	 SCS Correlation Energy    =      -2.2788952765306614 [Eh]
	 SCS Total Energy          =    -516.8589079059941014 [Eh]
	-----------------------------------------------------------

  Dipole Moment: [D]
     X:    -2.6716      Y:     2.0323      Z:     0.0670     Total:     3.3574

*** Psi4 exiting successfully. Buy a developer a beer!
