                               Psi4 1.3.2 release

  ==> Input File <==

--------------------------------------------------------------------------
#psi4
#
memory 32 gb

molecule  {
0 1
  O        3.0005300    -1.5493530     0.0754490
  N        0.8317470    -1.1153310    -0.4215630
  C        0.2736734     1.8797075    -0.2535988
  C        1.6857700     1.6448450    -0.3508570
  C       -0.7674710     0.7851500    -0.1025020
  C        2.1481850     0.6250380     0.6971500
  C       -0.4596220    -0.5879500    -0.1790540
  C        2.0510250    -0.7686880     0.1361100
  C       -2.1103850     1.1321340     0.1249900
  C       -1.4919760    -1.5397800    -0.0852490
  C       -3.1313420     0.1920050     0.2149350
  C       -2.8150140    -1.1632860     0.1069400
  H       -0.1141940     2.5504580    -1.1051150
  H        0.0480080     2.5950730     0.6372840
  H        1.9308140     1.2745600    -1.3520490
  H        2.2359360     2.5841340    -0.2253410
  H        1.5370720     0.7103830     1.6057590
  H        3.1934550     0.7649280     0.9813470
  H        0.8461440    -2.0798130    -0.7458600
  H       -2.3558010     2.1909910     0.2008090
  H       -1.2325710    -2.5958500    -0.1409630
  H       -4.1571650     0.5114050     0.3790120
  H       -3.5892060    -1.9233590     0.1747080
units angstrom
no_reorient  #important for SAPT in psi4, default
symmetry c1  #important for SAPT in psi4, default
}

set PROPERTIES_ORIGIN ["COM"]
properties('MP2/aug-cc-pvtz', properties = ['dipole'])
--------------------------------------------------------------------------

    Molecular point group: c1
  Charge       = 0
  Multiplicity = 1
  Basis Set: AUG-CC-PVTZ
    Blend: AUG-CC-PVTZ
  Basis Set: (AUG-CC-PVTZ AUX)
    Blend: AUG-CC-PVTZ-JKFIT

    Orbital Energies [Eh]
    ---------------------

    Doubly Occupied:

       1A    -20.526222     2A    -15.596733     3A    -11.357739
       4A    -11.295474     5A    -11.257760     6A    -11.251826
       7A    -11.246696     8A    -11.246191     9A    -11.244217
      10A    -11.243354    11A    -11.240983    12A    -11.239889
      13A     -1.380710    14A     -1.253933    15A     -1.152005
      16A     -1.114034    17A     -1.038683    18A     -1.017363
      19A     -0.961362    20A     -0.881130    21A     -0.843864
      22A     -0.804911    23A     -0.766064    24A     -0.721938
      25A     -0.684072    26A     -0.671293    27A     -0.649283
      28A     -0.629617    29A     -0.616457    30A     -0.603467
      31A     -0.598828    32A     -0.578860    33A     -0.562966
      34A     -0.543326    35A     -0.519593    36A     -0.512753
      37A     -0.508323    38A     -0.479586    39A     -0.477741
      40A     -0.435566    41A     -0.426394    42A     -0.338877
      43A     -0.315079

  @DF-RHF Final Energy:  -514.58072325464229

   => Energetics <=

    Nuclear Repulsion Energy =            676.4154809700759188
    One-Electron Energy =               -2040.3220863079052378
    Two-Electron Energy =                 849.3258820831869116
    Total Energy =                       -514.5807232546422938
  Basis Set: (AUG-CC-PVTZ AUX)
    Blend: AUG-CC-PVTZ-RI
    Molecular point group: c1

    Geometry (in Angstrom), charge = 0, multiplicity = 1:

       Center              X                  Y                   Z               Mass
    ------------   -----------------  -----------------  -----------------  -----------------
         O            2.984613598088    -1.503567564632     0.079032291211    15.994914619570
         N            0.815830598088    -1.069545564632    -0.417979708789    14.003074004430
         C            0.257756998088     1.925492935368    -0.250015508789    12.000000000000
         C            1.669853598088     1.690630435368    -0.347273708789    12.000000000000
         C           -0.783387401912     0.830935435368    -0.098918708789    12.000000000000
         C            2.132268598088     0.670823435368     0.700733291211    12.000000000000
         C           -0.475538401912    -0.542164564632    -0.175470708789    12.000000000000
         C            2.035108598088    -0.722902564632     0.139693291211    12.000000000000
         C           -2.126301401912     1.177919435368     0.128573291211    12.000000000000
         C           -1.507892401912    -1.493994564632    -0.081665708789    12.000000000000
         C           -3.147258401912     0.237790435368     0.218518291211    12.000000000000
         C           -2.830930401912    -1.117500564632     0.110523291211    12.000000000000
         H           -0.130110401912     2.596243435368    -1.101531708789     1.007825032230
         H            0.032091598088     2.640858435368     0.640867291211     1.007825032230
         H            1.914897598088     1.320345435368    -1.348465708789     1.007825032230
         H            2.220019598088     2.629919435368    -0.221757708789     1.007825032230
         H            1.521155598088     0.756168435368     1.609342291211     1.007825032230
         H            3.177538598088     0.810713435368     0.984930291211     1.007825032230
         H            0.830227598088    -2.034027564632    -0.742276708789     1.007825032230
         H           -2.371717401912     2.236776435368     0.204392291211     1.007825032230
         H           -1.248487401912    -2.550064564632    -0.137379708789     1.007825032230
         H           -4.173081401912     0.557190435368     0.382595291211     1.007825032230
         H           -3.605122401912    -1.877573564632     0.178291291211     1.007825032230

  Basis Set: AUG-CC-PVTZ
    Blend: AUG-CC-PVTZ
  Basis Set: (AUG-CC-PVTZ AUX)
    Blend: AUG-CC-PVTZ-JKFIT
	 Reference Energy          =    -514.5807232546422938 [Eh]
	 Singles Energy            =      -0.0000000000000000 [Eh]
	 Same-Spin Energy          =      -0.5590677816629483 [Eh]
	 Opposite-Spin Energy      =      -1.7446333320373049 [Eh]
	 Correlation Energy        =      -2.3037011137002530 [Eh]
	 Total Energy              =    -516.8844243683425930 [Eh]

	 ================> DF-SCS-MP2 Energies <==================
	-----------------------------------------------------------
	 SCS Same-Spin Scale       =       0.3333333333333333 [-]
	 SCS Opposite-Spin Scale   =       1.2000000000000000 [-]
	 SCS Same-Spin Energy      =      -0.1863559272209828 [Eh]
	 SCS Opposite-Spin Energy  =      -2.0935599984447659 [Eh]
	 SCS Correlation Energy    =      -2.2799159256657489 [Eh]
	 SCS Total Energy          =    -516.8606391803079987 [Eh]
	-----------------------------------------------------------

  Dipole Moment: [D]
     X:    -2.6705      Y:     2.0379      Z:     0.0205     Total:     3.3593

*** Psi4 exiting successfully. Buy a developer a beer!
