                               Psi4 1.3.2 release

  ==> Input File <==

--------------------------------------------------------------------------
#psi4
#
memory 32 gb

molecule  {
0 1
  O        3.0005300    -1.5493530     0.0754490
  N        0.8317470    -1.1153310    -0.4215630
  C        0.1981772     1.9672928    -0.2599549
  C        1.6857700     1.6448450    -0.3508570
  C       -0.7674710     0.7851500    -0.1025020
  C        2.1481850     0.6250380     0.6971500
  C       -0.4596220    -0.5879500    -0.1790540
  C        2.0510250    -0.7686880     0.1361100
  C       -2.1103850     1.1321340     0.1249900
  C       -1.4919760    -1.5397800    -0.0852490
  C       -3.1313420     0.1920050     0.2149350
  C       -2.8150140    -1.1632860     0.1069400
  H       -0.1141940     2.5504580    -1.1051150
  H        0.0480080     2.5950730     0.6372840
  H        1.9308140     1.2745600    -1.3520490
  H        2.2359360     2.5841340    -0.2253410
  H        1.5370720     0.7103830     1.6057590
  H        3.1934550     0.7649280     0.9813470
  H        0.8461440    -2.0798130    -0.7458600
  H       -2.3558010     2.1909910     0.2008090
  H       -1.2325710    -2.5958500    -0.1409630
  H       -4.1571650     0.5114050     0.3790120
  H       -3.5892060    -1.9233590     0.1747080
units angstrom
no_reorient  #important for SAPT in psi4, default
symmetry c1  #important for SAPT in psi4, default
}

set PROPERTIES_ORIGIN ["COM"]
properties('MP2/aug-cc-pvtz', properties = ['dipole'])
--------------------------------------------------------------------------

    Molecular point group: c1
  Charge       = 0
  Multiplicity = 1
  Basis Set: AUG-CC-PVTZ
    Blend: AUG-CC-PVTZ
  Basis Set: (AUG-CC-PVTZ AUX)
    Blend: AUG-CC-PVTZ-JKFIT

    Orbital Energies [Eh]
    ---------------------

    Doubly Occupied:

       1A    -20.525688     2A    -15.596045     3A    -11.357036
       4A    -11.297319     5A    -11.255561     6A    -11.246405
       7A    -11.244872     8A    -11.244600     9A    -11.244365
      10A    -11.243291    11A    -11.242037    12A    -11.239695
      13A     -1.380102    14A     -1.252821    15A     -1.150948
      16A     -1.101020    17A     -1.038006    18A     -1.015981
      19A     -0.958263    20A     -0.879605    21A     -0.842402
      22A     -0.809072    23A     -0.765939    24A     -0.721625
      25A     -0.681861    26A     -0.670301    27A     -0.645557
      28A     -0.628738    29A     -0.614159    30A     -0.603344
      31A     -0.600572    32A     -0.577332    33A     -0.564416
      34A     -0.541886    35A     -0.517793    36A     -0.510363
      37A     -0.497136    38A     -0.495983    39A     -0.479681
      40A     -0.435217    41A     -0.426153    42A     -0.340899
      43A     -0.315990

  @DF-RHF Final Energy:  -514.59392516303308

   => Energetics <=

    Nuclear Repulsion Energy =            674.7109138728222888
    One-Electron Energy =               -2037.0095254800903604
    Two-Electron Energy =                 847.7046864442348806
    Total Energy =                       -514.5939251630330773
  Basis Set: (AUG-CC-PVTZ AUX)
    Blend: AUG-CC-PVTZ-RI
    Molecular point group: c1

    Geometry (in Angstrom), charge = 0, multiplicity = 1:

       Center              X                  Y                   Z               Mass
    ------------   -----------------  -----------------  -----------------  -----------------
         O            2.990237707498    -1.510092254748     0.079505790563    15.994914619570
         N            0.821454707498    -1.076070254748    -0.417506209437    14.003074004430
         C            0.187884907498     2.006553545252    -0.255898109437    12.000000000000
         C            1.675477707498     1.684105745252    -0.346800209437    12.000000000000
         C           -0.777763292502     0.824410745252    -0.098445209437    12.000000000000
         C            2.137892707498     0.664298745252     0.701206790563    12.000000000000
         C           -0.469914292502    -0.548689254748    -0.174997209437    12.000000000000
         C            2.040732707498    -0.729427254748     0.140166790563    12.000000000000
         C           -2.120677292502     1.171394745252     0.129046790563    12.000000000000
         C           -1.502268292502    -1.500519254748    -0.081192209437    12.000000000000
         C           -3.141634292502     0.231265745252     0.218991790563    12.000000000000
         C           -2.825306292502    -1.124025254748     0.110996790563    12.000000000000
         H           -0.124486292502     2.589718745252    -1.101058209437     1.007825032230
         H            0.037715707498     2.634333745252     0.641340790563     1.007825032230
         H            1.920521707498     1.313820745252    -1.347992209437     1.007825032230
         H            2.225643707498     2.623394745252    -0.221284209437     1.007825032230
         H            1.526779707498     0.749643745252     1.609815790563     1.007825032230
         H            3.183162707498     0.804188745252     0.985403790563     1.007825032230
         H            0.835851707498    -2.040552254748    -0.741803209437     1.007825032230
         H           -2.366093292502     2.230251745252     0.204865790563     1.007825032230
         H           -1.242863292502    -2.556589254748    -0.136906209437     1.007825032230
         H           -4.167457292502     0.550665745252     0.383068790563     1.007825032230
         H           -3.599498292502    -1.884098254748     0.178764790563     1.007825032230

  Basis Set: AUG-CC-PVTZ
    Blend: AUG-CC-PVTZ
  Basis Set: (AUG-CC-PVTZ AUX)
    Blend: AUG-CC-PVTZ-JKFIT
	 Reference Energy          =    -514.5939251630330773 [Eh]
	 Singles Energy            =      -0.0000000000000000 [Eh]
	 Same-Spin Energy          =      -0.5577390760728536 [Eh]
	 Opposite-Spin Energy      =      -1.7429124154764173 [Eh]
	 Correlation Energy        =      -2.3006514915492708 [Eh]
	 Total Energy              =    -516.8945766545823517 [Eh]

	 ================> DF-SCS-MP2 Energies <==================
	-----------------------------------------------------------
	 SCS Same-Spin Scale       =       0.3333333333333333 [-]
	 SCS Opposite-Spin Scale   =       1.2000000000000000 [-]
	 SCS Same-Spin Energy      =      -0.1859130253576178 [Eh]
	 SCS Opposite-Spin Energy  =      -2.0914948985717006 [Eh]
	 SCS Correlation Energy    =      -2.2774079239293186 [Eh]
	 SCS Total Energy          =    -516.8713330869624087 [Eh]
	-----------------------------------------------------------

  Dipole Moment: [D]
     X:    -2.7430      Y:     2.0614      Z:     0.0227     Total:     3.4313

*** Psi4 exiting successfully. Buy a developer a beer!
