                               Psi4 1.4a3.dev225

  ==> Input File <==

--------------------------------------------------------------------------
#psi4
#
memory 32 gb

molecule  {
0 1
  O        3.0005300    -1.5493530     0.0754490
  N        0.8317470    -1.1153310    -0.4215630
  C        0.1960040     1.9504030    -0.2395030
  C        1.6857700     1.6448450    -0.3508570
  C       -0.7674710     0.7851500    -0.1025020
  C        2.1481850     0.6250380     0.6971500
  C       -0.4596220    -0.5879500    -0.1790540
  C        2.0334161    -0.7736942     0.1280561
  C       -2.1103850     1.1321340     0.1249900
  C       -1.4919760    -1.5397800    -0.0852490
  C       -3.1313420     0.1920050     0.2149350
  C       -2.8150140    -1.1632860     0.1069400
  H       -0.1141940     2.5504580    -1.1051150
  H        0.0480080     2.5950730     0.6372840
  H        1.9308140     1.2745600    -1.3520490
  H        2.2359360     2.5841340    -0.2253410
  H        1.5370720     0.7103830     1.6057590
  H        3.1934550     0.7649280     0.9813470
  H        0.8461440    -2.0798130    -0.7458600
  H       -2.3558010     2.1909910     0.2008090
  H       -1.2325710    -2.5958500    -0.1409630
  H       -4.1571650     0.5114050     0.3790120
  H       -3.5892060    -1.9233590     0.1747080
units angstrom
no_reorient  #important for SAPT in psi4, default
symmetry c1  #important for SAPT in psi4, default
}

set PROPERTIES_ORIGIN ["COM"]
properties('MP2/aug-cc-pvtz', properties = ['dipole'])
--------------------------------------------------------------------------

    Molecular point group: c1
  Charge       = 0
  Multiplicity = 1
  Basis Set: AUG-CC-PVTZ
    Blend: AUG-CC-PVTZ
  Basis Set: (AUG-CC-PVTZ AUX)
    Blend: AUG-CC-PVTZ-JKFIT

    Orbital Energies [Eh]
    ---------------------

    Doubly Occupied:

       1A    -20.521620     2A    -15.599254     3A    -11.355598
       4A    -11.298890     5A    -11.256731     6A    -11.247679
       7A    -11.246101     8A    -11.246014     9A    -11.245322
      10A    -11.242380    11A    -11.241611    12A    -11.241271
      13A     -1.373792    14A     -1.256851    15A     -1.153781
      16A     -1.101436    17A     -1.038786    18A     -1.018635
      19A     -0.956600    20A     -0.882081    21A     -0.844541
      22A     -0.810274    23A     -0.767511    24A     -0.724070
      25A     -0.680098    26A     -0.672318    27A     -0.646442
      28A     -0.628293    29A     -0.611726    30A     -0.603801
      31A     -0.600987    32A     -0.577436    33A     -0.563651
      34A     -0.542734    35A     -0.518128    36A     -0.510821
      37A     -0.497784    38A     -0.492557    39A     -0.482584
      40A     -0.434248    41A     -0.422445    42A     -0.341658
      43A     -0.318064

  @DF-RHF Final Energy:  -514.59359497722357

   => Energetics <=

    Nuclear Repulsion Energy =            675.2186211543081527
    One-Electron Energy =               -2037.9912290682796083
    Two-Electron Energy =                 848.1790129367479949
    Total Energy =                       -514.5935949772235745
  Basis Set: (AUG-CC-PVTZ AUX)
    Blend: AUG-CC-PVTZ-RI
    Molecular point group: c1

    Geometry (in Angstrom), charge = 0, multiplicity = 1:

       Center              X                  Y                   Z               Mass
    ------------   -----------------  -----------------  -----------------  -----------------
         O            2.991711380276    -1.508461106430     0.078582198270    15.994914619570
         N            0.822928380276    -1.074439106430    -0.418429801730    14.003074004430
         C            0.187185380276     1.991294893570    -0.236369801730    12.000000000000
         C            1.676951380276     1.685736893570    -0.347723801730    12.000000000000
         C           -0.776289619724     0.826041893570    -0.099368801730    12.000000000000
         C            2.139366380276     0.665929893570     0.700283198270    12.000000000000
         C           -0.468440619724    -0.547058106430    -0.175920801730    12.000000000000
         C            2.024597480276    -0.732802306430     0.131189298270    12.000000000000
         C           -2.119203619724     1.173025893570     0.128123198270    12.000000000000
         C           -1.500794619724    -1.498888106430    -0.082115801730    12.000000000000
         C           -3.140160619724     0.232896893570     0.218068198270    12.000000000000
         C           -2.823832619724    -1.122394106430     0.110073198270    12.000000000000
         H           -0.123012619724     2.591349893570    -1.101981801730     1.007825032230
         H            0.039189380276     2.635964893570     0.640417198270     1.007825032230
         H            1.921995380276     1.315451893570    -1.348915801730     1.007825032230
         H            2.227117380276     2.625025893570    -0.222207801730     1.007825032230
         H            1.528253380276     0.751274893570     1.608892198270     1.007825032230
         H            3.184636380276     0.805819893570     0.984480198270     1.007825032230
         H            0.837325380276    -2.038921106430    -0.742726801730     1.007825032230
         H           -2.364619619724     2.231882893570     0.203942198270     1.007825032230
         H           -1.241389619724    -2.554958106430    -0.137829801730     1.007825032230
         H           -4.165983619724     0.552296893570     0.382145198270     1.007825032230
         H           -3.598024619724    -1.882467106430     0.177841198270     1.007825032230

  Basis Set: AUG-CC-PVTZ
    Blend: AUG-CC-PVTZ
  Basis Set: (AUG-CC-PVTZ AUX)
    Blend: AUG-CC-PVTZ-JKFIT
	 Reference Energy          =    -514.5935949772235745 [Eh]
	 Singles Energy            =      -0.0000000000000000 [Eh]
	 Same-Spin Energy          =      -0.5579803946074029 [Eh]
	 Opposite-Spin Energy      =      -1.7432623144417443 [Eh]
	 Correlation Energy        =      -2.3012427090491472 [Eh]
	 Total Energy              =    -516.8948376862726946 [Eh]

	 ================> DF-SCS-MP2 Energies <==================
	-----------------------------------------------------------
	 SCS Same-Spin Scale       =       0.3333333333333333 [-]
	 SCS Opposite-Spin Scale   =       1.2000000000000000 [-]
	 SCS Same-Spin Energy      =      -0.1859934648691343 [Eh]
	 SCS Opposite-Spin Energy  =      -2.0919147773300932 [Eh]
	 SCS Correlation Energy    =      -2.2779082421992274 [Eh]
	 SCS Total Energy          =    -516.8715032194228343 [Eh]
	-----------------------------------------------------------

  Dipole Moment: [D]
     X:    -2.9537      Y:     2.0729      Z:    -0.0068     Total:     3.6085

*** Psi4 exiting successfully. Buy a developer a beer!
