                               Psi4 1.3.2 release

  ==> Input File <==

--------------------------------------------------------------------------
#psi4
#
memory 32 gb

molecule  {
0 1
  O        3.0005300    -1.5493530     0.0754490
  N        0.8221787    -1.1381134    -0.4217107
  C        0.1960040     1.9504030    -0.2395030
  C        1.6857700     1.6448450    -0.3508570
  C       -0.7674710     0.7851500    -0.1025020
  C        2.1481850     0.6250380     0.6971500
  C       -0.4596220    -0.5879500    -0.1790540
  C        2.0510250    -0.7686880     0.1361100
  C       -2.1103850     1.1321340     0.1249900
  C       -1.4919760    -1.5397800    -0.0852490
  C       -3.1313420     0.1920050     0.2149350
  C       -2.8150140    -1.1632860     0.1069400
  H       -0.1141940     2.5504580    -1.1051150
  H        0.0480080     2.5950730     0.6372840
  H        1.9308140     1.2745600    -1.3520490
  H        2.2359360     2.5841340    -0.2253410
  H        1.5370720     0.7103830     1.6057590
  H        3.1934550     0.7649280     0.9813470
  H        0.8461440    -2.0798130    -0.7458600
  H       -2.3558010     2.1909910     0.2008090
  H       -1.2325710    -2.5958500    -0.1409630
  H       -4.1571650     0.5114050     0.3790120
  H       -3.5892060    -1.9233590     0.1747080
units angstrom
no_reorient  #important for SAPT in psi4, default
symmetry c1  #important for SAPT in psi4, default
}

set PROPERTIES_ORIGIN ["COM"]
properties('MP2/aug-cc-pvtz', properties = ['dipole'])
--------------------------------------------------------------------------

    Molecular point group: c1
  Charge       = 0
  Multiplicity = 1
  Basis Set: AUG-CC-PVTZ
    Blend: AUG-CC-PVTZ
  Basis Set: (AUG-CC-PVTZ AUX)
    Blend: AUG-CC-PVTZ-JKFIT

    Orbital Energies [Eh]
    ---------------------

    Doubly Occupied:

       1A    -20.527164     2A    -15.593903     3A    -11.358717
       4A    -11.296608     5A    -11.255031     6A    -11.245703
       7A    -11.244964     8A    -11.244776     9A    -11.244143
      10A    -11.243219    11A    -11.242733    12A    -11.239159
      13A     -1.380289    14A     -1.251986    15A     -1.150749
      16A     -1.102254    17A     -1.038561    18A     -1.014851
      19A     -0.957984    20A     -0.879300    21A     -0.842375
      22A     -0.808046    23A     -0.767063    24A     -0.722698
      25A     -0.682397    26A     -0.670939    27A     -0.646333
      28A     -0.628655    29A     -0.611426    30A     -0.602429
      31A     -0.601110    32A     -0.580292    33A     -0.564881
      34A     -0.542026    35A     -0.517498    36A     -0.510598
      37A     -0.498351    38A     -0.492251    39A     -0.482703
      40A     -0.435250    41A     -0.426581    42A     -0.340018
      43A     -0.314992

  @DF-RHF Final Energy:  -514.59417225767106

   => Energetics <=

    Nuclear Repulsion Energy =            674.7529327515445630
    One-Electron Energy =               -2037.0921953557881352
    Two-Electron Energy =                 847.7450903465726242
    Total Energy =                       -514.5941722576710617
  Basis Set: (AUG-CC-PVTZ AUX)
    Blend: AUG-CC-PVTZ-RI
    Molecular point group: c1

    Geometry (in Angstrom), charge = 0, multiplicity = 1:

       Center              X                  Y                   Z               Mass
    ------------   -----------------  -----------------  -----------------  -----------------
         O            2.991231375084    -1.506853565455     0.077995060451    15.994914619570
         N            0.812880075084    -1.095613965455    -0.419164639549    14.003074004430
         C            0.186705375084     1.992902434545    -0.236956939549    12.000000000000
         C            1.676471375084     1.687344434545    -0.348310939549    12.000000000000
         C           -0.776769624916     0.827649434545    -0.099955939549    12.000000000000
         C            2.138886375084     0.667537434545     0.699696060451    12.000000000000
         C           -0.468920624916    -0.545450565455    -0.176507939549    12.000000000000
         C            2.041726375084    -0.726188565455     0.138656060451    12.000000000000
         C           -2.119683624916     1.174633434545     0.127536060451    12.000000000000
         C           -1.501274624916    -1.497280565455    -0.082702939549    12.000000000000
         C           -3.140640624916     0.234504434545     0.217481060451    12.000000000000
         C           -2.824312624916    -1.120786565455     0.109486060451    12.000000000000
         H           -0.123492624916     2.592957434545    -1.102568939549     1.007825032230
         H            0.038709375084     2.637572434545     0.639830060451     1.007825032230
         H            1.921515375084     1.317059434545    -1.349502939549     1.007825032230
         H            2.226637375084     2.626633434545    -0.222794939549     1.007825032230
         H            1.527773375084     0.752882434545     1.608305060451     1.007825032230
         H            3.184156375084     0.807427434545     0.983893060451     1.007825032230
         H            0.836845375084    -2.037313565455    -0.743313939549     1.007825032230
         H           -2.365099624916     2.233490434545     0.203355060451     1.007825032230
         H           -1.241869624916    -2.553350565455    -0.138416939549     1.007825032230
         H           -4.166463624916     0.553904434545     0.381558060451     1.007825032230
         H           -3.598504624916    -1.880859565455     0.177254060451     1.007825032230

  Basis Set: AUG-CC-PVTZ
    Blend: AUG-CC-PVTZ
  Basis Set: (AUG-CC-PVTZ AUX)
    Blend: AUG-CC-PVTZ-JKFIT
	 Reference Energy          =    -514.5941722576710617 [Eh]
	 Singles Energy            =      -0.0000000000000000 [Eh]
	 Same-Spin Energy          =      -0.5576653232337461 [Eh]
	 Opposite-Spin Energy      =      -1.7427720566223750 [Eh]
	 Correlation Energy        =      -2.3004373798561213 [Eh]
	 Total Energy              =    -516.8946096375271964 [Eh]

	 ================> DF-SCS-MP2 Energies <==================
	-----------------------------------------------------------
	 SCS Same-Spin Scale       =       0.3333333333333333 [-]
	 SCS Opposite-Spin Scale   =       1.2000000000000000 [-]
	 SCS Same-Spin Energy      =      -0.1858884410779154 [Eh]
	 SCS Opposite-Spin Energy  =      -2.0913264679468497 [Eh]
	 SCS Correlation Energy    =      -2.2772149090247651 [Eh]
	 SCS Total Energy          =    -516.8713871666958539 [Eh]
	-----------------------------------------------------------

  Dipole Moment: [D]
     X:    -2.6416      Y:     2.0781      Z:     0.0422     Total:     3.3613

*** Psi4 exiting successfully. Buy a developer a beer!
