                               Psi4 1.4a3.dev225

  ==> Input File <==

--------------------------------------------------------------------------
#psi4
#
memory 32 gb

molecule  {
0 1
  O        3.0005300    -1.5493530     0.0754490
  N        0.8317470    -1.1153310    -0.4215630
  C        0.1960040     1.9504030    -0.2395030
  C        1.6857700     1.6448450    -0.3508570
  C       -0.7674710     0.7851500    -0.1025020
  C        2.1481850     0.6250380     0.6971500
  C       -0.4413801    -0.5953998    -0.1824797
  C        2.0510250    -0.7686880     0.1361100
  C       -2.1103850     1.1321340     0.1249900
  C       -1.4919760    -1.5397800    -0.0852490
  C       -3.1313420     0.1920050     0.2149350
  C       -2.8150140    -1.1632860     0.1069400
  H       -0.1141940     2.5504580    -1.1051150
  H        0.0480080     2.5950730     0.6372840
  H        1.9308140     1.2745600    -1.3520490
  H        2.2359360     2.5841340    -0.2253410
  H        1.5370720     0.7103830     1.6057590
  H        3.1934550     0.7649280     0.9813470
  H        0.8461440    -2.0798130    -0.7458600
  H       -2.3558010     2.1909910     0.2008090
  H       -1.2325710    -2.5958500    -0.1409630
  H       -4.1571650     0.5114050     0.3790120
  H       -3.5892060    -1.9233590     0.1747080
units angstrom
no_reorient  #important for SAPT in psi4, default
symmetry c1  #important for SAPT in psi4, default
}

set PROPERTIES_ORIGIN ["COM"]
properties('MP2/aug-cc-pvtz', properties = ['dipole'])
--------------------------------------------------------------------------

    Molecular point group: c1
  Charge       = 0
  Multiplicity = 1
  Basis Set: AUG-CC-PVTZ
    Blend: AUG-CC-PVTZ
  Basis Set: (AUG-CC-PVTZ AUX)
    Blend: AUG-CC-PVTZ-JKFIT

    Orbital Energies [Eh]
    ---------------------

    Doubly Occupied:

       1A    -20.527315     2A    -15.597845     3A    -11.358542
       4A    -11.298231     5A    -11.255497     6A    -11.245987
       7A    -11.244457     8A    -11.244316     9A    -11.244219
      10A    -11.243522    11A    -11.242423    12A    -11.239013
      13A     -1.382024    14A     -1.258568    15A     -1.149835
      16A     -1.101863    17A     -1.038195    18A     -1.014867
      19A     -0.956410    20A     -0.881942    21A     -0.842417
      22A     -0.809464    23A     -0.765974    24A     -0.724234
      25A     -0.682672    26A     -0.671654    27A     -0.646433
      28A     -0.628137    29A     -0.611780    30A     -0.603146
      31A     -0.600896    32A     -0.579212    33A     -0.565017
      34A     -0.542513    35A     -0.517881    36A     -0.510377
      37A     -0.497964    38A     -0.490812    39A     -0.482044
      40A     -0.437153    41A     -0.427522    42A     -0.339751
      43A     -0.313055

  @DF-RHF Final Energy:  -514.59348771150781

   => Energetics <=

    Nuclear Repulsion Energy =            675.0689047706408701
    One-Electron Energy =               -2037.6944312744465151
    Two-Electron Energy =                 848.0320387922979535
    Total Energy =                       -514.5934877115078052
  Basis Set: (AUG-CC-PVTZ AUX)
    Blend: AUG-CC-PVTZ-RI
    Molecular point group: c1

    Geometry (in Angstrom), charge = 0, multiplicity = 1:

       Center              X                  Y                   Z               Mass
    ------------   -----------------  -----------------  -----------------  -----------------
         O            2.989040665436    -1.508279069801     0.078237419286    15.994914619570
         N            0.820257665436    -1.074257069801    -0.418774580714    14.003074004430
         C            0.184514665436     1.991476930199    -0.236714580714    12.000000000000
         C            1.674280665436     1.685918930199    -0.348068580714    12.000000000000
         C           -0.778960334564     0.826223930199    -0.099713580714    12.000000000000
         C            2.136695665436     0.666111930199     0.699938419286    12.000000000000
         C           -0.452869434564    -0.554325869801    -0.179691280714    12.000000000000
         C            2.039535665436    -0.727614069801     0.138898419286    12.000000000000
         C           -2.121874334564     1.173207930199     0.127778419286    12.000000000000
         C           -1.503465334564    -1.498706069801    -0.082460580714    12.000000000000
         C           -3.142831334564     0.233078930199     0.217723419286    12.000000000000
         C           -2.826503334564    -1.122212069801     0.109728419286    12.000000000000
         H           -0.125683334564     2.591531930199    -1.102326580714     1.007825032230
         H            0.036518665436     2.636146930199     0.640072419286     1.007825032230
         H            1.919324665436     1.315633930199    -1.349260580714     1.007825032230
         H            2.224446665436     2.625207930199    -0.222552580714     1.007825032230
         H            1.525582665436     0.751456930199     1.608547419286     1.007825032230
         H            3.181965665436     0.806001930199     0.984135419286     1.007825032230
         H            0.834654665436    -2.038739069801    -0.743071580714     1.007825032230
         H           -2.367290334564     2.232064930199     0.203597419286     1.007825032230
         H           -1.244060334564    -2.554776069801    -0.138174580714     1.007825032230
         H           -4.168654334564     0.552478930199     0.381800419286     1.007825032230
         H           -3.600695334564    -1.882285069801     0.177496419286     1.007825032230

  Basis Set: AUG-CC-PVTZ
    Blend: AUG-CC-PVTZ
  Basis Set: (AUG-CC-PVTZ AUX)
    Blend: AUG-CC-PVTZ-JKFIT
	 Reference Energy          =    -514.5934877115078052 [Eh]
	 Singles Energy            =      -0.0000000000000000 [Eh]
	 Same-Spin Energy          =      -0.5580964133698847 [Eh]
	 Opposite-Spin Energy      =      -1.7433180405267317 [Eh]
	 Correlation Energy        =      -2.3014144538966166 [Eh]
	 Total Energy              =    -516.8949021654044600 [Eh]

	 ================> DF-SCS-MP2 Energies <==================
	-----------------------------------------------------------
	 SCS Same-Spin Scale       =       0.3333333333333333 [-]
	 SCS Opposite-Spin Scale   =       1.2000000000000000 [-]
	 SCS Same-Spin Energy      =      -0.1860321377899616 [Eh]
	 SCS Opposite-Spin Energy  =      -2.0919816486320779 [Eh]
	 SCS Correlation Energy    =      -2.2780137864220396 [Eh]
	 SCS Total Energy          =    -516.8715014979298985 [Eh]
	-----------------------------------------------------------

  Dipole Moment: [D]
     X:    -2.6229      Y:     2.0314      Z:     0.0251     Total:     3.3176

*** Psi4 exiting successfully. Buy a developer a beer!
