                               Psi4 1.3.2 release

  ==> Input File <==

--------------------------------------------------------------------------
#psi4
#
memory 32 gb

molecule  {
0 1
  O        3.0005300    -1.5493530     0.0754490
  N        0.8317470    -1.1153310    -0.4215630
  C        0.1960040     1.9504030    -0.2395030
  C        1.5422805     1.5730959    -0.3450682
  C       -0.7674710     0.7851500    -0.1025020
  C        2.1481850     0.6250380     0.6971500
  C       -0.4596220    -0.5879500    -0.1790540
  C        2.0510250    -0.7686880     0.1361100
  C       -2.1103850     1.1321340     0.1249900
  C       -1.4919760    -1.5397800    -0.0852490
  C       -3.1313420     0.1920050     0.2149350
  C       -2.8150140    -1.1632860     0.1069400
  H       -0.1141940     2.5504580    -1.1051150
  H        0.0480080     2.5950730     0.6372840
  H        1.9308140     1.2745600    -1.3520490
  H        2.2359360     2.5841340    -0.2253410
  H        1.5370720     0.7103830     1.6057590
  H        3.1934550     0.7649280     0.9813470
  H        0.8461440    -2.0798130    -0.7458600
  H       -2.3558010     2.1909910     0.2008090
  H       -1.2325710    -2.5958500    -0.1409630
  H       -4.1571650     0.5114050     0.3790120
  H       -3.5892060    -1.9233590     0.1747080
units angstrom
no_reorient  #important for SAPT in psi4, default
symmetry c1  #important for SAPT in psi4, default
}

set PROPERTIES_ORIGIN ["COM"]
properties('MP2/aug-cc-pvtz', properties = ['dipole'])
--------------------------------------------------------------------------

    Molecular point group: c1
  Charge       = 0
  Multiplicity = 1
  Basis Set: AUG-CC-PVTZ
    Blend: AUG-CC-PVTZ
  Basis Set: (AUG-CC-PVTZ AUX)
    Blend: AUG-CC-PVTZ-JKFIT

    Orbital Energies [Eh]
    ---------------------

    Doubly Occupied:

       1A    -20.525334     2A    -15.595723     3A    -11.355973
       4A    -11.298283     5A    -11.253976     6A    -11.250393
       7A    -11.247130     8A    -11.245497     9A    -11.245299
      10A    -11.245045    11A    -11.241466    12A    -11.240155
      13A     -1.380047    14A     -1.254079    15A     -1.153696
      16A     -1.117735    17A     -1.039213    18A     -1.017498
      19A     -0.969250    20A     -0.874152    21A     -0.843543
      22A     -0.803511    23A     -0.766440    24A     -0.723181
      25A     -0.687450    26A     -0.672951    27A     -0.643199
      28A     -0.632994    29A     -0.620889    30A     -0.607911
      31A     -0.598850    32A     -0.580362    33A     -0.562945
      34A     -0.537653    35A     -0.533735    36A     -0.510193
      37A     -0.507039    38A     -0.488310    39A     -0.457061
      40A     -0.434806    41A     -0.419697    42A     -0.341177
      43A     -0.316242

  @DF-RHF Final Energy:  -514.56624705374236

   => Energetics <=

    Nuclear Repulsion Energy =            677.7857791956683968
    One-Electron Energy =               -2043.0238803340873801
    Two-Electron Energy =                 850.6718540846767382
    Total Energy =                       -514.5662470537423587
  Basis Set: (AUG-CC-PVTZ AUX)
    Blend: AUG-CC-PVTZ-RI
    Molecular point group: c1

    Geometry (in Angstrom), charge = 0, multiplicity = 1:

       Center              X                  Y                   Z               Mass
    ------------   -----------------  -----------------  -----------------  -----------------
         O            3.001088888905    -1.503489076421     0.077550982668    15.994914619570
         N            0.832305888905    -1.069467076421    -0.419461017332    14.003074004430
         C            0.196562888905     1.996266923579    -0.237401017332    12.000000000000
         C            1.542839388905     1.618959823579    -0.342966217332    12.000000000000
         C           -0.766912111095     0.831013923579    -0.100400017332    12.000000000000
         C            2.148743888905     0.670901923579     0.699251982668    12.000000000000
         C           -0.459063111095    -0.542086076421    -0.176952017332    12.000000000000
         C            2.051583888905    -0.722824076421     0.138211982668    12.000000000000
         C           -2.109826111095     1.177997923579     0.127091982668    12.000000000000
         C           -1.491417111095    -1.493916076421    -0.083147017332    12.000000000000
         C           -3.130783111095     0.237868923579     0.217036982668    12.000000000000
         C           -2.814455111095    -1.117422076421     0.109041982668    12.000000000000
         H           -0.113635111095     2.596321923579    -1.103013017332     1.007825032230
         H            0.048566888905     2.640936923579     0.639385982668     1.007825032230
         H            1.931372888905     1.320423923579    -1.349947017332     1.007825032230
         H            2.236494888905     2.629997923579    -0.223239017332     1.007825032230
         H            1.537630888905     0.756246923579     1.607860982668     1.007825032230
         H            3.194013888905     0.810791923579     0.983448982668     1.007825032230
         H            0.846702888905    -2.033949076421    -0.743758017332     1.007825032230
         H           -2.355242111095     2.236854923579     0.202910982668     1.007825032230
         H           -1.232012111095    -2.549986076421    -0.138861017332     1.007825032230
         H           -4.156606111095     0.557268923579     0.381113982668     1.007825032230
         H           -3.588647111095    -1.877495076421     0.176809982668     1.007825032230

  Basis Set: AUG-CC-PVTZ
    Blend: AUG-CC-PVTZ
  Basis Set: (AUG-CC-PVTZ AUX)
    Blend: AUG-CC-PVTZ-JKFIT
	 Reference Energy          =    -514.5662470537423587 [Eh]
	 Singles Energy            =      -0.0000000000000000 [Eh]
	 Same-Spin Energy          =      -0.5597390377484104 [Eh]
	 Opposite-Spin Energy      =      -1.7455561705558122 [Eh]
	 Correlation Energy        =      -2.3052952083042229 [Eh]
	 Total Energy              =    -516.8715422620465461 [Eh]

	 ================> DF-SCS-MP2 Energies <==================
	-----------------------------------------------------------
	 SCS Same-Spin Scale       =       0.3333333333333333 [-]
	 SCS Opposite-Spin Scale   =       1.2000000000000000 [-]
	 SCS Same-Spin Energy      =      -0.1865796792494701 [Eh]
	 SCS Opposite-Spin Energy  =      -2.0946674046669744 [Eh]
	 SCS Correlation Energy    =      -2.2812470839164445 [Eh]
	 SCS Total Energy          =    -516.8474941376588276 [Eh]
	-----------------------------------------------------------

  Dipole Moment: [D]
     X:    -2.8226      Y:     2.0118      Z:     0.0508     Total:     3.4666

*** Psi4 exiting successfully. Buy a developer a beer!
