                               Psi4 1.3.2 release

  ==> Input File <==

--------------------------------------------------------------------------
#psi4
#
memory 32 gb

molecule  {
0 1
  O        3.0005300    -1.5493530     0.0754490
  N        0.8317470    -1.1153310    -0.4215630
  C        0.1960040     1.9504030    -0.2395030
  C        1.7348051     1.6663138    -0.3502345
  C       -0.7674710     0.7851500    -0.1025020
  C        2.1481850     0.6250380     0.6971500
  C       -0.4596220    -0.5879500    -0.1790540
  C        2.0510250    -0.7686880     0.1361100
  C       -2.1103850     1.1321340     0.1249900
  C       -1.4919760    -1.5397800    -0.0852490
  C       -3.1313420     0.1920050     0.2149350
  C       -2.8150140    -1.1632860     0.1069400
  H       -0.1141940     2.5504580    -1.1051150
  H        0.0480080     2.5950730     0.6372840
  H        1.9308140     1.2745600    -1.3520490
  H        2.2359360     2.5841340    -0.2253410
  H        1.5370720     0.7103830     1.6057590
  H        3.1934550     0.7649280     0.9813470
  H        0.8461440    -2.0798130    -0.7458600
  H       -2.3558010     2.1909910     0.2008090
  H       -1.2325710    -2.5958500    -0.1409630
  H       -4.1571650     0.5114050     0.3790120
  H       -3.5892060    -1.9233590     0.1747080
units angstrom
no_reorient  #important for SAPT in psi4, default
symmetry c1  #important for SAPT in psi4, default
}

set PROPERTIES_ORIGIN ["COM"]
properties('MP2/aug-cc-pvtz', properties = ['dipole'])
--------------------------------------------------------------------------

    Molecular point group: c1
  Charge       = 0
  Multiplicity = 1
  Basis Set: AUG-CC-PVTZ
    Blend: AUG-CC-PVTZ
  Basis Set: (AUG-CC-PVTZ AUX)
    Blend: AUG-CC-PVTZ-JKFIT

    Orbital Energies [Eh]
    ---------------------

    Doubly Occupied:

       1A    -20.525919     2A    -15.596405     3A    -11.357513
       4A    -11.297115     5A    -11.255677     6A    -11.246348
       7A    -11.245963     8A    -11.245008     9A    -11.244357
      10A    -11.242607    11A    -11.241026    12A    -11.239829
      13A     -1.380259    14A     -1.252905    15A     -1.151201
      16A     -1.097763    17A     -1.039111    18A     -1.015841
      19A     -0.953624    20A     -0.883185    21A     -0.842751
      22A     -0.810434    23A     -0.765377    24A     -0.721451
      25A     -0.680250    26A     -0.670494    27A     -0.648788
      28A     -0.628595    29A     -0.608606    30A     -0.604142
      31A     -0.600242    32A     -0.578392    33A     -0.565370
      34A     -0.545906    35A     -0.517690    36A     -0.511848
      37A     -0.496791    38A     -0.489669    39A     -0.480497
      40A     -0.435468    41A     -0.426324    42A     -0.340426
      43A     -0.315991

  @DF-RHF Final Energy:  -514.59193543838001

   => Energetics <=

    Nuclear Repulsion Energy =            674.2093441387547728
    One-Electron Energy =               -2036.0082402212042325
    Two-Electron Energy =                 847.2069606440695679
    Total Energy =                       -514.5919354383800055
  Basis Set: (AUG-CC-PVTZ AUX)
    Blend: AUG-CC-PVTZ-RI
    Molecular point group: c1

    Geometry (in Angstrom), charge = 0, multiplicity = 1:

       Center              X                  Y                   Z               Mass
    ------------   -----------------  -----------------  -----------------  -----------------
         O            2.986746717849    -1.510433368565     0.077935847555    15.994914619570
         N            0.817963717849    -1.076411368565    -0.419076152445    14.003074004430
         C            0.182220717849     1.989322631435    -0.237016152445    12.000000000000
         C            1.721021817849     1.705233431435    -0.347747652445    12.000000000000
         C           -0.781254282151     0.824069631435    -0.100015152445    12.000000000000
         C            2.134401717849     0.663957631435     0.699636847555    12.000000000000
         C           -0.473405282151    -0.549030368565    -0.176567152445    12.000000000000
         C            2.037241717849    -0.729768368565     0.138596847555    12.000000000000
         C           -2.124168282151     1.171053631435     0.127476847555    12.000000000000
         C           -1.505759282151    -1.500860368565    -0.082762152445    12.000000000000
         C           -3.145125282151     0.230924631435     0.217421847555    12.000000000000
         C           -2.828797282151    -1.124366368565     0.109426847555    12.000000000000
         H           -0.127977282151     2.589377631435    -1.102628152445     1.007825032230
         H            0.034224717849     2.633992631435     0.639770847555     1.007825032230
         H            1.917030717849     1.313479631435    -1.349562152445     1.007825032230
         H            2.222152717849     2.623053631435    -0.222854152445     1.007825032230
         H            1.523288717849     0.749302631435     1.608245847555     1.007825032230
         H            3.179671717849     0.803847631435     0.983833847555     1.007825032230
         H            0.832360717849    -2.040893368565    -0.743373152445     1.007825032230
         H           -2.369584282151     2.229910631435     0.203295847555     1.007825032230
         H           -1.246354282151    -2.556930368565    -0.138476152445     1.007825032230
         H           -4.170948282151     0.550324631435     0.381498847555     1.007825032230
         H           -3.602989282151    -1.884439368565     0.177194847555     1.007825032230

  Basis Set: AUG-CC-PVTZ
    Blend: AUG-CC-PVTZ
  Basis Set: (AUG-CC-PVTZ AUX)
    Blend: AUG-CC-PVTZ-JKFIT
	 Reference Energy          =    -514.5919354383800055 [Eh]
	 Singles Energy            =      -0.0000000000000000 [Eh]
	 Same-Spin Energy          =      -0.5576570302669439 [Eh]
	 Opposite-Spin Energy      =      -1.7429955688834331 [Eh]
	 Correlation Energy        =      -2.3006525991503768 [Eh]
	 Total Energy              =    -516.8925880375303450 [Eh]

	 ================> DF-SCS-MP2 Energies <==================
	-----------------------------------------------------------
	 SCS Same-Spin Scale       =       0.3333333333333333 [-]
	 SCS Opposite-Spin Scale   =       1.2000000000000000 [-]
	 SCS Same-Spin Energy      =      -0.1858856767556480 [Eh]
	 SCS Opposite-Spin Energy  =      -2.0915946826601197 [Eh]
	 SCS Correlation Energy    =      -2.2774803594157675 [Eh]
	 SCS Total Energy          =    -516.8694157977957957 [Eh]
	-----------------------------------------------------------

  Dipole Moment: [D]
     X:    -2.7260      Y:     2.0626      Z:     0.0330     Total:     3.4186

*** Psi4 exiting successfully. Buy a developer a beer!
