                               Psi4 1.4a3.dev225

  ==> Input File <==

--------------------------------------------------------------------------
#psi4
#
memory 32 gb

molecule  {
0 1
  O        3.0005300    -1.5493530     0.0754490
  N        0.8317470    -1.1153310    -0.4215630
  C        0.1960040     1.9504030    -0.2395030
  C        1.6857700     1.6448450    -0.3508570
  C       -0.7674710     0.7851500    -0.1025020
  C        2.1481850     0.6250380     0.6971500
  C       -0.4596220    -0.5879500    -0.1790540
  C        2.0510250    -0.7686880     0.1361100
  C       -2.1103850     1.1321340     0.1249900
  C       -1.4552978    -1.5059628    -0.0885818
  C       -3.1313420     0.1920050     0.2149350
  C       -2.8150140    -1.1632860     0.1069400
  H       -0.1141940     2.5504580    -1.1051150
  H        0.0480080     2.5950730     0.6372840
  H        1.9308140     1.2745600    -1.3520490
  H        2.2359360     2.5841340    -0.2253410
  H        1.5370720     0.7103830     1.6057590
  H        3.1934550     0.7649280     0.9813470
  H        0.8461440    -2.0798130    -0.7458600
  H       -2.3558010     2.1909910     0.2008090
  H       -1.2325710    -2.5958500    -0.1409630
  H       -4.1571650     0.5114050     0.3790120
  H       -3.5892060    -1.9233590     0.1747080
units angstrom
no_reorient  #important for SAPT in psi4, default
symmetry c1  #important for SAPT in psi4, default
}

set PROPERTIES_ORIGIN ["COM"]
properties('MP2/aug-cc-pvtz', properties = ['dipole'])
--------------------------------------------------------------------------

    Molecular point group: c1
  Charge       = 0
  Multiplicity = 1
  Basis Set: AUG-CC-PVTZ
    Blend: AUG-CC-PVTZ
  Basis Set: (AUG-CC-PVTZ AUX)
    Blend: AUG-CC-PVTZ-JKFIT

    Orbital Energies [Eh]
    ---------------------

    Doubly Occupied:

       1A    -20.524929     2A    -15.594647     3A    -11.356289
       4A    -11.291869     5A    -11.256374     6A    -11.248936
       7A    -11.245099     8A    -11.244463     9A    -11.243740
      10A    -11.242776    11A    -11.242109    12A    -11.240409
      13A     -1.379449    14A     -1.254461    15A     -1.152444
      16A     -1.102044    17A     -1.037101    18A     -1.020396
      19A     -0.957470    20A     -0.880053    21A     -0.840839
      22A     -0.809327    23A     -0.767431    24A     -0.722243
      25A     -0.681558    26A     -0.667129    27A     -0.648210
      28A     -0.629400    29A     -0.611566    30A     -0.602583
      31A     -0.601587    32A     -0.578395    33A     -0.562687
      34A     -0.543609    35A     -0.513338    36A     -0.511001
      37A     -0.498047    38A     -0.493103    39A     -0.484099
      40A     -0.434726    41A     -0.425275    42A     -0.338145
      43A     -0.319850

  @DF-RHF Final Energy:  -514.59120818293445

   => Energetics <=

    Nuclear Repulsion Energy =            675.8940793767433206
    One-Electron Energy =               -2039.3721634099308631
    Two-Electron Energy =                 848.8868758502530909
    Total Energy =                       -514.5912081829344515
  Basis Set: (AUG-CC-PVTZ AUX)
    Blend: AUG-CC-PVTZ-RI
    Molecular point group: c1

    Geometry (in Angstrom), charge = 0, multiplicity = 1:

       Center              X                  Y                   Z               Mass
    ------------   -----------------  -----------------  -----------------  -----------------
         O            2.987667248386    -1.511353265893     0.078230498676    15.994914619570
         N            0.818884248386    -1.077331265893    -0.418781501324    14.003074004430
         C            0.183141248386     1.988402734107    -0.236721501324    12.000000000000
         C            1.672907248386     1.682844734107    -0.348075501324    12.000000000000
         C           -0.780333751614     0.823149734107    -0.099720501324    12.000000000000
         C            2.135322248386     0.663037734107     0.699931498676    12.000000000000
         C           -0.472484751614    -0.549950265893    -0.176272501324    12.000000000000
         C            2.038162248386    -0.730688265893     0.138891498676    12.000000000000
         C           -2.123247751614     1.170133734107     0.127771498676    12.000000000000
         C           -1.468160551614    -1.467963065893    -0.085800301324    12.000000000000
         C           -3.144204751614     0.230004734107     0.217716498676    12.000000000000
         C           -2.827876751614    -1.125286265893     0.109721498676    12.000000000000
         H           -0.127056751614     2.588457734107    -1.102333501324     1.007825032230
         H            0.035145248386     2.633072734107     0.640065498676     1.007825032230
         H            1.917951248386     1.312559734107    -1.349267501324     1.007825032230
         H            2.223073248386     2.622133734107    -0.222559501324     1.007825032230
         H            1.524209248386     0.748382734107     1.608540498676     1.007825032230
         H            3.180592248386     0.802927734107     0.984128498676     1.007825032230
         H            0.833281248386    -2.041813265893    -0.743078501324     1.007825032230
         H           -2.368663751614     2.228990734107     0.203590498676     1.007825032230
         H           -1.245433751614    -2.557850265893    -0.138181501324     1.007825032230
         H           -4.170027751614     0.549404734107     0.381793498676     1.007825032230
         H           -3.602068751614    -1.885359265893     0.177489498676     1.007825032230

  Basis Set: AUG-CC-PVTZ
    Blend: AUG-CC-PVTZ
  Basis Set: (AUG-CC-PVTZ AUX)
    Blend: AUG-CC-PVTZ-JKFIT
	 Reference Energy          =    -514.5912081829344515 [Eh]
	 Singles Energy            =      -0.0000000000000000 [Eh]
	 Same-Spin Energy          =      -0.5579988985213533 [Eh]
	 Opposite-Spin Energy      =      -1.7432410919559953 [Eh]
	 Correlation Energy        =      -2.3012399904773488 [Eh]
	 Total Energy              =    -516.8924481734118217 [Eh]

	 ================> DF-SCS-MP2 Energies <==================
	-----------------------------------------------------------
	 SCS Same-Spin Scale       =       0.3333333333333333 [-]
	 SCS Opposite-Spin Scale   =       1.2000000000000000 [-]
	 SCS Same-Spin Energy      =      -0.1859996328404511 [Eh]
	 SCS Opposite-Spin Energy  =      -2.0918893103471943 [Eh]
	 SCS Correlation Energy    =      -2.2778889431876452 [Eh]
	 SCS Total Energy          =    -516.8690971261221421 [Eh]
	-----------------------------------------------------------

  Dipole Moment: [D]
     X:    -2.8040      Y:     2.0851      Z:     0.0410     Total:     3.4945

*** Psi4 exiting successfully. Buy a developer a beer!
