                               Psi4 1.3.2 release

  ==> Input File <==

--------------------------------------------------------------------------
#psi4
#
memory 32 gb

molecule  {
0 1
  O        3.0005300    -1.5493530     0.0754490
  N        0.8317470    -1.1153310    -0.4215630
  C        0.1960040     1.9504030    -0.2395030
  C        1.6857700     1.6448450    -0.3508570
  C       -0.7560699     0.8328669    -0.1026905
  C        2.1481850     0.6250380     0.6971500
  C       -0.4596220    -0.5879500    -0.1790540
  C        2.0510250    -0.7686880     0.1361100
  C       -2.1103850     1.1321340     0.1249900
  C       -1.4919760    -1.5397800    -0.0852490
  C       -3.1313420     0.1920050     0.2149350
  C       -2.8150140    -1.1632860     0.1069400
  H       -0.1141940     2.5504580    -1.1051150
  H        0.0480080     2.5950730     0.6372840
  H        1.9308140     1.2745600    -1.3520490
  H        2.2359360     2.5841340    -0.2253410
  H        1.5370720     0.7103830     1.6057590
  H        3.1934550     0.7649280     0.9813470
  H        0.8461440    -2.0798130    -0.7458600
  H       -2.3558010     2.1909910     0.2008090
  H       -1.2325710    -2.5958500    -0.1409630
  H       -4.1571650     0.5114050     0.3790120
  H       -3.5892060    -1.9233590     0.1747080
units angstrom
no_reorient  #important for SAPT in psi4, default
symmetry c1  #important for SAPT in psi4, default
}

set PROPERTIES_ORIGIN ["COM"]
properties('MP2/aug-cc-pvtz', properties = ['dipole'])
--------------------------------------------------------------------------

    Molecular point group: c1
  Charge       = 0
  Multiplicity = 1
  Basis Set: AUG-CC-PVTZ
    Blend: AUG-CC-PVTZ
  Basis Set: (AUG-CC-PVTZ AUX)
    Blend: AUG-CC-PVTZ-JKFIT

    Orbital Energies [Eh]
    ---------------------

    Doubly Occupied:

       1A    -20.525911     2A    -15.596276     3A    -11.357195
       4A    -11.301805     5A    -11.258548     6A    -11.246437
       7A    -11.244651     8A    -11.244010     9A    -11.243948
      10A    -11.243349    11A    -11.243057    12A    -11.239526
      13A     -1.380290    14A     -1.252036    15A     -1.149897
      16A     -1.105495    17A     -1.040637    18A     -1.014782
      19A     -0.956119    20A     -0.884135    21A     -0.839071
      22A     -0.808150    23A     -0.766394    24A     -0.720300
      25A     -0.682498    26A     -0.672361    27A     -0.648085
      28A     -0.627035    29A     -0.611800    30A     -0.603592
      31A     -0.600753    32A     -0.580935    33A     -0.564717
      34A     -0.542714    35A     -0.516768    36A     -0.511590
      37A     -0.497671    38A     -0.489311    39A     -0.488615
      40A     -0.435164    41A     -0.426146    42A     -0.340373
      43A     -0.311191

  @DF-RHF Final Energy:  -514.59001648482104

   => Energetics <=

    Nuclear Repulsion Energy =            674.7100748351595030
    One-Electron Energy =               -2036.9735009120211089
    Two-Electron Energy =                 847.6734095920405707
    Total Energy =                       -514.5900164848210352
  Basis Set: (AUG-CC-PVTZ AUX)
    Blend: AUG-CC-PVTZ-RI
    Molecular point group: c1

    Geometry (in Angstrom), charge = 0, multiplicity = 1:

       Center              X                  Y                   Z               Mass
    ------------   -----------------  -----------------  -----------------  -----------------
         O            2.989550272644    -1.512388727725     0.077996263215    15.994914619570
         N            0.820767272644    -1.078366727725    -0.419015736785    14.003074004430
         C            0.185024272644     1.987367272275    -0.236955736785    12.000000000000
         C            1.674790272644     1.681809272275    -0.348309736785    12.000000000000
         C           -0.767049627356     0.869831172275    -0.100143236785    12.000000000000
         C            2.137205272644     0.662002272275     0.699697263215    12.000000000000
         C           -0.470601727356    -0.550985727725    -0.176506736785    12.000000000000
         C            2.040045272644    -0.731723727725     0.138657263215    12.000000000000
         C           -2.121364727356     1.169098272275     0.127537263215    12.000000000000
         C           -1.502955727356    -1.502815727725    -0.082701736785    12.000000000000
         C           -3.142321727356     0.228969272275     0.217482263215    12.000000000000
         C           -2.825993727356    -1.126321727725     0.109487263215    12.000000000000
         H           -0.125173727356     2.587422272275    -1.102567736785     1.007825032230
         H            0.037028272644     2.632037272275     0.639831263215     1.007825032230
         H            1.919834272644     1.311524272275    -1.349501736785     1.007825032230
         H            2.224956272644     2.621098272275    -0.222793736785     1.007825032230
         H            1.526092272644     0.747347272275     1.608306263215     1.007825032230
         H            3.182475272644     0.801892272275     0.983894263215     1.007825032230
         H            0.835164272644    -2.042848727725    -0.743312736785     1.007825032230
         H           -2.366780727356     2.227955272275     0.203356263215     1.007825032230
         H           -1.243550727356    -2.558885727725    -0.138415736785     1.007825032230
         H           -4.168144727356     0.548369272275     0.381559263215     1.007825032230
         H           -3.600185727356    -1.886394727725     0.177255263215     1.007825032230

  Basis Set: AUG-CC-PVTZ
    Blend: AUG-CC-PVTZ
  Basis Set: (AUG-CC-PVTZ AUX)
    Blend: AUG-CC-PVTZ-JKFIT
	 Reference Energy          =    -514.5900164848210352 [Eh]
	 Singles Energy            =      -0.0000000000000000 [Eh]
	 Same-Spin Energy          =      -0.5585026581293517 [Eh]
	 Opposite-Spin Energy      =      -1.7439333831712707 [Eh]
	 Correlation Energy        =      -2.3024360413006226 [Eh]
	 Total Energy              =    -516.8924525261217013 [Eh]

	 ================> DF-SCS-MP2 Energies <==================
	-----------------------------------------------------------
	 SCS Same-Spin Scale       =       0.3333333333333333 [-]
	 SCS Opposite-Spin Scale   =       1.2000000000000000 [-]
	 SCS Same-Spin Energy      =      -0.1861675527097839 [Eh]
	 SCS Opposite-Spin Energy  =      -2.0927200598055249 [Eh]
	 SCS Correlation Energy    =      -2.2788876125153088 [Eh]
	 SCS Total Energy          =    -516.8689040973363262 [Eh]
	-----------------------------------------------------------

  Dipole Moment: [D]
     X:    -2.6688      Y:     2.0874      Z:     0.0228     Total:     3.3882

*** Psi4 exiting successfully. Buy a developer a beer!
