                               Psi4 1.3.2 release

  ==> Input File <==

--------------------------------------------------------------------------
#psi4
#
memory 32 gb

molecule  {
0 1
  O        3.0005300    -1.5493530     0.0754490
  N        0.8317470    -1.1153310    -0.4215630
  C        0.1960040     1.9504030    -0.2395030
  C        1.6857700     1.6448450    -0.3508570
  C       -0.7674710     0.7851500    -0.1025020
  C        2.1481850     0.6250380     0.6971500
  C       -0.4493647    -0.5664844    -0.1723736
  C        2.0510250    -0.7686880     0.1361100
  C       -2.1103850     1.1321340     0.1249900
  C       -1.4919760    -1.5397800    -0.0852490
  C       -3.1313420     0.1920050     0.2149350
  C       -2.8150140    -1.1632860     0.1069400
  H       -0.1141940     2.5504580    -1.1051150
  H        0.0480080     2.5950730     0.6372840
  H        1.9308140     1.2745600    -1.3520490
  H        2.2359360     2.5841340    -0.2253410
  H        1.5370720     0.7103830     1.6057590
  H        3.1934550     0.7649280     0.9813470
  H        0.8461440    -2.0798130    -0.7458600
  H       -2.3558010     2.1909910     0.2008090
  H       -1.2325710    -2.5958500    -0.1409630
  H       -4.1571650     0.5114050     0.3790120
  H       -3.5892060    -1.9233590     0.1747080
units angstrom
no_reorient  #important for SAPT in psi4, default
symmetry c1  #important for SAPT in psi4, default
}

set PROPERTIES_ORIGIN ["COM"]
properties('MP2/aug-cc-pvtz', properties = ['dipole'])
--------------------------------------------------------------------------

    Molecular point group: c1
  Charge       = 0
  Multiplicity = 1
  Basis Set: AUG-CC-PVTZ
    Blend: AUG-CC-PVTZ
  Basis Set: (AUG-CC-PVTZ AUX)
    Blend: AUG-CC-PVTZ-JKFIT

    Orbital Energies [Eh]
    ---------------------

    Doubly Occupied:

       1A    -20.525359     2A    -15.596466     3A    -11.356412
       4A    -11.297335     5A    -11.253174     6A    -11.247238
       7A    -11.245852     8A    -11.245425     9A    -11.244542
      10A    -11.242843    11A    -11.242119    12A    -11.240020
      13A     -1.379912    14A     -1.253056    15A     -1.151839
      16A     -1.101431    17A     -1.040155    18A     -1.013610
      19A     -0.957914    20A     -0.879688    21A     -0.844675
      22A     -0.808912    23A     -0.764178    24A     -0.722045
      25A     -0.681668    26A     -0.672296    27A     -0.645855
      28A     -0.629068    29A     -0.611212    30A     -0.602323
      31A     -0.599875    32A     -0.579843    33A     -0.564580
      34A     -0.541842    35A     -0.518982    36A     -0.510660
      37A     -0.498223    38A     -0.491570    39A     -0.481722
      40A     -0.435204    41A     -0.425554    42A     -0.340462
      43A     -0.316469

  @DF-RHF Final Energy:  -514.59373195959256

   => Energetics <=

    Nuclear Repulsion Energy =            675.2147079159769874
    One-Electron Energy =               -2038.0136681984249662
    Two-Electron Energy =                 848.2052283228554188
    Total Energy =                       -514.5937319595925601
  Basis Set: (AUG-CC-PVTZ AUX)
    Blend: AUG-CC-PVTZ-RI
    Molecular point group: c1

    Geometry (in Angstrom), charge = 0, multiplicity = 1:

       Center              X                  Y                   Z               Mass
    ------------   -----------------  -----------------  -----------------  -----------------
         O            2.989635480328    -1.510433130180     0.077484562690    15.994914619570
         N            0.820852480328    -1.076411130180    -0.419527437310    14.003074004430
         C            0.185109480328     1.989322869820    -0.237467437310    12.000000000000
         C            1.674875480328     1.683764869820    -0.348821437310    12.000000000000
         C           -0.778365519672     0.824069869820    -0.100466437310    12.000000000000
         C            2.137290480328     0.663957869820     0.699185562690    12.000000000000
         C           -0.460259219672    -0.527564530180    -0.170338037310    12.000000000000
         C            2.040130480328    -0.729768130180     0.138145562690    12.000000000000
         C           -2.121279519672     1.171053869820     0.127025562690    12.000000000000
         C           -1.502870519672    -1.500860130180    -0.083213437310    12.000000000000
         C           -3.142236519672     0.230924869820     0.216970562690    12.000000000000
         C           -2.825908519672    -1.124366130180     0.108975562690    12.000000000000
         H           -0.125088519672     2.589377869820    -1.103079437310     1.007825032230
         H            0.037113480328     2.633992869820     0.639319562690     1.007825032230
         H            1.919919480328     1.313479869820    -1.350013437310     1.007825032230
         H            2.225041480328     2.623053869820    -0.223305437310     1.007825032230
         H            1.526177480328     0.749302869820     1.607794562690     1.007825032230
         H            3.182560480328     0.803847869820     0.983382562690     1.007825032230
         H            0.835249480328    -2.040893130180    -0.743824437310     1.007825032230
         H           -2.366695519672     2.229910869820     0.202844562690     1.007825032230
         H           -1.243465519672    -2.556930130180    -0.138927437310     1.007825032230
         H           -4.168059519672     0.550324869820     0.381047562690     1.007825032230
         H           -3.600100519672    -1.884439130180     0.176743562690     1.007825032230

  Basis Set: AUG-CC-PVTZ
    Blend: AUG-CC-PVTZ
  Basis Set: (AUG-CC-PVTZ AUX)
    Blend: AUG-CC-PVTZ-JKFIT
	 Reference Energy          =    -514.5937319595925601 [Eh]
	 Singles Energy            =      -0.0000000000000000 [Eh]
	 Same-Spin Energy          =      -0.5577918780459997 [Eh]
	 Opposite-Spin Energy      =      -1.7430608262003031 [Eh]
	 Correlation Energy        =      -2.3008527042463029 [Eh]
	 Total Energy              =    -516.8945846638388275 [Eh]

	 ================> DF-SCS-MP2 Energies <==================
	-----------------------------------------------------------
	 SCS Same-Spin Scale       =       0.3333333333333333 [-]
	 SCS Opposite-Spin Scale   =       1.2000000000000000 [-]
	 SCS Same-Spin Energy      =      -0.1859306260153332 [Eh]
	 SCS Opposite-Spin Energy  =      -2.0916729914403636 [Eh]
	 SCS Correlation Energy    =      -2.2776036174556968 [Eh]
	 SCS Total Energy          =    -516.8713355770482849 [Eh]
	-----------------------------------------------------------

  Dipole Moment: [D]
     X:    -2.7481      Y:     2.0584      Z:     0.0297     Total:     3.4336

*** Psi4 exiting successfully. Buy a developer a beer!
