                               Psi4 1.3.2 release

  ==> Input File <==

--------------------------------------------------------------------------
#psi4
#
memory 32 gb

molecule  {
0 1
  O        3.0005300    -1.5493530     0.0754490
  N        0.8317470    -1.1153310    -0.4215630
  C        0.1960040     1.9504030    -0.2395030
  C        1.8811683     1.6047679    -0.3654622
  C       -0.7674710     0.7851500    -0.1025020
  C        2.1481850     0.6250380     0.6971500
  C       -0.4596220    -0.5879500    -0.1790540
  C        2.0510250    -0.7686880     0.1361100
  C       -2.1103850     1.1321340     0.1249900
  C       -1.4919760    -1.5397800    -0.0852490
  C       -3.1313420     0.1920050     0.2149350
  C       -2.8150140    -1.1632860     0.1069400
  H       -0.1141940     2.5504580    -1.1051150
  H        0.0480080     2.5950730     0.6372840
  H        1.9308140     1.2745600    -1.3520490
  H        2.2359360     2.5841340    -0.2253410
  H        1.5370720     0.7103830     1.6057590
  H        3.1934550     0.7649280     0.9813470
  H        0.8461440    -2.0798130    -0.7458600
  H       -2.3558010     2.1909910     0.2008090
  H       -1.2325710    -2.5958500    -0.1409630
  H       -4.1571650     0.5114050     0.3790120
  H       -3.5892060    -1.9233590     0.1747080
units angstrom
no_reorient  #important for SAPT in psi4, default
symmetry c1  #important for SAPT in psi4, default
}

set PROPERTIES_ORIGIN ["COM"]
properties('MP2/aug-cc-pvtz', properties = ['dipole'])
--------------------------------------------------------------------------

    Molecular point group: c1
  Charge       = 0
  Multiplicity = 1
  Basis Set: AUG-CC-PVTZ
    Blend: AUG-CC-PVTZ
  Basis Set: (AUG-CC-PVTZ AUX)
    Blend: AUG-CC-PVTZ-JKFIT

    Orbital Energies [Eh]
    ---------------------

    Doubly Occupied:

       1A    -20.526542     2A    -15.597053     3A    -11.358410
       4A    -11.296202     5A    -11.254795     6A    -11.248632
       7A    -11.245597     8A    -11.243988     9A    -11.243838
      10A    -11.242915    11A    -11.241717    12A    -11.239219
      13A     -1.381088    14A     -1.253060    15A     -1.150104
      16A     -1.096750    17A     -1.042998    18A     -1.014704
      19A     -0.942240    20A     -0.886758    21A     -0.842037
      22A     -0.814551    23A     -0.765619    24A     -0.722323
      25A     -0.682080    26A     -0.668624    27A     -0.649727
      28A     -0.628913    29A     -0.609409    30A     -0.601998
      31A     -0.601613    32A     -0.575747    33A     -0.567216
      34A     -0.551821    35A     -0.531496    36A     -0.517914
      37A     -0.499847    38A     -0.495026    39A     -0.442012
      40A     -0.435234    41A     -0.418307    42A     -0.339616
      43A     -0.315542

  @DF-RHF Final Energy:  -514.56485286060172

   => Energetics <=

    Nuclear Repulsion Energy =            673.3248465029862473
    One-Electron Energy =               -2034.2128339743885590
    Two-Electron Energy =                 846.3231346108005937
    Total Energy =                       -514.5648528606017180
  Basis Set: (AUG-CC-PVTZ AUX)
    Blend: AUG-CC-PVTZ-RI
    Molecular point group: c1

    Geometry (in Angstrom), charge = 0, multiplicity = 1:

       Center              X                  Y                   Z               Mass
    ------------   -----------------  -----------------  -----------------  -----------------
         O            2.975843352509    -1.505848490448     0.079070239098    15.994914619570
         N            0.807060352509    -1.071826490448    -0.417941760902    14.003074004430
         C            0.171317352509     1.993907509552    -0.235881760902    12.000000000000
         C            1.856481652509     1.648272409552    -0.361840960902    12.000000000000
         C           -0.792157647491     0.828654509552    -0.098880760902    12.000000000000
         C            2.123498352509     0.668542509552     0.700771239098    12.000000000000
         C           -0.484308647491    -0.544445490448    -0.175432760902    12.000000000000
         C            2.026338352509    -0.725183490448     0.139731239098    12.000000000000
         C           -2.135071647491     1.175638509552     0.128611239098    12.000000000000
         C           -1.516662647491    -1.496275490448    -0.081627760902    12.000000000000
         C           -3.156028647491     0.235509509552     0.218556239098    12.000000000000
         C           -2.839700647491    -1.119781490448     0.110561239098    12.000000000000
         H           -0.138880647491     2.593962509552    -1.101493760902     1.007825032230
         H            0.023321352509     2.638577509552     0.640905239098     1.007825032230
         H            1.906127352509     1.318064509552    -1.348427760902     1.007825032230
         H            2.211249352509     2.627638509552    -0.221719760902     1.007825032230
         H            1.512385352509     0.753887509552     1.609380239098     1.007825032230
         H            3.168768352509     0.808432509552     0.984968239098     1.007825032230
         H            0.821457352509    -2.036308490448    -0.742238760902     1.007825032230
         H           -2.380487647491     2.234495509552     0.204430239098     1.007825032230
         H           -1.257257647491    -2.552345490448    -0.137341760902     1.007825032230
         H           -4.181851647491     0.554909509552     0.382633239098     1.007825032230
         H           -3.613892647491    -1.879854490448     0.178329239098     1.007825032230

  Basis Set: AUG-CC-PVTZ
    Blend: AUG-CC-PVTZ
  Basis Set: (AUG-CC-PVTZ AUX)
    Blend: AUG-CC-PVTZ-JKFIT
	 Reference Energy          =    -514.5648528606017180 [Eh]
	 Singles Energy            =      -0.0000000000000000 [Eh]
	 Same-Spin Energy          =      -0.5585737656688894 [Eh]
	 Opposite-Spin Energy      =      -1.7451687655167745 [Eh]
	 Correlation Energy        =      -2.3037425311856641 [Eh]
	 Total Energy              =    -516.8685953917873803 [Eh]

	 ================> DF-SCS-MP2 Energies <==================
	-----------------------------------------------------------
	 SCS Same-Spin Scale       =       0.3333333333333333 [-]
	 SCS Opposite-Spin Scale   =       1.2000000000000000 [-]
	 SCS Same-Spin Energy      =      -0.1861912552229631 [Eh]
	 SCS Opposite-Spin Energy  =      -2.0942025186201292 [Eh]
	 SCS Correlation Energy    =      -2.2803937738430924 [Eh]
	 SCS Total Energy          =    -516.8452466344448339 [Eh]
	-----------------------------------------------------------

  Dipole Moment: [D]
     X:    -2.6840      Y:     2.0176      Z:     0.0394     Total:     3.3580

*** Psi4 exiting successfully. Buy a developer a beer!
