                               Psi4 1.3.2 release

  ==> Input File <==

--------------------------------------------------------------------------
#psi4
#
memory 32 gb

molecule  {
0 1
  O        3.0005300    -1.5493530     0.0754490
  N        0.8317470    -1.1153310    -0.4215630
  C        0.1960040     1.9504030    -0.2395030
  C        1.6857700     1.6448450    -0.3508570
  C       -0.7674710     0.7851500    -0.1025020
  C        2.1481850     0.6250380     0.6971500
  C       -0.3954952    -0.4965662    -0.0815896
  C        2.0510250    -0.7686880     0.1361100
  C       -2.1103850     1.1321340     0.1249900
  C       -1.4919760    -1.5397800    -0.0852490
  C       -3.1313420     0.1920050     0.2149350
  C       -2.8150140    -1.1632860     0.1069400
  H       -0.1141940     2.5504580    -1.1051150
  H        0.0480080     2.5950730     0.6372840
  H        1.9308140     1.2745600    -1.3520490
  H        2.2359360     2.5841340    -0.2253410
  H        1.5370720     0.7103830     1.6057590
  H        3.1934550     0.7649280     0.9813470
  H        0.8461440    -2.0798130    -0.7458600
  H       -2.3558010     2.1909910     0.2008090
  H       -1.2325710    -2.5958500    -0.1409630
  H       -4.1571650     0.5114050     0.3790120
  H       -3.5892060    -1.9233590     0.1747080
units angstrom
no_reorient  #important for SAPT in psi4, default
symmetry c1  #important for SAPT in psi4, default
}

set PROPERTIES_ORIGIN ["COM"]
properties('MP2/aug-cc-pvtz', properties = ['dipole'])
--------------------------------------------------------------------------

    Molecular point group: c1
  Charge       = 0
  Multiplicity = 1
  Basis Set: AUG-CC-PVTZ
    Blend: AUG-CC-PVTZ
  Basis Set: (AUG-CC-PVTZ AUX)
    Blend: AUG-CC-PVTZ-JKFIT

    Orbital Energies [Eh]
    ---------------------

    Doubly Occupied:

       1A    -20.524525     2A    -15.597681     3A    -11.353693
       4A    -11.297033     5A    -11.254320     6A    -11.247526
       7A    -11.246022     8A    -11.245630     9A    -11.242914
      10A    -11.242646    11A    -11.241913    12A    -11.241553
      13A     -1.379523    14A     -1.253607    15A     -1.153001
      16A     -1.100266    17A     -1.044333    18A     -1.004942
      19A     -0.960198    20A     -0.875962    21A     -0.849839
      22A     -0.807665    23A     -0.760949    24A     -0.722246
      25A     -0.682052    26A     -0.678015    27A     -0.645776
      28A     -0.628254    29A     -0.609908    30A     -0.601644
      31A     -0.591331    32A     -0.583199    33A     -0.564224
      34A     -0.541413    35A     -0.523591    36A     -0.509703
      37A     -0.497667    38A     -0.489234    39A     -0.474797
      40A     -0.435225    41A     -0.423863    42A     -0.342574
      43A     -0.315960

  @DF-RHF Final Energy:  -514.57625226898040

   => Energetics <=

    Nuclear Repulsion Energy =            675.7573981786565582
    One-Electron Energy =               -2039.0944723947234252
    Two-Electron Energy =                 848.7608219470864697
    Total Energy =                       -514.5762522689803973
  Basis Set: (AUG-CC-PVTZ AUX)
    Blend: AUG-CC-PVTZ-RI
    Molecular point group: c1

    Geometry (in Angstrom), charge = 0, multiplicity = 1:

       Center              X                  Y                   Z               Mass
    ------------   -----------------  -----------------  -----------------  -----------------
         O            2.985622457661    -1.515641705003     0.070721584571    15.994914619570
         N            0.816839457661    -1.081619705003    -0.426290415429    14.003074004430
         C            0.181096457661     1.984114294997    -0.244230415429    12.000000000000
         C            1.670862457661     1.678556294997    -0.355584415429    12.000000000000
         C           -0.782378542339     0.818861294997    -0.107229415429    12.000000000000
         C            2.133277457661     0.658749294997     0.692422584571    12.000000000000
         C           -0.410402742339    -0.462854905003    -0.086317015429    12.000000000000
         C            2.036117457661    -0.734976705003     0.131382584571    12.000000000000
         C           -2.125292542339     1.165845294997     0.120262584571    12.000000000000
         C           -1.506883542339    -1.506068705003    -0.089976415429    12.000000000000
         C           -3.146249542339     0.225716294997     0.210207584571    12.000000000000
         C           -2.829921542339    -1.129574705003     0.102212584571    12.000000000000
         H           -0.129101542339     2.584169294997    -1.109842415429     1.007825032230
         H            0.033100457661     2.628784294997     0.632556584571     1.007825032230
         H            1.915906457661     1.308271294997    -1.356776415429     1.007825032230
         H            2.221028457661     2.617845294997    -0.230068415429     1.007825032230
         H            1.522164457661     0.744094294997     1.601031584571     1.007825032230
         H            3.178547457661     0.798639294997     0.976619584571     1.007825032230
         H            0.831236457661    -2.046101705003    -0.750587415429     1.007825032230
         H           -2.370708542339     2.224702294997     0.196081584571     1.007825032230
         H           -1.247478542339    -2.562138705003    -0.145690415429     1.007825032230
         H           -4.172072542339     0.545116294997     0.374284584571     1.007825032230
         H           -3.604113542339    -1.889647705003     0.169980584571     1.007825032230

  Basis Set: AUG-CC-PVTZ
    Blend: AUG-CC-PVTZ
  Basis Set: (AUG-CC-PVTZ AUX)
    Blend: AUG-CC-PVTZ-JKFIT
	 Reference Energy          =    -514.5762522689803973 [Eh]
	 Singles Energy            =      -0.0000000000000000 [Eh]
	 Same-Spin Energy          =      -0.5575875342800523 [Eh]
	 Opposite-Spin Energy      =      -1.7442658676141787 [Eh]
	 Correlation Energy        =      -2.3018534018942312 [Eh]
	 Total Energy              =    -516.8781056708746746 [Eh]

	 ================> DF-SCS-MP2 Energies <==================
	-----------------------------------------------------------
	 SCS Same-Spin Scale       =       0.3333333333333333 [-]
	 SCS Opposite-Spin Scale   =       1.2000000000000000 [-]
	 SCS Same-Spin Energy      =      -0.1858625114266841 [Eh]
	 SCS Opposite-Spin Energy  =      -2.0931190411370144 [Eh]
	 SCS Correlation Energy    =      -2.2789815525636987 [Eh]
	 SCS Total Energy          =    -516.8552338215440614 [Eh]
	-----------------------------------------------------------

  Dipole Moment: [D]
     X:    -2.7703      Y:     2.0382      Z:     0.0246     Total:     3.4394

*** Psi4 exiting successfully. Buy a developer a beer!
