                               Psi4 1.3.2 release

  ==> Input File <==

--------------------------------------------------------------------------
#psi4
#
memory 32 gb

molecule  {
0 1
  O        3.0005300    -1.5493530     0.0754490
  N        0.8317470    -1.1153310    -0.4215630
  C        0.1960040     1.9504030    -0.2395030
  C        1.6857700     1.6448450    -0.3508570
  C       -0.7807741     0.7379438    -0.1037401
  C        2.1481850     0.6250380     0.6971500
  C       -0.4596220    -0.5879500    -0.1790540
  C        2.0510250    -0.7686880     0.1361100
  C       -2.1103850     1.1321340     0.1249900
  C       -1.4919760    -1.5397800    -0.0852490
  C       -3.1313420     0.1920050     0.2149350
  C       -2.8150140    -1.1632860     0.1069400
  H       -0.1141940     2.5504580    -1.1051150
  H        0.0480080     2.5950730     0.6372840
  H        1.9308140     1.2745600    -1.3520490
  H        2.2359360     2.5841340    -0.2253410
  H        1.5370720     0.7103830     1.6057590
  H        3.1934550     0.7649280     0.9813470
  H        0.8461440    -2.0798130    -0.7458600
  H       -2.3558010     2.1909910     0.2008090
  H       -1.2325710    -2.5958500    -0.1409630
  H       -4.1571650     0.5114050     0.3790120
  H       -3.5892060    -1.9233590     0.1747080
units angstrom
no_reorient  #important for SAPT in psi4, default
symmetry c1  #important for SAPT in psi4, default
}

set PROPERTIES_ORIGIN ["COM"]
properties('MP2/aug-cc-pvtz', properties = ['dipole'])
--------------------------------------------------------------------------

    Molecular point group: c1
  Charge       = 0
  Multiplicity = 1
  Basis Set: AUG-CC-PVTZ
    Blend: AUG-CC-PVTZ
  Basis Set: (AUG-CC-PVTZ AUX)
    Blend: AUG-CC-PVTZ-JKFIT

    Orbital Energies [Eh]
    ---------------------

    Doubly Occupied:

       1A    -20.525370     2A    -15.595977     3A    -11.356756
       4A    -11.292352     5A    -11.251940     6A    -11.246469
       7A    -11.246452     8A    -11.245481     9A    -11.244895
      10A    -11.242217    11A    -11.241013    12A    -11.240241
      13A     -1.379855    14A     -1.254115    15A     -1.153835
      16A     -1.098466    17A     -1.038068    18A     -1.017597
      19A     -0.958035    20A     -0.876931    21A     -0.846951
      22A     -0.808964    23A     -0.764846    24A     -0.723302
      25A     -0.680973    26A     -0.670209    27A     -0.644204
      28A     -0.631600    29A     -0.611249    30A     -0.603353
      31A     -0.599799    32A     -0.577192    33A     -0.564211
      34A     -0.541909    35A     -0.519982    36A     -0.509946
      37A     -0.499602    38A     -0.492394    39A     -0.474328
      40A     -0.435372    41A     -0.425679    42A     -0.340985
      43A     -0.320650

  @DF-RHF Final Energy:  -514.59278900425738

   => Energetics <=

    Nuclear Repulsion Energy =            675.4380732278528967
    One-Electron Energy =               -2038.4741910481845935
    Two-Electron Energy =                 848.4433288160741995
    Total Energy =                       -514.5927890042573836
  Basis Set: (AUG-CC-PVTZ AUX)
    Blend: AUG-CC-PVTZ-RI
    Molecular point group: c1

    Geometry (in Angstrom), charge = 0, multiplicity = 1:

       Center              X                  Y                   Z               Mass
    ------------   -----------------  -----------------  -----------------  -----------------
         O            2.991390618564    -1.505317406255     0.078074453444    15.994914619570
         N            0.822607618564    -1.071295406255    -0.418937546556    14.003074004430
         C            0.186864618564     1.994438593745    -0.236877546556    12.000000000000
         C            1.676630618564     1.688880593745    -0.348231546556    12.000000000000
         C           -0.789913481436     0.781979393745    -0.101114646556    12.000000000000
         C            2.139045618564     0.669073593745     0.699775453444    12.000000000000
         C           -0.468761381436    -0.543914406255    -0.176428546556    12.000000000000
         C            2.041885618564    -0.724652406255     0.138735453444    12.000000000000
         C           -2.119524381436     1.176169593745     0.127615453444    12.000000000000
         C           -1.501115381436    -1.495744406255    -0.082623546556    12.000000000000
         C           -3.140481381436     0.236040593745     0.217560453444    12.000000000000
         C           -2.824153381436    -1.119250406255     0.109565453444    12.000000000000
         H           -0.123333381436     2.594493593745    -1.102489546556     1.007825032230
         H            0.038868618564     2.639108593745     0.639909453444     1.007825032230
         H            1.921674618564     1.318595593745    -1.349423546556     1.007825032230
         H            2.226796618564     2.628169593745    -0.222715546556     1.007825032230
         H            1.527932618564     0.754418593745     1.608384453444     1.007825032230
         H            3.184315618564     0.808963593745     0.983972453444     1.007825032230
         H            0.837004618564    -2.035777406255    -0.743234546556     1.007825032230
         H           -2.364940381436     2.235026593745     0.203434453444     1.007825032230
         H           -1.241710381436    -2.551814406255    -0.138337546556     1.007825032230
         H           -4.166304381436     0.555440593745     0.381637453444     1.007825032230
         H           -3.598345381436    -1.879323406255     0.177333453444     1.007825032230

  Basis Set: AUG-CC-PVTZ
    Blend: AUG-CC-PVTZ
  Basis Set: (AUG-CC-PVTZ AUX)
    Blend: AUG-CC-PVTZ-JKFIT
	 Reference Energy          =    -514.5927890042573836 [Eh]
	 Singles Energy            =      -0.0000000000000000 [Eh]
	 Same-Spin Energy          =      -0.5573952020027536 [Eh]
	 Opposite-Spin Energy      =      -1.7425252406615055 [Eh]
	 Correlation Energy        =      -2.2999204426642592 [Eh]
	 Total Energy              =    -516.8927094469216854 [Eh]

	 ================> DF-SCS-MP2 Energies <==================
	-----------------------------------------------------------
	 SCS Same-Spin Scale       =       0.3333333333333333 [-]
	 SCS Opposite-Spin Scale   =       1.2000000000000000 [-]
	 SCS Same-Spin Energy      =      -0.1857984006675845 [Eh]
	 SCS Opposite-Spin Energy  =      -2.0910302887938066 [Eh]
	 SCS Correlation Energy    =      -2.2768286894613912 [Eh]
	 SCS Total Energy          =    -516.8696176937187374 [Eh]
	-----------------------------------------------------------

  Dipole Moment: [D]
     X:    -2.8088      Y:     2.0436      Z:     0.0463     Total:     3.4739

*** Psi4 exiting successfully. Buy a developer a beer!
