                               Psi4 1.3.2 release

  ==> Input File <==

--------------------------------------------------------------------------
#psi4
#
memory 32 gb

molecule  {
0 1
  O        2.9881231    -1.5633245     0.0648541
  N        0.8317470    -1.1153310    -0.4215630
  C        0.1960040     1.9504030    -0.2395030
  C        1.6857700     1.6448450    -0.3508570
  C       -0.7674710     0.7851500    -0.1025020
  C        2.1481850     0.6250380     0.6971500
  C       -0.4596220    -0.5879500    -0.1790540
  C        2.0510250    -0.7686880     0.1361100
  C       -2.1103850     1.1321340     0.1249900
  C       -1.4919760    -1.5397800    -0.0852490
  C       -3.1313420     0.1920050     0.2149350
  C       -2.8150140    -1.1632860     0.1069400
  H       -0.1141940     2.5504580    -1.1051150
  H        0.0480080     2.5950730     0.6372840
  H        1.9308140     1.2745600    -1.3520490
  H        2.2359360     2.5841340    -0.2253410
  H        1.5370720     0.7103830     1.6057590
  H        3.1934550     0.7649280     0.9813470
  H        0.8461440    -2.0798130    -0.7458600
  H       -2.3558010     2.1909910     0.2008090
  H       -1.2325710    -2.5958500    -0.1409630
  H       -4.1571650     0.5114050     0.3790120
  H       -3.5892060    -1.9233590     0.1747080
units angstrom
no_reorient  #important for SAPT in psi4, default
symmetry c1  #important for SAPT in psi4, default
}

set PROPERTIES_ORIGIN ["COM"]
properties('MP2/aug-cc-pvtz', properties = ['dipole'])
--------------------------------------------------------------------------

    Molecular point group: c1
  Charge       = 0
  Multiplicity = 1
  Basis Set: AUG-CC-PVTZ
    Blend: AUG-CC-PVTZ
  Basis Set: (AUG-CC-PVTZ AUX)
    Blend: AUG-CC-PVTZ-JKFIT

    Orbital Energies [Eh]
    ---------------------

    Doubly Occupied:

       1A    -20.525468     2A    -15.595070     3A    -11.357063
       4A    -11.296837     5A    -11.254941     6A    -11.246247
       7A    -11.245108     8A    -11.244863     9A    -11.244112
      10A    -11.243949    11A    -11.242721    12A    -11.239594
      13A     -1.380464    14A     -1.251966    15A     -1.151138
      16A     -1.102189    17A     -1.039100    18A     -1.015749
      19A     -0.957469    20A     -0.880406    21A     -0.842531
      22A     -0.808761    23A     -0.765528    24A     -0.721537
      25A     -0.681696    26A     -0.670751    27A     -0.646105
      28A     -0.628847    29A     -0.611337    30A     -0.603080
      31A     -0.600995    32A     -0.579015    33A     -0.564431
      34A     -0.542210    35A     -0.517483    36A     -0.511032
      37A     -0.498243    38A     -0.492018    39A     -0.483007
      40A     -0.434760    41A     -0.426525    42A     -0.340371
      43A     -0.315526

  @DF-RHF Final Energy:  -514.59428462705182

   => Energetics <=

    Nuclear Repulsion Energy =            675.1183205308321931
    One-Electron Energy =               -2037.8247182523400625
    Two-Electron Energy =                 848.1121130944561628
    Total Energy =                       -514.5942846270518203
  Basis Set: (AUG-CC-PVTZ AUX)
    Blend: AUG-CC-PVTZ-RI
    Molecular point group: c1

    Geometry (in Angstrom), charge = 0, multiplicity = 1:

       Center              X                  Y                   Z               Mass
    ------------   -----------------  -----------------  -----------------  -----------------
         O            2.979224649326    -1.521418238245     0.068439346220    15.994914619570
         N            0.822848549326    -1.073424738245    -0.417977753780    14.003074004430
         C            0.187105549326     1.992309261755    -0.235917753780    12.000000000000
         C            1.676871549326     1.686751261755    -0.347271753780    12.000000000000
         C           -0.776369450674     0.827056261755    -0.098916753780    12.000000000000
         C            2.139286549326     0.666944261755     0.700735246220    12.000000000000
         C           -0.468520450674    -0.546043738245    -0.175468753780    12.000000000000
         C            2.042126549326    -0.726781738245     0.139695246220    12.000000000000
         C           -2.119283450674     1.174040261755     0.128575246220    12.000000000000
         C           -1.500874450674    -1.497873738245    -0.081663753780    12.000000000000
         C           -3.140240450674     0.233911261755     0.218520246220    12.000000000000
         C           -2.823912450674    -1.121379738245     0.110525246220    12.000000000000
         H           -0.123092450674     2.592364261755    -1.101529753780     1.007825032230
         H            0.039109549326     2.636979261755     0.640869246220     1.007825032230
         H            1.921915549326     1.316466261755    -1.348463753780     1.007825032230
         H            2.227037549326     2.626040261755    -0.221755753780     1.007825032230
         H            1.528173549326     0.752289261755     1.609344246220     1.007825032230
         H            3.184556549326     0.806834261755     0.984932246220     1.007825032230
         H            0.837245549326    -2.037906738245    -0.742274753780     1.007825032230
         H           -2.364699450674     2.232897261755     0.204394246220     1.007825032230
         H           -1.241469450674    -2.553943738245    -0.137377753780     1.007825032230
         H           -4.166063450674     0.553311261755     0.382597246220     1.007825032230
         H           -3.598104450674    -1.881452738245     0.178293246220     1.007825032230

  Basis Set: AUG-CC-PVTZ
    Blend: AUG-CC-PVTZ
  Basis Set: (AUG-CC-PVTZ AUX)
    Blend: AUG-CC-PVTZ-JKFIT
	 Reference Energy          =    -514.5942846270518203 [Eh]
	 Singles Energy            =      -0.0000000000000000 [Eh]
	 Same-Spin Energy          =      -0.5578837126424867 [Eh]
	 Opposite-Spin Energy      =      -1.7430322909466325 [Eh]
	 Correlation Energy        =      -2.3009160035891192 [Eh]
	 Total Energy              =    -516.8952006306409430 [Eh]

	 ================> DF-SCS-MP2 Energies <==================
	-----------------------------------------------------------
	 SCS Same-Spin Scale       =       0.3333333333333333 [-]
	 SCS Opposite-Spin Scale   =       1.2000000000000000 [-]
	 SCS Same-Spin Energy      =      -0.1859612375474956 [Eh]
	 SCS Opposite-Spin Energy  =      -2.0916387491359587 [Eh]
	 SCS Correlation Energy    =      -2.2775999866834544 [Eh]
	 SCS Total Energy          =    -516.8718846137352330 [Eh]
	-----------------------------------------------------------

  Dipole Moment: [D]
     X:    -2.6986      Y:     2.0993      Z:     0.0579     Total:     3.4195

*** Psi4 exiting successfully. Buy a developer a beer!
