                               Psi4 1.3.2 release

  ==> Input File <==

--------------------------------------------------------------------------
#psi4
#
memory 32 gb

molecule  {
0 1
  O        3.0005300    -1.5493530     0.0754490
  N        0.7921593    -1.2056907    -0.4157292
  C        0.1960040     1.9504030    -0.2395030
  C        1.6857700     1.6448450    -0.3508570
  C       -0.7674710     0.7851500    -0.1025020
  C        2.1481850     0.6250380     0.6971500
  C       -0.4596220    -0.5879500    -0.1790540
  C        2.0510250    -0.7686880     0.1361100
  C       -2.1103850     1.1321340     0.1249900
  C       -1.4919760    -1.5397800    -0.0852490
  C       -3.1313420     0.1920050     0.2149350
  C       -2.8150140    -1.1632860     0.1069400
  H       -0.1141940     2.5504580    -1.1051150
  H        0.0480080     2.5950730     0.6372840
  H        1.9308140     1.2745600    -1.3520490
  H        2.2359360     2.5841340    -0.2253410
  H        1.5370720     0.7103830     1.6057590
  H        3.1934550     0.7649280     0.9813470
  H        0.8461440    -2.0798130    -0.7458600
  H       -2.3558010     2.1909910     0.2008090
  H       -1.2325710    -2.5958500    -0.1409630
  H       -4.1571650     0.5114050     0.3790120
  H       -3.5892060    -1.9233590     0.1747080
units angstrom
no_reorient  #important for SAPT in psi4, default
symmetry c1  #important for SAPT in psi4, default
}

set PROPERTIES_ORIGIN ["COM"]
properties('MP2/aug-cc-pvtz', properties = ['dipole'])
--------------------------------------------------------------------------

    Molecular point group: c1
  Charge       = 0
  Multiplicity = 1
  Basis Set: AUG-CC-PVTZ
    Blend: AUG-CC-PVTZ
  Basis Set: (AUG-CC-PVTZ AUX)
    Blend: AUG-CC-PVTZ-JKFIT

    Orbital Energies [Eh]
    ---------------------

    Doubly Occupied:

       1A    -20.531638     2A    -15.587178     3A    -11.363616
       4A    -11.295071     5A    -11.254708     6A    -11.247916
       7A    -11.245045     8A    -11.244177     9A    -11.244111
      10A    -11.243511    11A    -11.239648    12A    -11.237230
      13A     -1.381111    14A     -1.250007    15A     -1.149062
      16A     -1.103487    17A     -1.037780    18A     -1.011627
      19A     -0.960582    20A     -0.876248    21A     -0.841982
      22A     -0.805639    23A     -0.772567    24A     -0.724456
      25A     -0.684448    26A     -0.671172    27A     -0.646984
      28A     -0.627567    29A     -0.611644    30A     -0.601480
      31A     -0.600600    32A     -0.584285    33A     -0.564354
      34A     -0.541719    35A     -0.516793    36A     -0.510151
      37A     -0.498806    38A     -0.493041    39A     -0.482119
      40A     -0.435155    41A     -0.427608    42A     -0.338540
      43A     -0.312183

  @DF-RHF Final Energy:  -514.58441770226852

   => Energetics <=

    Nuclear Repulsion Energy =            673.8920705195245091
    One-Electron Energy =               -2035.3588891624187909
    Two-Electron Energy =                 846.8824009406258710
    Total Energy =                       -514.5844177022685244
  Basis Set: (AUG-CC-PVTZ AUX)
    Blend: AUG-CC-PVTZ-RI
    Molecular point group: c1

    Geometry (in Angstrom), charge = 0, multiplicity = 1:

       Center              X                  Y                   Z               Mass
    ------------   -----------------  -----------------  -----------------  -----------------
         O            2.993840968295    -1.500979055528     0.077475087308    15.994914619570
         N            0.785470268295    -1.157316755528    -0.413703112692    14.003074004430
         C            0.189314968295     1.998776944472    -0.237476912692    12.000000000000
         C            1.679080968295     1.693218944472    -0.348830912692    12.000000000000
         C           -0.774160031705     0.833523944472    -0.100475912692    12.000000000000
         C            2.141495968295     0.673411944472     0.699176087308    12.000000000000
         C           -0.466311031705    -0.539576055528    -0.177027912692    12.000000000000
         C            2.044335968295    -0.720314055528     0.138136087308    12.000000000000
         C           -2.117074031705     1.180507944472     0.127016087308    12.000000000000
         C           -1.498665031705    -1.491406055528    -0.083222912692    12.000000000000
         C           -3.138031031705     0.240378944472     0.216961087308    12.000000000000
         C           -2.821703031705    -1.114912055528     0.108966087308    12.000000000000
         H           -0.120883031705     2.598831944472    -1.103088912692     1.007825032230
         H            0.041318968295     2.643446944472     0.639310087308     1.007825032230
         H            1.924124968295     1.322933944472    -1.350022912692     1.007825032230
         H            2.229246968295     2.632507944472    -0.223314912692     1.007825032230
         H            1.530382968295     0.758756944472     1.607785087308     1.007825032230
         H            3.186765968295     0.813301944472     0.983373087308     1.007825032230
         H            0.839454968295    -2.031439055528    -0.743833912692     1.007825032230
         H           -2.362490031705     2.239364944472     0.202835087308     1.007825032230
         H           -1.239260031705    -2.547476055528    -0.138936912692     1.007825032230
         H           -4.163854031705     0.559778944472     0.381038087308     1.007825032230
         H           -3.595895031705    -1.874985055528     0.176734087308     1.007825032230

  Basis Set: AUG-CC-PVTZ
    Blend: AUG-CC-PVTZ
  Basis Set: (AUG-CC-PVTZ AUX)
    Blend: AUG-CC-PVTZ-JKFIT
	 Reference Energy          =    -514.5844177022685244 [Eh]
	 Singles Energy            =      -0.0000000000000000 [Eh]
	 Same-Spin Energy          =      -0.5572672521199523 [Eh]
	 Opposite-Spin Energy      =      -1.7425448146297486 [Eh]
	 Correlation Energy        =      -2.2998120667497011 [Eh]
	 Total Energy              =    -516.8842297690182477 [Eh]

	 ================> DF-SCS-MP2 Energies <==================
	-----------------------------------------------------------
	 SCS Same-Spin Scale       =       0.3333333333333333 [-]
	 SCS Opposite-Spin Scale   =       1.2000000000000000 [-]
	 SCS Same-Spin Energy      =      -0.1857557507066508 [Eh]
	 SCS Opposite-Spin Energy  =      -2.0910537775556981 [Eh]
	 SCS Correlation Energy    =      -2.2768095282623491 [Eh]
	 SCS Total Energy          =    -516.8612272305308579 [Eh]
	-----------------------------------------------------------

  Dipole Moment: [D]
     X:    -2.3551      Y:     2.1386      Z:     0.0563     Total:     3.1817

*** Psi4 exiting successfully. Buy a developer a beer!
