                               Psi4 1.3.2 release

  ==> Input File <==

--------------------------------------------------------------------------
#psi4
#
memory 32 gb

molecule  {
0 1
  O        3.0005300    -1.5493530     0.0754490
  N        0.8317470    -1.1153310    -0.4215630
  C        0.1960040     1.9504030    -0.2395030
  C        1.6857700     1.6448450    -0.3508570
  C       -0.6714822     0.8037479    -0.1132735
  C        2.1481850     0.6250380     0.6971500
  C       -0.4596220    -0.5879500    -0.1790540
  C        2.0510250    -0.7686880     0.1361100
  C       -2.1103850     1.1321340     0.1249900
  C       -1.4919760    -1.5397800    -0.0852490
  C       -3.1313420     0.1920050     0.2149350
  C       -2.8150140    -1.1632860     0.1069400
  H       -0.1141940     2.5504580    -1.1051150
  H        0.0480080     2.5950730     0.6372840
  H        1.9308140     1.2745600    -1.3520490
  H        2.2359360     2.5841340    -0.2253410
  H        1.5370720     0.7103830     1.6057590
  H        3.1934550     0.7649280     0.9813470
  H        0.8461440    -2.0798130    -0.7458600
  H       -2.3558010     2.1909910     0.2008090
  H       -1.2325710    -2.5958500    -0.1409630
  H       -4.1571650     0.5114050     0.3790120
  H       -3.5892060    -1.9233590     0.1747080
units angstrom
no_reorient  #important for SAPT in psi4, default
symmetry c1  #important for SAPT in psi4, default
}

set PROPERTIES_ORIGIN ["COM"]
properties('MP2/aug-cc-pvtz', properties = ['dipole'])
--------------------------------------------------------------------------

    Molecular point group: c1
  Charge       = 0
  Multiplicity = 1
  Basis Set: AUG-CC-PVTZ
    Blend: AUG-CC-PVTZ
  Basis Set: (AUG-CC-PVTZ AUX)
    Blend: AUG-CC-PVTZ-JKFIT

    Orbital Energies [Eh]
    ---------------------

    Doubly Occupied:

       1A    -20.524332     2A    -15.592483     3A    -11.355910
       4A    -11.298161     5A    -11.260140     6A    -11.253433
       7A    -11.248270     8A    -11.245628     9A    -11.243323
      10A    -11.242747    11A    -11.241839    12A    -11.240403
      13A     -1.378867    14A     -1.252343    15A     -1.145593
      16A     -1.108613    17A     -1.040874    18A     -1.012321
      19A     -0.956890    20A     -0.884529    21A     -0.842399
      22A     -0.807114    23A     -0.761383    24A     -0.719103
      25A     -0.682199    26A     -0.675252    27A     -0.649531
      28A     -0.627396    29A     -0.614821    30A     -0.602791
      31A     -0.598225    32A     -0.582207    33A     -0.563387
      34A     -0.540509    35A     -0.516112    36A     -0.513632
      37A     -0.498406    38A     -0.494732    39A     -0.479058
      40A     -0.434223    41A     -0.424690    42A     -0.331911
      43A     -0.316602

  @DF-RHF Final Energy:  -514.58088576631565

   => Energetics <=

    Nuclear Repulsion Energy =            675.2216426832092111
    One-Electron Energy =               -2038.0002988418987115
    Two-Electron Energy =                 848.1977703923738545
    Total Energy =                       -514.5808857663156459
  Basis Set: (AUG-CC-PVTZ AUX)
    Blend: AUG-CC-PVTZ-RI
    Molecular point group: c1

    Geometry (in Angstrom), charge = 0, multiplicity = 1:

       Center              X                  Y                   Z               Mass
    ------------   -----------------  -----------------  -----------------  -----------------
         O            2.983248889534    -1.510219500109     0.078784646602    15.994914619570
         N            0.814465889534    -1.076197500109    -0.418227353398    14.003074004430
         C            0.178722889534     1.989536499891    -0.236167353398    12.000000000000
         C            1.668488889534     1.683978499891    -0.347521353398    12.000000000000
         C           -0.688763310466     0.842881399891    -0.109937853398    12.000000000000
         C            2.130903889534     0.664171499891     0.700485646602    12.000000000000
         C           -0.476903110466    -0.548816500109    -0.175718353398    12.000000000000
         C            2.033743889534    -0.729554500109     0.139445646602    12.000000000000
         C           -2.127666110466     1.171267499891     0.128325646602    12.000000000000
         C           -1.509257110466    -1.500646500109    -0.081913353398    12.000000000000
         C           -3.148623110466     0.231138499891     0.218270646602    12.000000000000
         C           -2.832295110466    -1.124152500109     0.110275646602    12.000000000000
         H           -0.131475110466     2.589591499891    -1.101779353398     1.007825032230
         H            0.030726889534     2.634206499891     0.640619646602     1.007825032230
         H            1.913532889534     1.313693499891    -1.348713353398     1.007825032230
         H            2.218654889534     2.623267499891    -0.222005353398     1.007825032230
         H            1.519790889534     0.749516499891     1.609094646602     1.007825032230
         H            3.176173889534     0.804061499891     0.984682646602     1.007825032230
         H            0.828862889534    -2.040679500109    -0.742524353398     1.007825032230
         H           -2.373082110466     2.230124499891     0.204144646602     1.007825032230
         H           -1.249852110466    -2.556716500109    -0.137627353398     1.007825032230
         H           -4.174446110466     0.550538499891     0.382347646602     1.007825032230
         H           -3.606487110466    -1.884225500109     0.178043646602     1.007825032230

  Basis Set: AUG-CC-PVTZ
    Blend: AUG-CC-PVTZ
  Basis Set: (AUG-CC-PVTZ AUX)
    Blend: AUG-CC-PVTZ-JKFIT
	 Reference Energy          =    -514.5808857663156459 [Eh]
	 Singles Energy            =      -0.0000000000000000 [Eh]
	 Same-Spin Energy          =      -0.5588459014661554 [Eh]
	 Opposite-Spin Energy      =      -1.7451700960117693 [Eh]
	 Correlation Energy        =      -2.3040159974779248 [Eh]
	 Total Energy              =    -516.8849017637935503 [Eh]

	 ================> DF-SCS-MP2 Energies <==================
	-----------------------------------------------------------
	 SCS Same-Spin Scale       =       0.3333333333333333 [-]
	 SCS Opposite-Spin Scale   =       1.2000000000000000 [-]
	 SCS Same-Spin Energy      =      -0.1862819671553851 [Eh]
	 SCS Opposite-Spin Energy  =      -2.0942041152141231 [Eh]
	 SCS Correlation Energy    =      -2.2804860823695083 [Eh]
	 SCS Total Energy          =    -516.8613718486851667 [Eh]
	-----------------------------------------------------------

  Dipole Moment: [D]
     X:    -2.7735      Y:     2.1267      Z:     0.0264     Total:     3.4951

*** Psi4 exiting successfully. Buy a developer a beer!
