                               Psi4 1.3.2 release

  ==> Input File <==

--------------------------------------------------------------------------
#psi4
#
memory 32 gb

molecule  {
0 1
  O        3.0005300    -1.5493530     0.0754490
  N        0.8317470    -1.1153310    -0.4215630
  C        0.1960040     1.9504030    -0.2395030
  C        1.6857700     1.6448450    -0.3508570
  C       -0.7739190     0.7614905    -0.1031558
  C        2.1481850     0.6250380     0.6971500
  C       -0.4596220    -0.5879500    -0.1790540
  C        2.0510250    -0.7686880     0.1361100
  C       -2.1103850     1.1321340     0.1249900
  C       -1.4919760    -1.5397800    -0.0852490
  C       -3.1313420     0.1920050     0.2149350
  C       -2.8150140    -1.1632860     0.1069400
  H       -0.1141940     2.5504580    -1.1051150
  H        0.0480080     2.5950730     0.6372840
  H        1.9308140     1.2745600    -1.3520490
  H        2.2359360     2.5841340    -0.2253410
  H        1.5370720     0.7103830     1.6057590
  H        3.1934550     0.7649280     0.9813470
  H        0.8461440    -2.0798130    -0.7458600
  H       -2.3558010     2.1909910     0.2008090
  H       -1.2325710    -2.5958500    -0.1409630
  H       -4.1571650     0.5114050     0.3790120
  H       -3.5892060    -1.9233590     0.1747080
units angstrom
no_reorient  #important for SAPT in psi4, default
symmetry c1  #important for SAPT in psi4, default
}

set PROPERTIES_ORIGIN ["COM"]
properties('MP2/aug-cc-pvtz', properties = ['dipole'])
--------------------------------------------------------------------------

    Molecular point group: c1
  Charge       = 0
  Multiplicity = 1
  Basis Set: AUG-CC-PVTZ
    Blend: AUG-CC-PVTZ
  Basis Set: (AUG-CC-PVTZ AUX)
    Blend: AUG-CC-PVTZ-JKFIT

    Orbital Energies [Eh]
    ---------------------

    Doubly Occupied:

       1A    -20.525499     2A    -15.596048     3A    -11.356862
       4A    -11.294881     5A    -11.253565     6A    -11.246466
       7A    -11.245742     8A    -11.245248     9A    -11.244685
      10A    -11.242539    11A    -11.241581    12A    -11.240045
      13A     -1.379960    14A     -1.253545    15A     -1.152599
      16A     -1.100093    17A     -1.038372    18A     -1.016859
      19A     -0.957628    20A     -0.878681    21A     -0.844870
      22A     -0.808908    23A     -0.765239    24A     -0.722535
      25A     -0.681296    26A     -0.670504    27A     -0.645138
      28A     -0.630245    29A     -0.611262    30A     -0.603220
      31A     -0.600415    32A     -0.578002    33A     -0.564379
      34A     -0.541946    35A     -0.518701    36A     -0.510340
      37A     -0.498955    38A     -0.492282    39A     -0.478845
      40A     -0.435356    41A     -0.425798    42A     -0.340730
      43A     -0.318360

  @DF-RHF Final Energy:  -514.59433634583286

   => Energetics <=

    Nuclear Repulsion Energy =            675.2481509377222437
    One-Electron Energy =               -2038.0885277538955052
    Two-Electron Energy =                 848.2460404703405175
    Total Energy =                       -514.5943363458328577
  Basis Set: (AUG-CC-PVTZ AUX)
    Blend: AUG-CC-PVTZ-RI
    Molecular point group: c1

    Geometry (in Angstrom), charge = 0, multiplicity = 1:

       Center              X                  Y                   Z               Mass
    ------------   -----------------  -----------------  -----------------  -----------------
         O            2.990879946075    -1.507071523907     0.078030925861    15.994914619570
         N            0.822096946075    -1.073049523907    -0.418981074139    14.003074004430
         C            0.186353946075     1.992684476093    -0.236921074139    12.000000000000
         C            1.676119946075     1.687126476093    -0.348275074139    12.000000000000
         C           -0.783569053925     0.803771976093    -0.100573874139    12.000000000000
         C            2.138534946075     0.667319476093     0.699731925861    12.000000000000
         C           -0.469272053925    -0.545668523907    -0.176472074139    12.000000000000
         C            2.041374946075    -0.726406523907     0.138691925861    12.000000000000
         C           -2.120035053925     1.174415476093     0.127571925861    12.000000000000
         C           -1.501626053925    -1.497498523907    -0.082667074139    12.000000000000
         C           -3.140992053925     0.234286476093     0.217516925861    12.000000000000
         C           -2.824664053925    -1.121004523907     0.109521925861    12.000000000000
         H           -0.123844053925     2.592739476093    -1.102533074139     1.007825032230
         H            0.038357946075     2.637354476093     0.639865925861     1.007825032230
         H            1.921163946075     1.316841476093    -1.349467074139     1.007825032230
         H            2.226285946075     2.626415476093    -0.222759074139     1.007825032230
         H            1.527421946075     0.752664476093     1.608340925861     1.007825032230
         H            3.183804946075     0.807209476093     0.983928925861     1.007825032230
         H            0.836493946075    -2.037531523907    -0.743278074139     1.007825032230
         H           -2.365451053925     2.233272476093     0.203390925861     1.007825032230
         H           -1.242221053925    -2.553568523907    -0.138381074139     1.007825032230
         H           -4.166815053925     0.553686476093     0.381593925861     1.007825032230
         H           -3.598856053925    -1.881077523907     0.177289925861     1.007825032230

  Basis Set: AUG-CC-PVTZ
    Blend: AUG-CC-PVTZ
  Basis Set: (AUG-CC-PVTZ AUX)
    Blend: AUG-CC-PVTZ-JKFIT
	 Reference Energy          =    -514.5943363458328577 [Eh]
	 Singles Energy            =      -0.0000000000000000 [Eh]
	 Same-Spin Energy          =      -0.5576160059961316 [Eh]
	 Opposite-Spin Energy      =      -1.7427390720735709 [Eh]
	 Correlation Energy        =      -2.3003550780697024 [Eh]
	 Total Energy              =    -516.8946914239026000 [Eh]

	 ================> DF-SCS-MP2 Energies <==================
	-----------------------------------------------------------
	 SCS Same-Spin Scale       =       0.3333333333333333 [-]
	 SCS Opposite-Spin Scale   =       1.2000000000000000 [-]
	 SCS Same-Spin Energy      =      -0.1858720019987105 [Eh]
	 SCS Opposite-Spin Energy  =      -2.0912868864882852 [Eh]
	 SCS Correlation Energy    =      -2.2771588884869955 [Eh]
	 SCS Total Energy          =    -516.8714952343198092 [Eh]
	-----------------------------------------------------------

  Dipole Moment: [D]
     X:    -2.7755      Y:     2.0520      Z:     0.0405     Total:     3.4520

*** Psi4 exiting successfully. Buy a developer a beer!
