                               Psi4 1.3.2 release

  ==> Input File <==

--------------------------------------------------------------------------
#psi4
#
memory 32 gb

molecule  {
0 1
  O        3.0005300    -1.5493530     0.0754490
  N        0.8317470    -1.1153310    -0.4215630
  C        0.1960040     1.9504030    -0.2395030
  C        1.6857700     1.6448450    -0.3508570
  C       -0.7674710     0.7851500    -0.1025020
  C        2.1481850     0.6250380     0.6971500
  C       -0.4596220    -0.5879500    -0.1790540
  C        2.0510250    -0.7686880     0.1361100
  C       -2.1103850     1.1321340     0.1249900
  C       -1.6386886    -1.6750490    -0.0719179
  C       -3.1313420     0.1920050     0.2149350
  C       -2.8150140    -1.1632860     0.1069400
  H       -0.1141940     2.5504580    -1.1051150
  H        0.0480080     2.5950730     0.6372840
  H        1.9308140     1.2745600    -1.3520490
  H        2.2359360     2.5841340    -0.2253410
  H        1.5370720     0.7103830     1.6057590
  H        3.1934550     0.7649280     0.9813470
  H        0.8461440    -2.0798130    -0.7458600
  H       -2.3558010     2.1909910     0.2008090
  H       -1.2325710    -2.5958500    -0.1409630
  H       -4.1571650     0.5114050     0.3790120
  H       -3.5892060    -1.9233590     0.1747080
units angstrom
no_reorient  #important for SAPT in psi4, default
symmetry c1  #important for SAPT in psi4, default
}

set PROPERTIES_ORIGIN ["COM"]
properties('MP2/aug-cc-pvtz', properties = ['dipole'])
--------------------------------------------------------------------------

    Molecular point group: c1
  Charge       = 0
  Multiplicity = 1
  Basis Set: AUG-CC-PVTZ
    Blend: AUG-CC-PVTZ
  Basis Set: (AUG-CC-PVTZ AUX)
    Blend: AUG-CC-PVTZ-JKFIT

    Orbital Energies [Eh]
    ---------------------

    Doubly Occupied:

       1A    -20.527582     2A    -15.600464     3A    -11.358682
       4A    -11.310009     5A    -11.250524     6A    -11.248018
       7A    -11.247575     8A    -11.244130     9A    -11.242967
      10A    -11.241914    11A    -11.238551    12A    -11.236911
      13A     -1.381741    14A     -1.249286    15A     -1.150052
      16A     -1.102251    17A     -1.048784    18A     -1.006588
      19A     -0.953165    20A     -0.883014    21A     -0.848076
      22A     -0.807157    23A     -0.763245    24A     -0.718586
      25A     -0.691186    26A     -0.681650    27A     -0.642253
      28A     -0.636275    29A     -0.610933    30A     -0.602612
      31A     -0.594307    32A     -0.575081    33A     -0.567688
      34A     -0.538145    35A     -0.525954    36A     -0.508742
      37A     -0.497364    38A     -0.488098    39A     -0.467027
      40A     -0.434773    41A     -0.426274    42A     -0.356674
      43A     -0.301538

  @DF-RHF Final Energy:  -514.55429053672788

   => Energetics <=

    Nuclear Repulsion Energy =            672.0846753287416959
    One-Electron Energy =               -2031.6662354087886797
    Two-Electron Energy =                 845.0272695433191075
    Total Energy =                       -514.5542905367278763
  Basis Set: (AUG-CC-PVTZ AUX)
    Blend: AUG-CC-PVTZ-RI
    Molecular point group: c1

    Geometry (in Angstrom), charge = 0, multiplicity = 1:

       Center              X                  Y                   Z               Mass
    ------------   -----------------  -----------------  -----------------  -----------------
         O            3.001328994593    -1.498757144651     0.076989117033    15.994914619570
         N            0.832545994593    -1.064735144651    -0.420022882967    14.003074004430
         C            0.196802994593     2.000998855349    -0.237962882967    12.000000000000
         C            1.686568994593     1.695440855349    -0.349316882967    12.000000000000
         C           -0.766672005407     0.835745855349    -0.100961882967    12.000000000000
         C            2.148983994593     0.675633855349     0.698690117033    12.000000000000
         C           -0.458823005407    -0.537354144651    -0.177513882967    12.000000000000
         C            2.051823994593    -0.718092144651     0.137650117033    12.000000000000
         C           -2.109586005407     1.182729855349     0.126530117033    12.000000000000
         C           -1.637889605407    -1.624453144651    -0.070377782967    12.000000000000
         C           -3.130543005407     0.242600855349     0.216475117033    12.000000000000
         C           -2.814215005407    -1.112690144651     0.108480117033    12.000000000000
         H           -0.113395005407     2.601053855349    -1.103574882967     1.007825032230
         H            0.048806994593     2.645668855349     0.638824117033     1.007825032230
         H            1.931612994593     1.325155855349    -1.350508882967     1.007825032230
         H            2.236734994593     2.634729855349    -0.223800882967     1.007825032230
         H            1.537870994593     0.760978855349     1.607299117033     1.007825032230
         H            3.194253994593     0.815523855349     0.982887117033     1.007825032230
         H            0.846942994593    -2.029217144651    -0.744319882967     1.007825032230
         H           -2.355002005407     2.241586855349     0.202349117033     1.007825032230
         H           -1.231772005407    -2.545254144651    -0.139422882967     1.007825032230
         H           -4.156366005407     0.562000855349     0.380552117033     1.007825032230
         H           -3.588407005407    -1.872763144651     0.176248117033     1.007825032230

  Basis Set: AUG-CC-PVTZ
    Blend: AUG-CC-PVTZ
  Basis Set: (AUG-CC-PVTZ AUX)
    Blend: AUG-CC-PVTZ-JKFIT
	 Reference Energy          =    -514.5542905367278763 [Eh]
	 Singles Energy            =      -0.0000000000000000 [Eh]
	 Same-Spin Energy          =      -0.5570107611228913 [Eh]
	 Opposite-Spin Energy      =      -1.7447385809993785 [Eh]
	 Correlation Energy        =      -2.3017493421222697 [Eh]
	 Total Energy              =    -516.8560398788501971 [Eh]

	 ================> DF-SCS-MP2 Energies <==================
	-----------------------------------------------------------
	 SCS Same-Spin Scale       =       0.3333333333333333 [-]
	 SCS Opposite-Spin Scale   =       1.2000000000000000 [-]
	 SCS Same-Spin Energy      =      -0.1856702537076304 [Eh]
	 SCS Opposite-Spin Energy  =      -2.0936862971992540 [Eh]
	 SCS Correlation Energy    =      -2.2793565509068845 [Eh]
	 SCS Total Energy          =    -516.8336470876347448 [Eh]
	-----------------------------------------------------------

  Dipole Moment: [D]
     X:    -2.5874      Y:     1.9691      Z:     0.0200     Total:     3.2515

*** Psi4 exiting successfully. Buy a developer a beer!
