                               Psi4 1.3.2 release

  ==> Input File <==

--------------------------------------------------------------------------
#psi4
#
memory 32 gb

molecule  {
0 1
  O        3.0005300    -1.5493530     0.0754490
  N        0.8317470    -1.1153310    -0.4215630
  C        0.1960040     1.9504030    -0.2395030
  C        1.6857700     1.6448450    -0.3508570
  C       -0.7807096     0.7939028    -0.1237202
  C        2.1481850     0.6250380     0.6971500
  C       -0.4596220    -0.5879500    -0.1790540
  C        2.0510250    -0.7686880     0.1361100
  C       -2.1103850     1.1321340     0.1249900
  C       -1.4919760    -1.5397800    -0.0852490
  C       -3.1313420     0.1920050     0.2149350
  C       -2.8150140    -1.1632860     0.1069400
  H       -0.1141940     2.5504580    -1.1051150
  H        0.0480080     2.5950730     0.6372840
  H        1.9308140     1.2745600    -1.3520490
  H        2.2359360     2.5841340    -0.2253410
  H        1.5370720     0.7103830     1.6057590
  H        3.1934550     0.7649280     0.9813470
  H        0.8461440    -2.0798130    -0.7458600
  H       -2.3558010     2.1909910     0.2008090
  H       -1.2325710    -2.5958500    -0.1409630
  H       -4.1571650     0.5114050     0.3790120
  H       -3.5892060    -1.9233590     0.1747080
units angstrom
no_reorient  #important for SAPT in psi4, default
symmetry c1  #important for SAPT in psi4, default
}

set PROPERTIES_ORIGIN ["COM"]
properties('MP2/aug-cc-pvtz', properties = ['dipole'])
--------------------------------------------------------------------------

    Molecular point group: c1
  Charge       = 0
  Multiplicity = 1
  Basis Set: AUG-CC-PVTZ
    Blend: AUG-CC-PVTZ
  Basis Set: (AUG-CC-PVTZ AUX)
    Blend: AUG-CC-PVTZ-JKFIT

    Orbital Energies [Eh]
    ---------------------

    Doubly Occupied:

       1A    -20.525814     2A    -15.596485     3A    -11.357091
       4A    -11.298232     5A    -11.255453     6A    -11.246222
       7A    -11.244795     8A    -11.244271     9A    -11.243693
      10A    -11.243084    11A    -11.242465    12A    -11.239789
      13A     -1.380215    14A     -1.252782    15A     -1.152046
      16A     -1.101797    17A     -1.039163    18A     -1.016281
      19A     -0.956901    20A     -0.880744    21A     -0.841987
      22A     -0.808735    23A     -0.766256    24A     -0.721802
      25A     -0.681792    26A     -0.670785    27A     -0.646321
      28A     -0.628882    29A     -0.610902    30A     -0.603454
      31A     -0.600824    32A     -0.579175    33A     -0.564475
      34A     -0.542567    35A     -0.517658    36A     -0.510818
      37A     -0.498408    38A     -0.490857    39A     -0.483265
      40A     -0.435267    41A     -0.426041    42A     -0.341751
      43A     -0.314979

  @DF-RHF Final Energy:  -514.59390541459391

   => Energetics <=

    Nuclear Repulsion Energy =            674.9268197380702077
    One-Electron Energy =               -2037.4328083628736294
    Two-Electron Energy =                 847.9120832102095164
    Total Energy =                       -514.5939054145939053
  Basis Set: (AUG-CC-PVTZ AUX)
    Blend: AUG-CC-PVTZ-RI
    Molecular point group: c1

    Geometry (in Angstrom), charge = 0, multiplicity = 1:

       Center              X                  Y                   Z               Mass
    ------------   -----------------  -----------------  -----------------  -----------------
         O            2.991385813620    -1.509486086778     0.079562876285    15.994914619570
         N            0.822602813620    -1.075464086778    -0.417449123715    14.003074004430
         C            0.186859813620     1.990269913222    -0.235389123715    12.000000000000
         C            1.676625813620     1.684711913222    -0.346743123715    12.000000000000
         C           -0.789853786380     0.833769713222    -0.119606323715    12.000000000000
         C            2.139040813620     0.664904913222     0.701263876285    12.000000000000
         C           -0.468766186380    -0.548083086778    -0.174940123715    12.000000000000
         C            2.041880813620    -0.728821086778     0.140223876285    12.000000000000
         C           -2.119529186380     1.172000913222     0.129103876285    12.000000000000
         C           -1.501120186380    -1.499913086778    -0.081135123715    12.000000000000
         C           -3.140486186380     0.231871913222     0.219048876285    12.000000000000
         C           -2.824158186380    -1.123419086778     0.111053876285    12.000000000000
         H           -0.123338186380     2.590324913222    -1.101001123715     1.007825032230
         H            0.038863813620     2.634939913222     0.641397876285     1.007825032230
         H            1.921669813620     1.314426913222    -1.347935123715     1.007825032230
         H            2.226791813620     2.624000913222    -0.221227123715     1.007825032230
         H            1.527927813620     0.750249913222     1.609872876285     1.007825032230
         H            3.184310813620     0.804794913222     0.985460876285     1.007825032230
         H            0.836999813620    -2.039946086778    -0.741746123715     1.007825032230
         H           -2.364945186380     2.230857913222     0.204922876285     1.007825032230
         H           -1.241715186380    -2.555983086778    -0.136849123715     1.007825032230
         H           -4.166309186380     0.551271913222     0.383125876285     1.007825032230
         H           -3.598350186380    -1.883492086778     0.178821876285     1.007825032230

  Basis Set: AUG-CC-PVTZ
    Blend: AUG-CC-PVTZ
  Basis Set: (AUG-CC-PVTZ AUX)
    Blend: AUG-CC-PVTZ-JKFIT
	 Reference Energy          =    -514.5939054145939053 [Eh]
	 Singles Energy            =      -0.0000000000000000 [Eh]
	 Same-Spin Energy          =      -0.5578997012516074 [Eh]
	 Opposite-Spin Energy      =      -1.7430175539541506 [Eh]
	 Correlation Energy        =      -2.3009172552057580 [Eh]
	 Total Energy              =    -516.8948226697996233 [Eh]

	 ================> DF-SCS-MP2 Energies <==================
	-----------------------------------------------------------
	 SCS Same-Spin Scale       =       0.3333333333333333 [-]
	 SCS Opposite-Spin Scale   =       1.2000000000000000 [-]
	 SCS Same-Spin Energy      =      -0.1859665670838691 [Eh]
	 SCS Opposite-Spin Energy  =      -2.0916210647449804 [Eh]
	 SCS Correlation Energy    =      -2.2775876318288497 [Eh]
	 SCS Total Energy          =    -516.8714930464227564 [Eh]
	-----------------------------------------------------------

  Dipole Moment: [D]
     X:    -2.7253      Y:     2.0602      Z:     0.0403     Total:     3.4166

*** Psi4 exiting successfully. Buy a developer a beer!
