                               Psi4 1.3.2 release

  ==> Input File <==

--------------------------------------------------------------------------
#psi4
#
memory 32 gb

molecule  {
0 1
  O        3.0005300    -1.5493530     0.0754490
  N        0.8317470    -1.1153310    -0.4215630
  C        0.2074123     2.0173526    -0.3214517
  C        1.6857700     1.6448450    -0.3508570
  C       -0.7674710     0.7851500    -0.1025020
  C        2.1481850     0.6250380     0.6971500
  C       -0.4596220    -0.5879500    -0.1790540
  C        2.0510250    -0.7686880     0.1361100
  C       -2.1103850     1.1321340     0.1249900
  C       -1.4919760    -1.5397800    -0.0852490
  C       -3.1313420     0.1920050     0.2149350
  C       -2.8150140    -1.1632860     0.1069400
  H       -0.1141940     2.5504580    -1.1051150
  H        0.0480080     2.5950730     0.6372840
  H        1.9308140     1.2745600    -1.3520490
  H        2.2359360     2.5841340    -0.2253410
  H        1.5370720     0.7103830     1.6057590
  H        3.1934550     0.7649280     0.9813470
  H        0.8461440    -2.0798130    -0.7458600
  H       -2.3558010     2.1909910     0.2008090
  H       -1.2325710    -2.5958500    -0.1409630
  H       -4.1571650     0.5114050     0.3790120
  H       -3.5892060    -1.9233590     0.1747080
units angstrom
no_reorient  #important for SAPT in psi4, default
symmetry c1  #important for SAPT in psi4, default
}

set PROPERTIES_ORIGIN ["COM"]
properties('MP2/aug-cc-pvtz', properties = ['dipole'])
--------------------------------------------------------------------------

    Molecular point group: c1
  Charge       = 0
  Multiplicity = 1
  Basis Set: AUG-CC-PVTZ
    Blend: AUG-CC-PVTZ
  Basis Set: (AUG-CC-PVTZ AUX)
    Blend: AUG-CC-PVTZ-JKFIT

    Orbital Energies [Eh]
    ---------------------

    Doubly Occupied:

       1A    -20.525969     2A    -15.595888     3A    -11.357358
       4A    -11.297282     5A    -11.256719     6A    -11.246165
       7A    -11.244958     8A    -11.244685     9A    -11.244396
      10A    -11.244091    11A    -11.242146    12A    -11.239213
      13A     -1.380314    14A     -1.252358    15A     -1.149409
      16A     -1.099154    17A     -1.035477    18A     -1.015595
      19A     -0.962068    20A     -0.877530    21A     -0.841176
      22A     -0.811111    23A     -0.766989    24A     -0.721340
      25A     -0.683487    26A     -0.668977    27A     -0.644267
      28A     -0.628073    29A     -0.623598    30A     -0.603454
      31A     -0.599137    32A     -0.573581    33A     -0.563708
      34A     -0.541299    35A     -0.520135    36A     -0.509542
      37A     -0.505279    38A     -0.492353    39A     -0.469129
      40A     -0.434868    41A     -0.426804    42A     -0.341446
      43A     -0.315771

  @DF-RHF Final Energy:  -514.58265340979904

   => Energetics <=

    Nuclear Repulsion Energy =            673.6528335992463781
    One-Electron Energy =               -2034.8783765558130199
    Two-Electron Energy =                 846.6428895467676057
    Total Energy =                       -514.5826534097990361
  Basis Set: (AUG-CC-PVTZ AUX)
    Blend: AUG-CC-PVTZ-RI
    Molecular point group: c1

    Geometry (in Angstrom), charge = 0, multiplicity = 1:

       Center              X                  Y                   Z               Mass
    ------------   -----------------  -----------------  -----------------  -----------------
         O            2.989549736278    -1.513821472804     0.084087010963    15.994914619570
         N            0.820766736278    -1.079799472804    -0.412924989037    14.003074004430
         C            0.196432036278     2.052884127196    -0.312813689037    12.000000000000
         C            1.674789736278     1.680376527196    -0.342218989037    12.000000000000
         C           -0.778451263722     0.820681527196    -0.093863989037    12.000000000000
         C            2.137204736278     0.660569527196     0.705788010963    12.000000000000
         C           -0.470602263722    -0.552418472804    -0.170415989037    12.000000000000
         C            2.040044736278    -0.733156472804     0.144748010963    12.000000000000
         C           -2.121365263722     1.167665527196     0.133628010963    12.000000000000
         C           -1.502956263722    -1.504248472804    -0.076610989037    12.000000000000
         C           -3.142322263722     0.227536527196     0.223573010963    12.000000000000
         C           -2.825994263722    -1.127754472804     0.115578010963    12.000000000000
         H           -0.125174263722     2.585989527196    -1.096476989037     1.007825032230
         H            0.037027736278     2.630604527196     0.645922010963     1.007825032230
         H            1.919833736278     1.310091527196    -1.343410989037     1.007825032230
         H            2.224955736278     2.619665527196    -0.216702989037     1.007825032230
         H            1.526091736278     0.745914527196     1.614397010963     1.007825032230
         H            3.182474736278     0.800459527196     0.989985010963     1.007825032230
         H            0.835163736278    -2.044281472804    -0.737221989037     1.007825032230
         H           -2.366781263722     2.226522527196     0.209447010963     1.007825032230
         H           -1.243551263722    -2.560318472804    -0.132324989037     1.007825032230
         H           -4.168145263722     0.546936527196     0.387650010963     1.007825032230
         H           -3.600186263722    -1.887827472804     0.183346010963     1.007825032230

  Basis Set: AUG-CC-PVTZ
    Blend: AUG-CC-PVTZ
  Basis Set: (AUG-CC-PVTZ AUX)
    Blend: AUG-CC-PVTZ-JKFIT
	 Reference Energy          =    -514.5826534097990361 [Eh]
	 Singles Energy            =      -0.0000000000000000 [Eh]
	 Same-Spin Energy          =      -0.5575730856610280 [Eh]
	 Opposite-Spin Energy      =      -1.7430714499701216 [Eh]
	 Correlation Energy        =      -2.3006445356311498 [Eh]
	 Total Energy              =    -516.8832979454301721 [Eh]

	 ================> DF-SCS-MP2 Energies <==================
	-----------------------------------------------------------
	 SCS Same-Spin Scale       =       0.3333333333333333 [-]
	 SCS Opposite-Spin Scale   =       1.2000000000000000 [-]
	 SCS Same-Spin Energy      =      -0.1858576952203427 [Eh]
	 SCS Opposite-Spin Energy  =      -2.0916857399641460 [Eh]
	 SCS Correlation Energy    =      -2.2775434351844885 [Eh]
	 SCS Total Energy          =    -516.8601968449835340 [Eh]
	-----------------------------------------------------------

  Dipole Moment: [D]
     X:    -2.7375      Y:     2.0512      Z:    -0.0078     Total:     3.4207

*** Psi4 exiting successfully. Buy a developer a beer!
