                               Psi4 1.3.2 release

  ==> Input File <==

--------------------------------------------------------------------------
#psi4
#
memory 32 gb

molecule  {
0 1
  O        3.0005300    -1.5493530     0.0754490
  N        0.8317470    -1.1153310    -0.4215630
  C        0.1960040     1.9504030    -0.2395030
  C        1.6952920     1.6971070    -0.3541539
  C       -0.7674710     0.7851500    -0.1025020
  C        2.1481850     0.6250380     0.6971500
  C       -0.4596220    -0.5879500    -0.1790540
  C        2.0510250    -0.7686880     0.1361100
  C       -2.1103850     1.1321340     0.1249900
  C       -1.4919760    -1.5397800    -0.0852490
  C       -3.1313420     0.1920050     0.2149350
  C       -2.8150140    -1.1632860     0.1069400
  H       -0.1141940     2.5504580    -1.1051150
  H        0.0480080     2.5950730     0.6372840
  H        1.9308140     1.2745600    -1.3520490
  H        2.2359360     2.5841340    -0.2253410
  H        1.5370720     0.7103830     1.6057590
  H        3.1934550     0.7649280     0.9813470
  H        0.8461440    -2.0798130    -0.7458600
  H       -2.3558010     2.1909910     0.2008090
  H       -1.2325710    -2.5958500    -0.1409630
  H       -4.1571650     0.5114050     0.3790120
  H       -3.5892060    -1.9233590     0.1747080
units angstrom
no_reorient  #important for SAPT in psi4, default
symmetry c1  #important for SAPT in psi4, default
}

set PROPERTIES_ORIGIN ["COM"]
properties('MP2/aug-cc-pvtz', properties = ['dipole'])
--------------------------------------------------------------------------

    Molecular point group: c1
  Charge       = 0
  Multiplicity = 1
  Basis Set: AUG-CC-PVTZ
    Blend: AUG-CC-PVTZ
  Basis Set: (AUG-CC-PVTZ AUX)
    Blend: AUG-CC-PVTZ-JKFIT

    Orbital Energies [Eh]
    ---------------------

    Doubly Occupied:

       1A    -20.525622     2A    -15.596197     3A    -11.357226
       4A    -11.297437     5A    -11.256276     6A    -11.246633
       7A    -11.245453     8A    -11.244793     9A    -11.244524
      10A    -11.243358    11A    -11.241687    12A    -11.240062
      13A     -1.379907    14A     -1.252777    15A     -1.151685
      16A     -1.098737    17A     -1.036932    18A     -1.016332
      19A     -0.957409    20A     -0.882612    21A     -0.843011
      22A     -0.809629    23A     -0.765301    24A     -0.721156
      25A     -0.679301    26A     -0.671164    27A     -0.649687
      28A     -0.628464    29A     -0.609975    30A     -0.604229
      31A     -0.600555    32A     -0.579569    33A     -0.564739
      34A     -0.544929    35A     -0.517605    36A     -0.508278
      37A     -0.495956    38A     -0.491349    39A     -0.482887
      40A     -0.435249    41A     -0.426340    42A     -0.340690
      43A     -0.316169

  @DF-RHF Final Energy:  -514.59168810853623

   => Energetics <=

    Nuclear Repulsion Energy =            674.2108364630253163
    One-Electron Energy =               -2036.0012789092804724
    Two-Electron Energy =                 847.1987543377189240
    Total Energy =                       -514.5916881085362320
  Basis Set: (AUG-CC-PVTZ AUX)
    Blend: AUG-CC-PVTZ-RI
    Molecular point group: c1

    Geometry (in Angstrom), charge = 0, multiplicity = 1:

       Center              X                  Y                   Z               Mass
    ------------   -----------------  -----------------  -----------------  -----------------
         O            2.989690256696    -1.512727316153     0.078227824296    15.994914619570
         N            0.820907256696    -1.078705316153    -0.418784175704    14.003074004430
         C            0.185164256696     1.987028683847    -0.236724175704    12.000000000000
         C            1.684452256696     1.733732683847    -0.351375075704    12.000000000000
         C           -0.778310743304     0.821775683847    -0.099723175704    12.000000000000
         C            2.137345256696     0.661663683847     0.699928824296    12.000000000000
         C           -0.470461743304    -0.551324316153    -0.176275175704    12.000000000000
         C            2.040185256696    -0.732062316153     0.138888824296    12.000000000000
         C           -2.121224743304     1.168759683847     0.127768824296    12.000000000000
         C           -1.502815743304    -1.503154316153    -0.082470175704    12.000000000000
         C           -3.142181743304     0.228630683847     0.217713824296    12.000000000000
         C           -2.825853743304    -1.126660316153     0.109718824296    12.000000000000
         H           -0.125033743304     2.587083683847    -1.102336175704     1.007825032230
         H            0.037168256696     2.631698683847     0.640062824296     1.007825032230
         H            1.919974256696     1.311185683847    -1.349270175704     1.007825032230
         H            2.225096256696     2.620759683847    -0.222562175704     1.007825032230
         H            1.526232256696     0.747008683847     1.608537824296     1.007825032230
         H            3.182615256696     0.801553683847     0.984125824296     1.007825032230
         H            0.835304256696    -2.043187316153    -0.743081175704     1.007825032230
         H           -2.366640743304     2.227616683847     0.203587824296     1.007825032230
         H           -1.243410743304    -2.559224316153    -0.138184175704     1.007825032230
         H           -4.168004743304     0.548030683847     0.381790824296     1.007825032230
         H           -3.600045743304    -1.886733316153     0.177486824296     1.007825032230

  Basis Set: AUG-CC-PVTZ
    Blend: AUG-CC-PVTZ
  Basis Set: (AUG-CC-PVTZ AUX)
    Blend: AUG-CC-PVTZ-JKFIT
	 Reference Energy          =    -514.5916881085362320 [Eh]
	 Singles Energy            =      -0.0000000000000000 [Eh]
	 Same-Spin Energy          =      -0.5576888477234200 [Eh]
	 Opposite-Spin Energy      =      -1.7429946936888832 [Eh]
	 Correlation Energy        =      -2.3006835414123032 [Eh]
	 Total Energy              =    -516.8923716499485863 [Eh]

	 ================> DF-SCS-MP2 Energies <==================
	-----------------------------------------------------------
	 SCS Same-Spin Scale       =       0.3333333333333333 [-]
	 SCS Opposite-Spin Scale   =       1.2000000000000000 [-]
	 SCS Same-Spin Energy      =      -0.1858962825744733 [Eh]
	 SCS Opposite-Spin Energy  =      -2.0915936324266595 [Eh]
	 SCS Correlation Energy    =      -2.2774899150011327 [Eh]
	 SCS Total Energy          =    -516.8691780235374154 [Eh]
	-----------------------------------------------------------

  Dipole Moment: [D]
     X:    -2.7492      Y:     2.0799      Z:     0.0316     Total:     3.4475

*** Psi4 exiting successfully. Buy a developer a beer!
