                               Psi4 1.3.2 release

  ==> Input File <==

--------------------------------------------------------------------------
#psi4
#
memory 32 gb

molecule  {
0 1
  O        3.0687716    -1.4606845     0.1392933
  N        0.8317470    -1.1153310    -0.4215630
  C        0.1960040     1.9504030    -0.2395030
  C        1.6857700     1.6448450    -0.3508570
  C       -0.7674710     0.7851500    -0.1025020
  C        2.1481850     0.6250380     0.6971500
  C       -0.4596220    -0.5879500    -0.1790540
  C        2.0510250    -0.7686880     0.1361100
  C       -2.1103850     1.1321340     0.1249900
  C       -1.4919760    -1.5397800    -0.0852490
  C       -3.1313420     0.1920050     0.2149350
  C       -2.8150140    -1.1632860     0.1069400
  H       -0.1141940     2.5504580    -1.1051150
  H        0.0480080     2.5950730     0.6372840
  H        1.9308140     1.2745600    -1.3520490
  H        2.2359360     2.5841340    -0.2253410
  H        1.5370720     0.7103830     1.6057590
  H        3.1934550     0.7649280     0.9813470
  H        0.8461440    -2.0798130    -0.7458600
  H       -2.3558010     2.1909910     0.2008090
  H       -1.2325710    -2.5958500    -0.1409630
  H       -4.1571650     0.5114050     0.3790120
  H       -3.5892060    -1.9233590     0.1747080
units angstrom
no_reorient  #important for SAPT in psi4, default
symmetry c1  #important for SAPT in psi4, default
}

set PROPERTIES_ORIGIN ["COM"]
properties('MP2/aug-cc-pvtz', properties = ['dipole'])
--------------------------------------------------------------------------

    Molecular point group: c1
  Charge       = 0
  Multiplicity = 1
  Basis Set: AUG-CC-PVTZ
    Blend: AUG-CC-PVTZ
  Basis Set: (AUG-CC-PVTZ AUX)
    Blend: AUG-CC-PVTZ-JKFIT

    Orbital Energies [Eh]
    ---------------------

    Doubly Occupied:

       1A    -20.526350     2A    -15.602242     3A    -11.356594
       4A    -11.299911     5A    -11.256645     6A    -11.247771
       7A    -11.246315     8A    -11.245904     9A    -11.244061
      10A    -11.241306    11A    -11.239205    12A    -11.235812
      13A     -1.378471    14A     -1.258922    15A     -1.153579
      16A     -1.099469    17A     -1.037695    18A     -1.018169
      19A     -0.955138    20A     -0.880754    21A     -0.844511
      22A     -0.808660    23A     -0.766300    24A     -0.723193
      25A     -0.681353    26A     -0.672104    27A     -0.646159
      28A     -0.629809    29A     -0.611293    30A     -0.603457
      31A     -0.599971    32A     -0.578001    33A     -0.565157
      34A     -0.541289    35A     -0.518838    36A     -0.509449
      37A     -0.497926    38A     -0.490905    39A     -0.481254
      40A     -0.438388    41A     -0.420685    42A     -0.341553
      43A     -0.318611

  @DF-RHF Final Energy:  -514.59123809588459

   => Energetics <=

    Nuclear Repulsion Energy =            674.8776181564244325
    One-Electron Energy =               -2037.3113542731368852
    Two-Electron Energy =                 847.8424980208278612
    Total Energy =                       -514.5912380958845915
  Basis Set: (AUG-CC-PVTZ AUX)
    Blend: AUG-CC-PVTZ-RI
    Molecular point group: c1

    Geometry (in Angstrom), charge = 0, multiplicity = 1:

       Center              X                  Y                   Z               Mass
    ------------   -----------------  -----------------  -----------------  -----------------
         O            3.051865120227    -1.428969923232     0.135487072359    15.994914619570
         N            0.814840520227    -1.083616423232    -0.425369227641    14.003074004430
         C            0.179097520227     1.982117576768    -0.243309227641    12.000000000000
         C            1.668863520227     1.676559576768    -0.354663227641    12.000000000000
         C           -0.784377479773     0.816864576768    -0.106308227641    12.000000000000
         C            2.131278520227     0.656752576768     0.693343772359    12.000000000000
         C           -0.476528479773    -0.556235423232    -0.182860227641    12.000000000000
         C            2.034118520227    -0.736973423232     0.132303772359    12.000000000000
         C           -2.127291479773     1.163848576768     0.121183772359    12.000000000000
         C           -1.508882479773    -1.508065423232    -0.089055227641    12.000000000000
         C           -3.148248479773     0.223719576768     0.211128772359    12.000000000000
         C           -2.831920479773    -1.131571423232     0.103133772359    12.000000000000
         H           -0.131100479773     2.582172576768    -1.108921227641     1.007825032230
         H            0.031101520227     2.626787576768     0.633477772359     1.007825032230
         H            1.913907520227     1.306274576768    -1.355855227641     1.007825032230
         H            2.219029520227     2.615848576768    -0.229147227641     1.007825032230
         H            1.520165520227     0.742097576768     1.601952772359     1.007825032230
         H            3.176548520227     0.796642576768     0.977540772359     1.007825032230
         H            0.829237520227    -2.048098423232    -0.749666227641     1.007825032230
         H           -2.372707479773     2.222705576768     0.197002772359     1.007825032230
         H           -1.249477479773    -2.564135423232    -0.144769227641     1.007825032230
         H           -4.174071479773     0.543119576768     0.375205772359     1.007825032230
         H           -3.606112479773    -1.891644423232     0.170901772359     1.007825032230

  Basis Set: AUG-CC-PVTZ
    Blend: AUG-CC-PVTZ
  Basis Set: (AUG-CC-PVTZ AUX)
    Blend: AUG-CC-PVTZ-JKFIT
	 Reference Energy          =    -514.5912380958845915 [Eh]
	 Singles Energy            =      -0.0000000000000000 [Eh]
	 Same-Spin Energy          =      -0.5579558298346873 [Eh]
	 Opposite-Spin Energy      =      -1.7433907022501640 [Eh]
	 Correlation Energy        =      -2.3013465320848514 [Eh]
	 Total Energy              =    -516.8925846279694269 [Eh]

	 ================> DF-SCS-MP2 Energies <==================
	-----------------------------------------------------------
	 SCS Same-Spin Scale       =       0.3333333333333333 [-]
	 SCS Opposite-Spin Scale   =       1.2000000000000000 [-]
	 SCS Same-Spin Energy      =      -0.1859852766115624 [Eh]
	 SCS Opposite-Spin Energy  =      -2.0920688427001966 [Eh]
	 SCS Correlation Energy    =      -2.2780541193117592 [Eh]
	 SCS Total Energy          =    -516.8692922151963103 [Eh]
	-----------------------------------------------------------

  Dipole Moment: [D]
     X:    -2.9713      Y:     1.8225      Z:    -0.1046     Total:     3.4873

*** Psi4 exiting successfully. Buy a developer a beer!
