                               Psi4 1.3.2 release

  ==> Input File <==

--------------------------------------------------------------------------
#psi4
#
memory 32 gb

molecule  {
0 1
  O        3.0005300    -1.5493530     0.0754490
  N        0.8317470    -1.1153310    -0.4215630
  C        0.1960040     1.9504030    -0.2395030
  C        1.6857700     1.6448450    -0.3508570
  C       -0.7615650     0.8089592    -0.1026309
  C        2.1481850     0.6250380     0.6971500
  C       -0.4596220    -0.5879500    -0.1790540
  C        2.0510250    -0.7686880     0.1361100
  C       -2.1103850     1.1321340     0.1249900
  C       -1.4919760    -1.5397800    -0.0852490
  C       -3.1313420     0.1920050     0.2149350
  C       -2.8150140    -1.1632860     0.1069400
  H       -0.1141940     2.5504580    -1.1051150
  H        0.0480080     2.5950730     0.6372840
  H        1.9308140     1.2745600    -1.3520490
  H        2.2359360     2.5841340    -0.2253410
  H        1.5370720     0.7103830     1.6057590
  H        3.1934550     0.7649280     0.9813470
  H        0.8461440    -2.0798130    -0.7458600
  H       -2.3558010     2.1909910     0.2008090
  H       -1.2325710    -2.5958500    -0.1409630
  H       -4.1571650     0.5114050     0.3790120
  H       -3.5892060    -1.9233590     0.1747080
units angstrom
no_reorient  #important for SAPT in psi4, default
symmetry c1  #important for SAPT in psi4, default
}

set PROPERTIES_ORIGIN ["COM"]
properties('MP2/aug-cc-pvtz', properties = ['dipole'])
--------------------------------------------------------------------------

    Molecular point group: c1
  Charge       = 0
  Multiplicity = 1
  Basis Set: AUG-CC-PVTZ
    Blend: AUG-CC-PVTZ
  Basis Set: (AUG-CC-PVTZ AUX)
    Blend: AUG-CC-PVTZ-JKFIT

    Orbital Energies [Eh]
    ---------------------

    Doubly Occupied:

       1A    -20.525771     2A    -15.596201     3A    -11.357083
       4A    -11.299627     5A    -11.256875     6A    -11.246469
       7A    -11.244836     8A    -11.244212     9A    -11.244211
      10A    -11.243287    11A    -11.242699    12A    -11.239689
      13A     -1.380179    14A     -1.252511    15A     -1.150614
      16A     -1.103614    17A     -1.039695    18A     -1.015422
      19A     -0.956662    20A     -0.882289    21A     -0.840889
      22A     -0.808527    23A     -0.766015    24A     -0.721036
      25A     -0.682059    26A     -0.671583    27A     -0.647090
      28A     -0.627930    29A     -0.611521    30A     -0.603190
      31A     -0.601049    32A     -0.579885    33A     -0.564641
      34A     -0.542360    35A     -0.516997    36A     -0.511231
      37A     -0.497667    38A     -0.490950    39A     -0.486137
      40A     -0.435252    41A     -0.426034    42A     -0.340446
      43A     -0.313610

  @DF-RHF Final Energy:  -514.59292640823196

   => Energetics <=

    Nuclear Repulsion Energy =            674.8841378785106144
    One-Electron Energy =               -2037.3380339923801330
    Two-Electron Energy =                 847.8609697056376717
    Total Energy =                       -514.5929264082319605
  Basis Set: (AUG-CC-PVTZ AUX)
    Blend: AUG-CC-PVTZ-RI
    Molecular point group: c1

    Geometry (in Angstrom), charge = 0, multiplicity = 1:

       Center              X                  Y                   Z               Mass
    ------------   -----------------  -----------------  -----------------  -----------------
         O            2.989959631573    -1.510607717283     0.077991823297    15.994914619570
         N            0.821176631573    -1.076585717283    -0.419020176703    14.003074004430
         C            0.185433631573     1.989148282717    -0.236960176703    12.000000000000
         C            1.675199631573     1.683590282717    -0.348314176703    12.000000000000
         C           -0.772135368427     0.847704482717    -0.100088076703    12.000000000000
         C            2.137614631573     0.663783282717     0.699692823297    12.000000000000
         C           -0.470192368427    -0.549204717283    -0.176511176703    12.000000000000
         C            2.040454631573    -0.729942717283     0.138652823297    12.000000000000
         C           -2.120955368427     1.170879282717     0.127532823297    12.000000000000
         C           -1.502546368427    -1.501034717283    -0.082706176703    12.000000000000
         C           -3.141912368427     0.230750282717     0.217477823297    12.000000000000
         C           -2.825584368427    -1.124540717283     0.109482823297    12.000000000000
         H           -0.124764368427     2.589203282717    -1.102572176703     1.007825032230
         H            0.037437631573     2.633818282717     0.639826823297     1.007825032230
         H            1.920243631573     1.313305282717    -1.349506176703     1.007825032230
         H            2.225365631573     2.622879282717    -0.222798176703     1.007825032230
         H            1.526501631573     0.749128282717     1.608301823297     1.007825032230
         H            3.182884631573     0.803673282717     0.983889823297     1.007825032230
         H            0.835573631573    -2.041067717283    -0.743317176703     1.007825032230
         H           -2.366371368427     2.229736282717     0.203351823297     1.007825032230
         H           -1.243141368427    -2.557104717283    -0.138420176703     1.007825032230
         H           -4.167735368427     0.550150282717     0.381554823297     1.007825032230
         H           -3.599776368427    -1.884613717283     0.177250823297     1.007825032230

  Basis Set: AUG-CC-PVTZ
    Blend: AUG-CC-PVTZ
  Basis Set: (AUG-CC-PVTZ AUX)
    Blend: AUG-CC-PVTZ-JKFIT
	 Reference Energy          =    -514.5929264082319605 [Eh]
	 Singles Energy            =      -0.0000000000000000 [Eh]
	 Same-Spin Energy          =      -0.5581707002332161 [Eh]
	 Opposite-Spin Energy      =      -1.7434434214844732 [Eh]
	 Correlation Energy        =      -2.3016141217176891 [Eh]
	 Total Energy              =    -516.8945405299496088 [Eh]

	 ================> DF-SCS-MP2 Energies <==================
	-----------------------------------------------------------
	 SCS Same-Spin Scale       =       0.3333333333333333 [-]
	 SCS Opposite-Spin Scale   =       1.2000000000000000 [-]
	 SCS Same-Spin Energy      =      -0.1860569000777387 [Eh]
	 SCS Opposite-Spin Energy  =      -2.0921321057813675 [Eh]
	 SCS Correlation Energy    =      -2.2781890058591063 [Eh]
	 SCS Total Energy          =    -516.8711154140910367 [Eh]
	-----------------------------------------------------------

  Dipole Moment: [D]
     X:    -2.7057      Y:     2.0735      Z:     0.0288     Total:     3.4090

*** Psi4 exiting successfully. Buy a developer a beer!
