                               Psi4 1.3.2 release

  ==> Input File <==

--------------------------------------------------------------------------
#psi4
#
memory 32 gb

molecule  {
0 1
  O        3.0126477    -1.5351437     0.0860624
  N        0.8317470    -1.1153310    -0.4215630
  C        0.1960040     1.9504030    -0.2395030
  C        1.6857700     1.6448450    -0.3508570
  C       -0.7674710     0.7851500    -0.1025020
  C        2.1481850     0.6250380     0.6971500
  C       -0.4596220    -0.5879500    -0.1790540
  C        2.0510250    -0.7686880     0.1361100
  C       -2.1103850     1.1321340     0.1249900
  C       -1.4919760    -1.5397800    -0.0852490
  C       -3.1313420     0.1920050     0.2149350
  C       -2.8150140    -1.1632860     0.1069400
  H       -0.1141940     2.5504580    -1.1051150
  H        0.0480080     2.5950730     0.6372840
  H        1.9308140     1.2745600    -1.3520490
  H        2.2359360     2.5841340    -0.2253410
  H        1.5370720     0.7103830     1.6057590
  H        3.1934550     0.7649280     0.9813470
  H        0.8461440    -2.0798130    -0.7458600
  H       -2.3558010     2.1909910     0.2008090
  H       -1.2325710    -2.5958500    -0.1409630
  H       -4.1571650     0.5114050     0.3790120
  H       -3.5892060    -1.9233590     0.1747080
units angstrom
no_reorient  #important for SAPT in psi4, default
symmetry c1  #important for SAPT in psi4, default
}

set PROPERTIES_ORIGIN ["COM"]
properties('MP2/aug-cc-pvtz', properties = ['dipole'])
--------------------------------------------------------------------------

    Molecular point group: c1
  Charge       = 0
  Multiplicity = 1
  Basis Set: AUG-CC-PVTZ
    Blend: AUG-CC-PVTZ
  Basis Set: (AUG-CC-PVTZ AUX)
    Blend: AUG-CC-PVTZ-JKFIT

    Orbital Energies [Eh]
    ---------------------

    Doubly Occupied:

       1A    -20.525786     2A    -15.597170     3A    -11.356890
       4A    -11.297779     5A    -11.255471     6A    -11.246702
       7A    -11.245200     8A    -11.244836     9A    -11.244789
      10A    -11.242017    11A    -11.241389    12A    -11.240119
      13A     -1.379712    14A     -1.254043    15A     -1.151893
      16A     -1.101429    17A     -1.038746    18A     -1.016486
      19A     -0.956858    20A     -0.880527    21A     -0.843136
      22A     -0.808772    23A     -0.765736    24A     -0.722022
      25A     -0.681617    26A     -0.671168    27A     -0.646102
      28A     -0.629162    29A     -0.611355    30A     -0.603139
      31A     -0.600784    32A     -0.578770    33A     -0.564629
      34A     -0.541978    35A     -0.517856    36A     -0.510560
      37A     -0.498186    38A     -0.491744    39A     -0.482592
      40A     -0.435861    41A     -0.425234    42A     -0.340741
      43A     -0.316468

  @DF-RHF Final Energy:  -514.59428933522952

   => Energetics <=

    Nuclear Repulsion Energy =            675.0164019092125045
    One-Electron Energy =               -2037.6104652774952228
    Two-Electron Energy =                 847.9997740330530860
    Total Energy =                       -514.5942893352295187
  Basis Set: (AUG-CC-PVTZ AUX)
    Blend: AUG-CC-PVTZ-RI
    Molecular point group: c1

    Geometry (in Angstrom), charge = 0, multiplicity = 1:

       Center              X                  Y                   Z               Mass
    ------------   -----------------  -----------------  -----------------  -----------------
         O            3.001314068133    -1.496035663462     0.087541758528    15.994914619570
         N            0.820413368133    -1.076222963462    -0.420083641472    14.003074004430
         C            0.184670368133     1.989511036538    -0.238023641472    12.000000000000
         C            1.674436368133     1.683953036538    -0.349377641472    12.000000000000
         C           -0.778804631867     0.824258036538    -0.101022641472    12.000000000000
         C            2.136851368133     0.664146036538     0.698629358528    12.000000000000
         C           -0.470955631867    -0.548841963462    -0.177574641472    12.000000000000
         C            2.039691368133    -0.729579963462     0.137589358528    12.000000000000
         C           -2.121718631867     1.171242036538     0.126469358528    12.000000000000
         C           -1.503309631867    -1.500671963462    -0.083769641472    12.000000000000
         C           -3.142675631867     0.231113036538     0.216414358528    12.000000000000
         C           -2.826347631867    -1.124177963462     0.108419358528    12.000000000000
         H           -0.125527631867     2.589566036538    -1.103635641472     1.007825032230
         H            0.036674368133     2.634181036538     0.638763358528     1.007825032230
         H            1.919480368133     1.313668036538    -1.350569641472     1.007825032230
         H            2.224602368133     2.623242036538    -0.223861641472     1.007825032230
         H            1.525738368133     0.749491036538     1.607238358528     1.007825032230
         H            3.182121368133     0.804036036538     0.982826358528     1.007825032230
         H            0.834810368133    -2.040704963462    -0.744380641472     1.007825032230
         H           -2.367134631867     2.230099036538     0.202288358528     1.007825032230
         H           -1.243904631867    -2.556741963462    -0.139483641472     1.007825032230
         H           -4.168498631867     0.550513036538     0.380491358528     1.007825032230
         H           -3.600539631867    -1.884250963462     0.176187358528     1.007825032230

  Basis Set: AUG-CC-PVTZ
    Blend: AUG-CC-PVTZ
  Basis Set: (AUG-CC-PVTZ AUX)
    Blend: AUG-CC-PVTZ-JKFIT
	 Reference Energy          =    -514.5942893352295187 [Eh]
	 Singles Energy            =      -0.0000000000000000 [Eh]
	 Same-Spin Energy          =      -0.5578727474809750 [Eh]
	 Opposite-Spin Energy      =      -1.7430717446602431 [Eh]
	 Correlation Energy        =      -2.3009444921412179 [Eh]
	 Total Energy              =    -516.8952338273707028 [Eh]

	 ================> DF-SCS-MP2 Energies <==================
	-----------------------------------------------------------
	 SCS Same-Spin Scale       =       0.3333333333333333 [-]
	 SCS Opposite-Spin Scale   =       1.2000000000000000 [-]
	 SCS Same-Spin Energy      =      -0.1859575824936583 [Eh]
	 SCS Opposite-Spin Energy  =      -2.0916860935922914 [Eh]
	 SCS Correlation Energy    =      -2.2776436760859498 [Eh]
	 SCS Total Energy          =    -516.8719330113154911 [Eh]
	-----------------------------------------------------------

  Dipole Moment: [D]
     X:    -2.7827      Y:     2.0236      Z:     0.0113     Total:     3.4407

*** Psi4 exiting successfully. Buy a developer a beer!
