                               Psi4 1.3.2 release

  ==> Input File <==

--------------------------------------------------------------------------
#psi4
#
memory 32 gb

molecule  {
0 1
  O        3.0472289    -1.4911328     0.1179811
  N        0.8317470    -1.1153310    -0.4215630
  C        0.1960040     1.9504030    -0.2395030
  C        1.6857700     1.6448450    -0.3508570
  C       -0.7674710     0.7851500    -0.1025020
  C        2.1481850     0.6250380     0.6971500
  C       -0.4596220    -0.5879500    -0.1790540
  C        2.0510250    -0.7686880     0.1361100
  C       -2.1103850     1.1321340     0.1249900
  C       -1.4919760    -1.5397800    -0.0852490
  C       -3.1313420     0.1920050     0.2149350
  C       -2.8150140    -1.1632860     0.1069400
  H       -0.1141940     2.5504580    -1.1051150
  H        0.0480080     2.5950730     0.6372840
  H        1.9308140     1.2745600    -1.3520490
  H        2.2359360     2.5841340    -0.2253410
  H        1.5370720     0.7103830     1.6057590
  H        3.1934550     0.7649280     0.9813470
  H        0.8461440    -2.0798130    -0.7458600
  H       -2.3558010     2.1909910     0.2008090
  H       -1.2325710    -2.5958500    -0.1409630
  H       -4.1571650     0.5114050     0.3790120
  H       -3.5892060    -1.9233590     0.1747080
units angstrom
no_reorient  #important for SAPT in psi4, default
symmetry c1  #important for SAPT in psi4, default
}

set PROPERTIES_ORIGIN ["COM"]
properties('MP2/aug-cc-pvtz', properties = ['dipole'])
--------------------------------------------------------------------------

    Molecular point group: c1
  Charge       = 0
  Multiplicity = 1
  Basis Set: AUG-CC-PVTZ
    Blend: AUG-CC-PVTZ
  Basis Set: (AUG-CC-PVTZ AUX)
    Blend: AUG-CC-PVTZ-JKFIT

    Orbital Energies [Eh]
    ---------------------

    Doubly Occupied:

       1A    -20.526165     2A    -15.600244     3A    -11.356691
       4A    -11.299095     5A    -11.256201     6A    -11.247353
       7A    -11.245751     8A    -11.245627     9A    -11.244391
      10A    -11.240853    11A    -11.240296    12A    -11.238114
      13A     -1.378860    14A     -1.257023    15A     -1.152938
      16A     -1.100263    17A     -1.038144    18A     -1.017523
      19A     -0.955859    20A     -0.880676    21A     -0.843985
      22A     -0.808729    23A     -0.766068    24A     -0.722734
      25A     -0.681469    26A     -0.671748    27A     -0.646125
      28A     -0.629575    29A     -0.611328    30A     -0.603324
      31A     -0.600324    32A     -0.578338    33A     -0.564940
      34A     -0.541584    35A     -0.518438    36A     -0.509880
      37A     -0.498050    38A     -0.491266    39A     -0.481841
      40A     -0.437416    41A     -0.422731    42A     -0.341248
      43A     -0.317790

  @DF-RHF Final Energy:  -514.59298245158584

   => Energetics <=

    Nuclear Repulsion Energy =            674.9132896044687868
    One-Electron Energy =               -2037.3905511173711602
    Two-Electron Energy =                 847.8842790613164198
    Total Energy =                       -514.5929824515858400
  Basis Set: (AUG-CC-PVTZ AUX)
    Blend: AUG-CC-PVTZ-RI
    Molecular point group: c1

    Geometry (in Angstrom), charge = 0, multiplicity = 1:

       Center              X                  Y                   Z               Mass
    ------------   -----------------  -----------------  -----------------  -----------------
         O            3.032461512318    -1.456394845582     0.116291076848    15.994914619570
         N            0.816979612318    -1.080593045582    -0.423253023152    14.003074004430
         C            0.181236612318     1.985140954418    -0.241193023152    12.000000000000
         C            1.671002612318     1.679582954418    -0.352547023152    12.000000000000
         C           -0.782238387682     0.819887954418    -0.104192023152    12.000000000000
         C            2.133417612318     0.659775954418     0.695459976848    12.000000000000
         C           -0.474389387682    -0.553212045582    -0.180744023152    12.000000000000
         C            2.036257612318    -0.733950045582     0.134419976848    12.000000000000
         C           -2.125152387682     1.166871954418     0.123299976848    12.000000000000
         C           -1.506743387682    -1.505042045582    -0.086939023152    12.000000000000
         C           -3.146109387682     0.226742954418     0.213244976848    12.000000000000
         C           -2.829781387682    -1.128548045582     0.105249976848    12.000000000000
         H           -0.128961387682     2.585195954418    -1.106805023152     1.007825032230
         H            0.033240612318     2.629810954418     0.635593976848     1.007825032230
         H            1.916046612318     1.309297954418    -1.353739023152     1.007825032230
         H            2.221168612318     2.618871954418    -0.227031023152     1.007825032230
         H            1.522304612318     0.745120954418     1.604068976848     1.007825032230
         H            3.178687612318     0.799665954418     0.979656976848     1.007825032230
         H            0.831376612318    -2.045075045582    -0.747550023152     1.007825032230
         H           -2.370568387682     2.225728954418     0.199118976848     1.007825032230
         H           -1.247338387682    -2.561112045582    -0.142653023152     1.007825032230
         H           -4.171932387682     0.546142954418     0.377321976848     1.007825032230
         H           -3.603973387682    -1.888621045582     0.173017976848     1.007825032230

  Basis Set: AUG-CC-PVTZ
    Blend: AUG-CC-PVTZ
  Basis Set: (AUG-CC-PVTZ AUX)
    Blend: AUG-CC-PVTZ-JKFIT
	 Reference Energy          =    -514.5929824515858400 [Eh]
	 Singles Energy            =      -0.0000000000000000 [Eh]
	 Same-Spin Energy          =      -0.5579036130019686 [Eh]
	 Opposite-Spin Energy      =      -1.7432258305875004 [Eh]
	 Correlation Energy        =      -2.3011294435894687 [Eh]
	 Total Energy              =    -516.8941118951753424 [Eh]

	 ================> DF-SCS-MP2 Energies <==================
	-----------------------------------------------------------
	 SCS Same-Spin Scale       =       0.3333333333333333 [-]
	 SCS Opposite-Spin Scale   =       1.2000000000000000 [-]
	 SCS Same-Spin Energy      =      -0.1859678710006562 [Eh]
	 SCS Opposite-Spin Energy  =      -2.0918709967050004 [Eh]
	 SCS Correlation Energy    =      -2.2778388677056567 [Eh]
	 SCS Total Energy          =    -516.8708213192915082 [Eh]
	-----------------------------------------------------------

  Dipole Moment: [D]
     X:    -2.8996      Y:     1.9049      Z:    -0.0584     Total:     3.4698

*** Psi4 exiting successfully. Buy a developer a beer!
