                               Psi4 1.3.2 release

  ==> Input File <==

--------------------------------------------------------------------------
#psi4
#
memory 32 gb

molecule  {
0 1
  O        3.0005300    -1.5493530     0.0754490
  N        0.8317470    -1.1153310    -0.4215630
  C        0.1960040     1.9504030    -0.2395030
  C        1.6857700     1.6448450    -0.3508570
  C       -0.7674710     0.7851500    -0.1025020
  C        2.1481850     0.6250380     0.6971500
  C       -0.5279263    -0.5179991    -0.1695487
  C        2.0510250    -0.7686880     0.1361100
  C       -2.1103850     1.1321340     0.1249900
  C       -1.4919760    -1.5397800    -0.0852490
  C       -3.1313420     0.1920050     0.2149350
  C       -2.8150140    -1.1632860     0.1069400
  H       -0.1141940     2.5504580    -1.1051150
  H        0.0480080     2.5950730     0.6372840
  H        1.9308140     1.2745600    -1.3520490
  H        2.2359360     2.5841340    -0.2253410
  H        1.5370720     0.7103830     1.6057590
  H        3.1934550     0.7649280     0.9813470
  H        0.8461440    -2.0798130    -0.7458600
  H       -2.3558010     2.1909910     0.2008090
  H       -1.2325710    -2.5958500    -0.1409630
  H       -4.1571650     0.5114050     0.3790120
  H       -3.5892060    -1.9233590     0.1747080
units angstrom
no_reorient  #important for SAPT in psi4, default
symmetry c1  #important for SAPT in psi4, default
}

set PROPERTIES_ORIGIN ["COM"]
properties('MP2/aug-cc-pvtz', properties = ['dipole'])
--------------------------------------------------------------------------

    Molecular point group: c1
  Charge       = 0
  Multiplicity = 1
  Basis Set: AUG-CC-PVTZ
    Blend: AUG-CC-PVTZ
  Basis Set: (AUG-CC-PVTZ AUX)
    Blend: AUG-CC-PVTZ-JKFIT

    Orbital Energies [Eh]
    ---------------------

    Doubly Occupied:

       1A    -20.518074     2A    -15.588392     3A    -11.349478
       4A    -11.294263     5A    -11.249903     6A    -11.249524
       7A    -11.248495     8A    -11.248248     9A    -11.247904
      10A    -11.243364    11A    -11.241473    12A    -11.239638
      13A     -1.371829    14A     -1.233495    15A     -1.158692
      16A     -1.101388    17A     -1.045340    18A     -1.017245
      19A     -0.961878    20A     -0.874326    21A     -0.850743
      22A     -0.805132    23A     -0.760999    24A     -0.714204
      25A     -0.678328    26A     -0.667879    27A     -0.644659
      28A     -0.633801    29A     -0.609488    30A     -0.602793
      31A     -0.598132    32A     -0.577424    33A     -0.562703
      34A     -0.540687    35A     -0.520668    36A     -0.511281
      37A     -0.500461    38A     -0.493829    39A     -0.481953
      40A     -0.425990    41A     -0.418222    42A     -0.345279
      43A     -0.328346

  @DF-RHF Final Energy:  -514.58414538218051

   => Energetics <=

    Nuclear Repulsion Energy =            675.3591322540891042
    One-Electron Energy =               -2038.3746570710040942
    Two-Electron Energy =                 848.4313794347343674
    Total Energy =                       -514.5841453821805089
  Basis Set: (AUG-CC-PVTZ AUX)
    Blend: AUG-CC-PVTZ-RI
    Molecular point group: c1

    Geometry (in Angstrom), charge = 0, multiplicity = 1:

       Center              X                  Y                   Z               Mass
    ------------   -----------------  -----------------  -----------------  -----------------
         O            2.995487947522    -1.514045055442     0.077274121017    15.994914619570
         N            0.826704947522    -1.080023055442    -0.419737878983    14.003074004430
         C            0.190961947522     1.985710944558    -0.237677878983    12.000000000000
         C            1.680727947522     1.680152944558    -0.349031878983    12.000000000000
         C           -0.772513052478     0.820457944558    -0.100676878983    12.000000000000
         C            2.143142947522     0.660345944558     0.698975121017    12.000000000000
         C           -0.532968352478    -0.482691155442    -0.167723578983    12.000000000000
         C            2.045982947522    -0.733380055442     0.137935121017    12.000000000000
         C           -2.115427052478     1.167441944558     0.126815121017    12.000000000000
         C           -1.497018052478    -1.504472055442    -0.083423878983    12.000000000000
         C           -3.136384052478     0.227312944558     0.216760121017    12.000000000000
         C           -2.820056052478    -1.127978055442     0.108765121017    12.000000000000
         H           -0.119236052478     2.585765944558    -1.103289878983     1.007825032230
         H            0.042965947522     2.630380944558     0.639109121017     1.007825032230
         H            1.925771947522     1.309867944558    -1.350223878983     1.007825032230
         H            2.230893947522     2.619441944558    -0.223515878983     1.007825032230
         H            1.532029947522     0.745690944558     1.607584121017     1.007825032230
         H            3.188412947522     0.800235944558     0.983172121017     1.007825032230
         H            0.841101947522    -2.044505055442    -0.744034878983     1.007825032230
         H           -2.360843052478     2.226298944558     0.202634121017     1.007825032230
         H           -1.237613052478    -2.560542055442    -0.139137878983     1.007825032230
         H           -4.162207052478     0.546712944558     0.380837121017     1.007825032230
         H           -3.594248052478    -1.888051055442     0.176533121017     1.007825032230

  Basis Set: AUG-CC-PVTZ
    Blend: AUG-CC-PVTZ
  Basis Set: (AUG-CC-PVTZ AUX)
    Blend: AUG-CC-PVTZ-JKFIT
	 Reference Energy          =    -514.5841453821805089 [Eh]
	 Singles Energy            =      -0.0000000000000000 [Eh]
	 Same-Spin Energy          =      -0.5571426026229884 [Eh]
	 Opposite-Spin Energy      =      -1.7426867987742058 [Eh]
	 Correlation Energy        =      -2.2998294013971945 [Eh]
	 Total Energy              =    -516.8839747835777416 [Eh]

	 ================> DF-SCS-MP2 Energies <==================
	-----------------------------------------------------------
	 SCS Same-Spin Scale       =       0.3333333333333333 [-]
	 SCS Opposite-Spin Scale   =       1.2000000000000000 [-]
	 SCS Same-Spin Energy      =      -0.1857142008743295 [Eh]
	 SCS Opposite-Spin Energy  =      -2.0912241585290468 [Eh]
	 SCS Correlation Energy    =      -2.2769383594033763 [Eh]
	 SCS Total Energy          =    -516.8610837415839114 [Eh]
	-----------------------------------------------------------

  Dipole Moment: [D]
     X:    -3.2583      Y:     2.1997      Z:     0.0642     Total:     3.9319

*** Psi4 exiting successfully. Buy a developer a beer!
