                               Psi4 1.3.2 release

  ==> Input File <==

--------------------------------------------------------------------------
#psi4
#
memory 32 gb

molecule  {
0 1
  O        3.0005300    -1.5493530     0.0754490
  N        0.8317470    -1.1153310    -0.4215630
  C        0.1960040     1.9504030    -0.2395030
  C        1.6857700     1.6448450    -0.3508570
  C       -0.6405459     0.9386567    -0.1205501
  C        2.1481850     0.6250380     0.6971500
  C       -0.4596220    -0.5879500    -0.1790540
  C        2.0510250    -0.7686880     0.1361100
  C       -2.1103850     1.1321340     0.1249900
  C       -1.4919760    -1.5397800    -0.0852490
  C       -3.1313420     0.1920050     0.2149350
  C       -2.8150140    -1.1632860     0.1069400
  H       -0.1141940     2.5504580    -1.1051150
  H        0.0480080     2.5950730     0.6372840
  H        1.9308140     1.2745600    -1.3520490
  H        2.2359360     2.5841340    -0.2253410
  H        1.5370720     0.7103830     1.6057590
  H        3.1934550     0.7649280     0.9813470
  H        0.8461440    -2.0798130    -0.7458600
  H       -2.3558010     2.1909910     0.2008090
  H       -1.2325710    -2.5958500    -0.1409630
  H       -4.1571650     0.5114050     0.3790120
  H       -3.5892060    -1.9233590     0.1747080
units angstrom
no_reorient  #important for SAPT in psi4, default
symmetry c1  #important for SAPT in psi4, default
}

set PROPERTIES_ORIGIN ["COM"]
properties('MP2/aug-cc-pvtz', properties = ['dipole'])
--------------------------------------------------------------------------

    Molecular point group: c1
  Charge       = 0
  Multiplicity = 1
  Basis Set: AUG-CC-PVTZ
    Blend: AUG-CC-PVTZ
  Basis Set: (AUG-CC-PVTZ AUX)
    Blend: AUG-CC-PVTZ-JKFIT

    Orbital Energies [Eh]
    ---------------------

    Doubly Occupied:

       1A    -20.525099     2A    -15.592995     3A    -11.356499
       4A    -11.309910     5A    -11.270866     6A    -11.253176
       7A    -11.246942     8A    -11.246901     9A    -11.244680
      10A    -11.244327    11A    -11.239743    12A    -11.237264
      13A     -1.379456    14A     -1.249713    15A     -1.150730
      16A     -1.119750    17A     -1.047611    18A     -1.010097
      19A     -0.950939    20A     -0.895713    21A     -0.831891
      22A     -0.804327    23A     -0.763019    24A     -0.714899
      25A     -0.687167    26A     -0.684228    27A     -0.653560
      28A     -0.626340    29A     -0.620157    30A     -0.605273
      31A     -0.594219    32A     -0.588595    33A     -0.563279
      34A     -0.543185    35A     -0.521908    36A     -0.514789
      37A     -0.504665    38A     -0.490678    39A     -0.465999
      40A     -0.433153    41A     -0.424928    42A     -0.331474
      43A     -0.299293

  @DF-RHF Final Energy:  -514.53185759158578

   => Energetics <=

    Nuclear Repulsion Energy =            674.4254101674954427
    One-Electron Energy =               -2036.2356577227894832
    Two-Electron Energy =                 847.2783899637083778
    Total Energy =                       -514.5318575915857764
  Basis Set: (AUG-CC-PVTZ AUX)
    Blend: AUG-CC-PVTZ-RI
    Molecular point group: c1

    Geometry (in Angstrom), charge = 0, multiplicity = 1:

       Center              X                  Y                   Z               Mass
    ------------   -----------------  -----------------  -----------------  -----------------
         O            2.980944281674    -1.520269566888     0.079326718846    15.994914619570
         N            0.812161281674    -1.086247566888    -0.417685281154    14.003074004430
         C            0.176418281674     1.979486433112    -0.235625281154    12.000000000000
         C            1.666184281674     1.673928433112    -0.346979281154    12.000000000000
         C           -0.660131618326     0.967740133112    -0.116672381154    12.000000000000
         C            2.128599281674     0.654121433112     0.701027718846    12.000000000000
         C           -0.479207718326    -0.558866566888    -0.175176281154    12.000000000000
         C            2.031439281674    -0.739604566888     0.139987718846    12.000000000000
         C           -2.129970718326     1.161217433112     0.128867718846    12.000000000000
         C           -1.511561718326    -1.510696566888    -0.081371281154    12.000000000000
         C           -3.150927718326     0.221088433112     0.218812718846    12.000000000000
         C           -2.834599718326    -1.134202566888     0.110817718846    12.000000000000
         H           -0.133779718326     2.579541433112    -1.101237281154     1.007825032230
         H            0.028422281674     2.624156433112     0.641161718846     1.007825032230
         H            1.911228281674     1.303643433112    -1.348171281154     1.007825032230
         H            2.216350281674     2.613217433112    -0.221463281154     1.007825032230
         H            1.517486281674     0.739466433112     1.609636718846     1.007825032230
         H            3.173869281674     0.794011433112     0.985224718846     1.007825032230
         H            0.826558281674    -2.050729566888    -0.741982281154     1.007825032230
         H           -2.375386718326     2.220074433112     0.204686718846     1.007825032230
         H           -1.252156718326    -2.566766566888    -0.137085281154     1.007825032230
         H           -4.176750718326     0.540488433112     0.382889718846     1.007825032230
         H           -3.608791718326    -1.894275566888     0.178585718846     1.007825032230

  Basis Set: AUG-CC-PVTZ
    Blend: AUG-CC-PVTZ
  Basis Set: (AUG-CC-PVTZ AUX)
    Blend: AUG-CC-PVTZ-JKFIT
	 Reference Energy          =    -514.5318575915857764 [Eh]
	 Singles Energy            =      -0.0000000000000000 [Eh]
	 Same-Spin Energy          =      -0.5625097961668661 [Eh]
	 Opposite-Spin Energy      =      -1.7503842382662551 [Eh]
	 Correlation Energy        =      -2.3128940344331212 [Eh]
	 Total Energy              =    -516.8447516260189332 [Eh]

	 ================> DF-SCS-MP2 Energies <==================
	-----------------------------------------------------------
	 SCS Same-Spin Scale       =       0.3333333333333333 [-]
	 SCS Opposite-Spin Scale   =       1.2000000000000000 [-]
	 SCS Same-Spin Energy      =      -0.1875032653889554 [Eh]
	 SCS Opposite-Spin Energy  =      -2.1004610859195059 [Eh]
	 SCS Correlation Energy    =      -2.2879643513084611 [Eh]
	 SCS Total Energy          =    -516.8198219428942366 [Eh]
	-----------------------------------------------------------

  Dipole Moment: [D]
     X:    -2.5081      Y:     2.2530      Z:    -0.0139     Total:     3.3714

*** Psi4 exiting successfully. Buy a developer a beer!
