                               Psi4 1.3.2 release

  ==> Input File <==

--------------------------------------------------------------------------
#psi4
#
memory 32 gb

molecule  {
0 1
  O        3.0005300    -1.5493530     0.0754490
  N        0.8317470    -1.1153310    -0.4215630
  C        0.1136407     2.0154215    -0.2247398
  C        1.6857700     1.6448450    -0.3508570
  C       -0.7674710     0.7851500    -0.1025020
  C        2.1481850     0.6250380     0.6971500
  C       -0.4596220    -0.5879500    -0.1790540
  C        2.0510250    -0.7686880     0.1361100
  C       -2.1103850     1.1321340     0.1249900
  C       -1.4919760    -1.5397800    -0.0852490
  C       -3.1313420     0.1920050     0.2149350
  C       -2.8150140    -1.1632860     0.1069400
  H       -0.1141940     2.5504580    -1.1051150
  H        0.0480080     2.5950730     0.6372840
  H        1.9308140     1.2745600    -1.3520490
  H        2.2359360     2.5841340    -0.2253410
  H        1.5370720     0.7103830     1.6057590
  H        3.1934550     0.7649280     0.9813470
  H        0.8461440    -2.0798130    -0.7458600
  H       -2.3558010     2.1909910     0.2008090
  H       -1.2325710    -2.5958500    -0.1409630
  H       -4.1571650     0.5114050     0.3790120
  H       -3.5892060    -1.9233590     0.1747080
units angstrom
no_reorient  #important for SAPT in psi4, default
symmetry c1  #important for SAPT in psi4, default
}

set PROPERTIES_ORIGIN ["COM"]
properties('MP2/aug-cc-pvtz', properties = ['dipole'])
--------------------------------------------------------------------------

    Molecular point group: c1
  Charge       = 0
  Multiplicity = 1
  Basis Set: AUG-CC-PVTZ
    Blend: AUG-CC-PVTZ
  Basis Set: (AUG-CC-PVTZ AUX)
    Blend: AUG-CC-PVTZ-JKFIT

    Orbital Energies [Eh]
    ---------------------

    Doubly Occupied:

       1A    -20.525193     2A    -15.595744     3A    -11.356392
       4A    -11.299397     5A    -11.254092     6A    -11.246918
       7A    -11.244908     8A    -11.244294     9A    -11.243727
      10A    -11.242280    11A    -11.241084    12A    -11.238970
      13A     -1.379597    14A     -1.252488    15A     -1.151645
      16A     -1.093176    17A     -1.039602    18A     -1.015214
      19A     -0.954714    20A     -0.879504    21A     -0.842244
      22A     -0.812251    23A     -0.765639    24A     -0.721913
      25A     -0.680533    26A     -0.671011    27A     -0.645244
      28A     -0.629377    29A     -0.617566    30A     -0.605012
      31A     -0.597572    32A     -0.580198    33A     -0.565543
      34A     -0.540483    35A     -0.516447    36A     -0.512342
      37A     -0.504138    38A     -0.494228    39A     -0.463236
      40A     -0.435025    41A     -0.424839    42A     -0.342021
      43A     -0.316698

  @DF-RHF Final Energy:  -514.58472723209411

   => Energetics <=

    Nuclear Repulsion Energy =            673.8479362117905112
    One-Electron Energy =               -2035.3003304815490537
    Two-Electron Energy =                 846.8676670376644324
    Total Energy =                       -514.5847272320941101
  Basis Set: (AUG-CC-PVTZ AUX)
    Blend: AUG-CC-PVTZ-RI
    Molecular point group: c1

    Geometry (in Angstrom), charge = 0, multiplicity = 1:

       Center              X                  Y                   Z               Mass
    ------------   -----------------  -----------------  -----------------  -----------------
         O            2.996535276450    -1.513677614998     0.076882432364    15.994914619570
         N            0.827752276450    -1.079655614998    -0.420129567636    14.003074004430
         C            0.109645976450     2.051096885002    -0.223306367636    12.000000000000
         C            1.681775276450     1.680520385002    -0.349423567636    12.000000000000
         C           -0.771465723550     0.820825385002    -0.101068567636    12.000000000000
         C            2.144190276450     0.660713385002     0.698583432364    12.000000000000
         C           -0.463616723550    -0.552274614998    -0.177620567636    12.000000000000
         C            2.047030276450    -0.733012614998     0.137543432364    12.000000000000
         C           -2.114379723550     1.167809385002     0.126423432364    12.000000000000
         C           -1.495970723550    -1.504104614998    -0.083815567636    12.000000000000
         C           -3.135336723550     0.227680385002     0.216368432364    12.000000000000
         C           -2.819008723550    -1.127610614998     0.108373432364    12.000000000000
         H           -0.118188723550     2.586133385002    -1.103681567636     1.007825032230
         H            0.044013276450     2.630748385002     0.638717432364     1.007825032230
         H            1.926819276450     1.310235385002    -1.350615567636     1.007825032230
         H            2.231941276450     2.619809385002    -0.223907567636     1.007825032230
         H            1.533077276450     0.746058385002     1.607192432364     1.007825032230
         H            3.189460276450     0.800603385002     0.982780432364     1.007825032230
         H            0.842149276450    -2.044137614998    -0.744426567636     1.007825032230
         H           -2.359795723550     2.226666385002     0.202242432364     1.007825032230
         H           -1.236565723550    -2.560174614998    -0.139529567636     1.007825032230
         H           -4.161159723550     0.547080385002     0.380445432364     1.007825032230
         H           -3.593200723550    -1.887683614998     0.176141432364     1.007825032230

  Basis Set: AUG-CC-PVTZ
    Blend: AUG-CC-PVTZ
  Basis Set: (AUG-CC-PVTZ AUX)
    Blend: AUG-CC-PVTZ-JKFIT
	 Reference Energy          =    -514.5847272320941101 [Eh]
	 Singles Energy            =      -0.0000000000000000 [Eh]
	 Same-Spin Energy          =      -0.5575876491806282 [Eh]
	 Opposite-Spin Energy      =      -1.7431673716212250 [Eh]
	 Correlation Energy        =      -2.3007550208018532 [Eh]
	 Total Energy              =    -516.8854822528959403 [Eh]

	 ================> DF-SCS-MP2 Energies <==================
	-----------------------------------------------------------
	 SCS Same-Spin Scale       =       0.3333333333333333 [-]
	 SCS Opposite-Spin Scale   =       1.2000000000000000 [-]
	 SCS Same-Spin Energy      =      -0.1858625497268760 [Eh]
	 SCS Opposite-Spin Energy  =      -2.0918008459454698 [Eh]
	 SCS Correlation Energy    =      -2.2776633956723460 [Eh]
	 SCS Total Energy          =    -516.8623906277664446 [Eh]
	-----------------------------------------------------------

  Dipole Moment: [D]
     X:    -2.8026      Y:     2.0592      Z:     0.0492     Total:     3.4781

*** Psi4 exiting successfully. Buy a developer a beer!
