                               Psi4 1.3.2 release

  ==> Input File <==

--------------------------------------------------------------------------
#psi4
#
memory 32 gb

molecule  {
0 1
  O        3.0005300    -1.5493530     0.0754490
  N        0.8317470    -1.1153310    -0.4215630
  C        0.1918537     1.8819647    -0.1580968
  C        1.6857700     1.6448450    -0.3508570
  C       -0.7674710     0.7851500    -0.1025020
  C        2.1481850     0.6250380     0.6971500
  C       -0.4596220    -0.5879500    -0.1790540
  C        2.0510250    -0.7686880     0.1361100
  C       -2.1103850     1.1321340     0.1249900
  C       -1.4919760    -1.5397800    -0.0852490
  C       -3.1313420     0.1920050     0.2149350
  C       -2.8150140    -1.1632860     0.1069400
  H       -0.1141940     2.5504580    -1.1051150
  H        0.0480080     2.5950730     0.6372840
  H        1.9308140     1.2745600    -1.3520490
  H        2.2359360     2.5841340    -0.2253410
  H        1.5370720     0.7103830     1.6057590
  H        3.1934550     0.7649280     0.9813470
  H        0.8461440    -2.0798130    -0.7458600
  H       -2.3558010     2.1909910     0.2008090
  H       -1.2325710    -2.5958500    -0.1409630
  H       -4.1571650     0.5114050     0.3790120
  H       -3.5892060    -1.9233590     0.1747080
units angstrom
no_reorient  #important for SAPT in psi4, default
symmetry c1  #important for SAPT in psi4, default
}

set PROPERTIES_ORIGIN ["COM"]
properties('MP2/aug-cc-pvtz', properties = ['dipole'])
--------------------------------------------------------------------------

    Molecular point group: c1
  Charge       = 0
  Multiplicity = 1
  Basis Set: AUG-CC-PVTZ
    Blend: AUG-CC-PVTZ
  Basis Set: (AUG-CC-PVTZ AUX)
    Blend: AUG-CC-PVTZ-JKFIT

    Orbital Energies [Eh]
    ---------------------

    Doubly Occupied:

       1A    -20.525630     2A    -15.596603     3A    -11.356959
       4A    -11.297205     5A    -11.254144     6A    -11.248459
       7A    -11.246720     8A    -11.245717     9A    -11.244827
      10A    -11.244110    11A    -11.241287    12A    -11.240557
      13A     -1.380147    14A     -1.254004    15A     -1.154147
      16A     -1.105704    17A     -1.042924    18A     -1.016750
      19A     -0.953537    20A     -0.884457    21A     -0.844733
      22A     -0.808697    23A     -0.764719    24A     -0.722650
      25A     -0.682551    26A     -0.674578    27A     -0.648289
      28A     -0.630231    29A     -0.607333    30A     -0.603385
      31A     -0.595694    32A     -0.585711    33A     -0.564759
      34A     -0.542956    35A     -0.519187    36A     -0.512638
      37A     -0.500301    38A     -0.493649    39A     -0.472915
      40A     -0.435688    41A     -0.424755    42A     -0.338304
      43A     -0.315522

  @DF-RHF Final Energy:  -514.58244538314989

   => Energetics <=

    Nuclear Repulsion Energy =            676.4614601521577697
    One-Electron Energy =               -2040.4415453835222252
    Two-Electron Energy =                 849.3976398482145669
    Total Energy =                       -514.5824453831498886
  Basis Set: (AUG-CC-PVTZ AUX)
    Blend: AUG-CC-PVTZ-RI
    Molecular point group: c1

    Geometry (in Angstrom), charge = 0, multiplicity = 1:

       Center              X                  Y                   Z               Mass
    ------------   -----------------  -----------------  -----------------  -----------------
         O            2.990708778305    -1.503735715344     0.071917844432    15.994914619570
         N            0.821925778305    -1.069713715344    -0.425094155568    14.003074004430
         C            0.182032478305     1.927581984656    -0.161627955568    12.000000000000
         C            1.675948778305     1.690462284656    -0.354388155568    12.000000000000
         C           -0.777292221695     0.830767284656    -0.106033155568    12.000000000000
         C            2.138363778305     0.670655284656     0.693618844432    12.000000000000
         C           -0.469443221695    -0.542332715344    -0.182585155568    12.000000000000
         C            2.041203778305    -0.723070715344     0.132578844432    12.000000000000
         C           -2.120206221695     1.177751284656     0.121458844432    12.000000000000
         C           -1.501797221695    -1.494162715344    -0.088780155568    12.000000000000
         C           -3.141163221695     0.237622284656     0.211403844432    12.000000000000
         C           -2.824835221695    -1.117668715344     0.103408844432    12.000000000000
         H           -0.124015221695     2.596075284656    -1.108646155568     1.007825032230
         H            0.038186778305     2.640690284656     0.633752844432     1.007825032230
         H            1.920992778305     1.320177284656    -1.355580155568     1.007825032230
         H            2.226114778305     2.629751284656    -0.228872155568     1.007825032230
         H            1.527250778305     0.756000284656     1.602227844432     1.007825032230
         H            3.183633778305     0.810545284656     0.977815844432     1.007825032230
         H            0.836322778305    -2.034195715344    -0.749391155568     1.007825032230
         H           -2.365622221695     2.236608284656     0.197277844432     1.007825032230
         H           -1.242392221695    -2.550232715344    -0.144494155568     1.007825032230
         H           -4.166986221695     0.557022284656     0.375480844432     1.007825032230
         H           -3.599027221695    -1.877741715344     0.171176844432     1.007825032230

  Basis Set: AUG-CC-PVTZ
    Blend: AUG-CC-PVTZ
  Basis Set: (AUG-CC-PVTZ AUX)
    Blend: AUG-CC-PVTZ-JKFIT
	 Reference Energy          =    -514.5824453831498886 [Eh]
	 Singles Energy            =      -0.0000000000000000 [Eh]
	 Same-Spin Energy          =      -0.5588036799000617 [Eh]
	 Opposite-Spin Energy      =      -1.7444513132452641 [Eh]
	 Correlation Energy        =      -2.3032549931453259 [Eh]
	 Total Energy              =    -516.8857003762951763 [Eh]

	 ================> DF-SCS-MP2 Energies <==================
	-----------------------------------------------------------
	 SCS Same-Spin Scale       =       0.3333333333333333 [-]
	 SCS Opposite-Spin Scale   =       1.2000000000000000 [-]
	 SCS Same-Spin Energy      =      -0.1862678933000206 [Eh]
	 SCS Opposite-Spin Energy  =      -2.0933415758943168 [Eh]
	 SCS Correlation Energy    =      -2.2796094691943374 [Eh]
	 SCS Total Energy          =    -516.8620548523442721 [Eh]
	-----------------------------------------------------------

  Dipole Moment: [D]
     X:    -2.7156      Y:     2.0501      Z:     0.0903     Total:     3.4037

*** Psi4 exiting successfully. Buy a developer a beer!
