                               Psi4 1.3.2 release

  ==> Input File <==

--------------------------------------------------------------------------
#psi4
#
memory 32 gb

molecule  {
0 1
  O        3.0005300    -1.5493530     0.0754490
  N        0.8317470    -1.1153310    -0.4215630
  C        0.1960040     1.9504030    -0.2395030
  C        1.6857700     1.6448450    -0.3508570
  C       -0.7374334     0.9290724    -0.0971323
  C        2.1481850     0.6250380     0.6971500
  C       -0.4596220    -0.5879500    -0.1790540
  C        2.0510250    -0.7686880     0.1361100
  C       -2.1103850     1.1321340     0.1249900
  C       -1.4919760    -1.5397800    -0.0852490
  C       -3.1313420     0.1920050     0.2149350
  C       -2.8150140    -1.1632860     0.1069400
  H       -0.1141940     2.5504580    -1.1051150
  H        0.0480080     2.5950730     0.6372840
  H        1.9308140     1.2745600    -1.3520490
  H        2.2359360     2.5841340    -0.2253410
  H        1.5370720     0.7103830     1.6057590
  H        3.1934550     0.7649280     0.9813470
  H        0.8461440    -2.0798130    -0.7458600
  H       -2.3558010     2.1909910     0.2008090
  H       -1.2325710    -2.5958500    -0.1409630
  H       -4.1571650     0.5114050     0.3790120
  H       -3.5892060    -1.9233590     0.1747080
units angstrom
no_reorient  #important for SAPT in psi4, default
symmetry c1  #important for SAPT in psi4, default
}

set PROPERTIES_ORIGIN ["COM"]
properties('MP2/aug-cc-pvtz', properties = ['dipole'])
--------------------------------------------------------------------------

    Molecular point group: c1
  Charge       = 0
  Multiplicity = 1
  Basis Set: AUG-CC-PVTZ
    Blend: AUG-CC-PVTZ
  Basis Set: (AUG-CC-PVTZ AUX)
    Blend: AUG-CC-PVTZ-JKFIT

    Orbital Energies [Eh]
    ---------------------

    Doubly Occupied:

       1A    -20.526479     2A    -15.596545     3A    -11.357647
       4A    -11.308876     5A    -11.265289     6A    -11.247148
       7A    -11.245989     8A    -11.244751     9A    -11.244081
      10A    -11.242617    11A    -11.240177    12A    -11.238882
      13A     -1.380731    14A     -1.250344    15A     -1.149593
      16A     -1.113283    17A     -1.045598    18A     -1.012965
      19A     -0.953743    20A     -0.891648    21A     -0.833887
      22A     -0.804869    23A     -0.767833    24A     -0.717429
      25A     -0.684637    26A     -0.676911    27A     -0.651831
      28A     -0.625528    29A     -0.614657    30A     -0.605611
      31A     -0.597938    32A     -0.585071    33A     -0.564575
      34A     -0.544643    35A     -0.519154    36A     -0.512723
      37A     -0.503364    38A     -0.491112    39A     -0.475678
      40A     -0.434554    41A     -0.426486    42A     -0.340239
      43A     -0.301425

  @DF-RHF Final Energy:  -514.56426083626354

   => Energetics <=

    Nuclear Repulsion Energy =            674.0785942316651926
    One-Electron Energy =               -2035.6126230915688211
    Two-Electron Energy =                 846.9697680236400856
    Total Energy =                       -514.5642608362635428
  Basis Set: (AUG-CC-PVTZ AUX)
    Blend: AUG-CC-PVTZ-RI
    Molecular point group: c1

    Geometry (in Angstrom), charge = 0, multiplicity = 1:

       Center              X                  Y                   Z               Mass
    ------------   -----------------  -----------------  -----------------  -----------------
         O            2.988161941642    -1.519555581922     0.077582203634    15.994914619570
         N            0.819378941642    -1.085533581922    -0.419429796366    14.003074004430
         C            0.183635941642     1.980200418078    -0.237369796366    12.000000000000
         C            1.673401941642     1.674642418078    -0.348723796366    12.000000000000
         C           -0.749801458358     0.958869818078    -0.094999096366    12.000000000000
         C            2.135816941642     0.654835418078     0.699283203634    12.000000000000
         C           -0.471990058358    -0.558152581922    -0.176920796366    12.000000000000
         C            2.038656941642    -0.738890581922     0.138243203634    12.000000000000
         C           -2.122753058358     1.161931418078     0.127123203634    12.000000000000
         C           -1.504344058358    -1.509982581922    -0.083115796366    12.000000000000
         C           -3.143710058358     0.221802418078     0.217068203634    12.000000000000
         C           -2.827382058358    -1.133488581922     0.109073203634    12.000000000000
         H           -0.126562058358     2.580255418078    -1.102981796366     1.007825032230
         H            0.035639941642     2.624870418078     0.639417203634     1.007825032230
         H            1.918445941642     1.304357418078    -1.349915796366     1.007825032230
         H            2.223567941642     2.613931418078    -0.223207796366     1.007825032230
         H            1.524703941642     0.740180418078     1.607892203634     1.007825032230
         H            3.181086941642     0.794725418078     0.983480203634     1.007825032230
         H            0.833775941642    -2.050015581922    -0.743726796366     1.007825032230
         H           -2.368169058358     2.220788418078     0.202942203634     1.007825032230
         H           -1.244939058358    -2.566052581922    -0.138829796366     1.007825032230
         H           -4.169533058358     0.541202418078     0.381145203634     1.007825032230
         H           -3.601574058358    -1.893561581922     0.176841203634     1.007825032230

  Basis Set: AUG-CC-PVTZ
    Blend: AUG-CC-PVTZ
  Basis Set: (AUG-CC-PVTZ AUX)
    Blend: AUG-CC-PVTZ-JKFIT
	 Reference Energy          =    -514.5642608362635428 [Eh]
	 Singles Energy            =      -0.0000000000000000 [Eh]
	 Same-Spin Energy          =      -0.5601886334510274 [Eh]
	 Opposite-Spin Energy      =      -1.7467977886432178 [Eh]
	 Correlation Energy        =      -2.3069864220942451 [Eh]
	 Total Energy              =    -516.8712472583578119 [Eh]

	 ================> DF-SCS-MP2 Energies <==================
	-----------------------------------------------------------
	 SCS Same-Spin Scale       =       0.3333333333333333 [-]
	 SCS Opposite-Spin Scale   =       1.2000000000000000 [-]
	 SCS Same-Spin Energy      =      -0.1867295444836758 [Eh]
	 SCS Opposite-Spin Energy  =      -2.0961573463718612 [Eh]
	 SCS Correlation Energy    =      -2.2828868908555369 [Eh]
	 SCS Total Energy          =    -516.8471477271191361 [Eh]
	-----------------------------------------------------------

  Dipole Moment: [D]
     X:    -2.5030      Y:     2.1689      Z:    -0.0051     Total:     3.3120

*** Psi4 exiting successfully. Buy a developer a beer!
