                               Psi4 1.3.2 release

  ==> Input File <==

--------------------------------------------------------------------------
#psi4
#
memory 32 gb

molecule  {
0 1
  O        3.0005300    -1.5493530     0.0754490
  N        0.8317470    -1.1153310    -0.4215630
  C        0.1960040     1.9504030    -0.2395030
  C        1.6857700     1.6448450    -0.3508570
  C       -0.8122219     0.6450293    -0.1053792
  C        2.1481850     0.6250380     0.6971500
  C       -0.4596220    -0.5879500    -0.1790540
  C        2.0510250    -0.7686880     0.1361100
  C       -2.1103850     1.1321340     0.1249900
  C       -1.4919760    -1.5397800    -0.0852490
  C       -3.1313420     0.1920050     0.2149350
  C       -2.8150140    -1.1632860     0.1069400
  H       -0.1141940     2.5504580    -1.1051150
  H        0.0480080     2.5950730     0.6372840
  H        1.9308140     1.2745600    -1.3520490
  H        2.2359360     2.5841340    -0.2253410
  H        1.5370720     0.7103830     1.6057590
  H        3.1934550     0.7649280     0.9813470
  H        0.8461440    -2.0798130    -0.7458600
  H       -2.3558010     2.1909910     0.2008090
  H       -1.2325710    -2.5958500    -0.1409630
  H       -4.1571650     0.5114050     0.3790120
  H       -3.5892060    -1.9233590     0.1747080
units angstrom
no_reorient  #important for SAPT in psi4, default
symmetry c1  #important for SAPT in psi4, default
}

set PROPERTIES_ORIGIN ["COM"]
properties('MP2/aug-cc-pvtz', properties = ['dipole'])
--------------------------------------------------------------------------

    Molecular point group: c1
  Charge       = 0
  Multiplicity = 1
  Basis Set: AUG-CC-PVTZ
    Blend: AUG-CC-PVTZ
  Basis Set: (AUG-CC-PVTZ AUX)
    Blend: AUG-CC-PVTZ-JKFIT

    Orbital Energies [Eh]
    ---------------------

    Doubly Occupied:

       1A    -20.524945     2A    -15.595828     3A    -11.356396
       4A    -11.281710     5A    -11.248678     6A    -11.247041
       7A    -11.246795     8A    -11.245432     9A    -11.245323
      10A    -11.241183    11A    -11.241048    12A    -11.238910
      13A     -1.379506    14A     -1.256903    15A     -1.160229
      16A     -1.092795    17A     -1.040237    18A     -1.019680
      19A     -0.959021    20A     -0.870449    21A     -0.855102
      22A     -0.808727    23A     -0.763309    24A     -0.726548
      25A     -0.680246    26A     -0.670701    27A     -0.640949
      28A     -0.637299    29A     -0.611696    30A     -0.603077
      31A     -0.597296    32A     -0.574862    33A     -0.563614
      34A     -0.542931    35A     -0.525824    36A     -0.509697
      37A     -0.500050    38A     -0.491713    39A     -0.452267
      40A     -0.434788    41A     -0.425232    42A     -0.343582
      43A     -0.328434

  @DF-RHF Final Energy:  -514.57102216715668

   => Energetics <=

    Nuclear Repulsion Energy =            676.2534313473925067
    One-Electron Energy =               -2040.0887985523672796
    Two-Electron Energy =                 849.2643450378180887
    Total Energy =                       -514.5710221671566842
  Basis Set: (AUG-CC-PVTZ AUX)
    Blend: AUG-CC-PVTZ-RI
    Molecular point group: c1

    Geometry (in Angstrom), charge = 0, multiplicity = 1:

       Center              X                  Y                   Z               Mass
    ------------   -----------------  -----------------  -----------------  -----------------
         O            2.993733330753    -1.498395715975     0.078196558633    15.994914619570
         N            0.824950330753    -1.064373715975    -0.418815441367    14.003074004430
         C            0.189207330753     2.001360284025    -0.236755441367    12.000000000000
         C            1.678973330753     1.695802284025    -0.348109441367    12.000000000000
         C           -0.819018569247     0.695986584025    -0.102631641367    12.000000000000
         C            2.141388330753     0.675995284025     0.699897558633    12.000000000000
         C           -0.466418669247    -0.536992715975    -0.176306441367    12.000000000000
         C            2.044228330753    -0.717730715975     0.138857558633    12.000000000000
         C           -2.117181669247     1.183091284025     0.127737558633    12.000000000000
         C           -1.498772669247    -1.488822715975    -0.082501441367    12.000000000000
         C           -3.138138669247     0.242962284025     0.217682558633    12.000000000000
         C           -2.821810669247    -1.112328715975     0.109687558633    12.000000000000
         H           -0.120990669247     2.601415284025    -1.102367441367     1.007825032230
         H            0.041211330753     2.646030284025     0.640031558633     1.007825032230
         H            1.924017330753     1.325517284025    -1.349301441367     1.007825032230
         H            2.229139330753     2.635091284025    -0.222593441367     1.007825032230
         H            1.530275330753     0.761340284025     1.608506558633     1.007825032230
         H            3.186658330753     0.815885284025     0.984094558633     1.007825032230
         H            0.839347330753    -2.028855715975    -0.743112441367     1.007825032230
         H           -2.362597669247     2.241948284025     0.203556558633     1.007825032230
         H           -1.239367669247    -2.544892715975    -0.138215441367     1.007825032230
         H           -4.163961669247     0.562362284025     0.381759558633     1.007825032230
         H           -3.596002669247    -1.872401715975     0.177455558633     1.007825032230

  Basis Set: AUG-CC-PVTZ
    Blend: AUG-CC-PVTZ
  Basis Set: (AUG-CC-PVTZ AUX)
    Blend: AUG-CC-PVTZ-JKFIT
	 Reference Energy          =    -514.5710221671566842 [Eh]
	 Singles Energy            =      -0.0000000000000000 [Eh]
	 Same-Spin Energy          =      -0.5569280674902803 [Eh]
	 Opposite-Spin Energy      =      -1.7426010468881084 [Eh]
	 Correlation Energy        =      -2.2995291143783887 [Eh]
	 Total Energy              =    -516.8705512815350858 [Eh]

	 ================> DF-SCS-MP2 Energies <==================
	-----------------------------------------------------------
	 SCS Same-Spin Scale       =       0.3333333333333333 [-]
	 SCS Opposite-Spin Scale   =       1.2000000000000000 [-]
	 SCS Same-Spin Energy      =      -0.1856426891634268 [Eh]
	 SCS Opposite-Spin Energy  =      -2.0911212562657298 [Eh]
	 SCS Correlation Energy    =      -2.2767639454291566 [Eh]
	 SCS Total Energy          =    -516.8477861125858226 [Eh]
	-----------------------------------------------------------

  Dipole Moment: [D]
     X:    -2.9347      Y:     2.0170      Z:     0.0687     Total:     3.5617

*** Psi4 exiting successfully. Buy a developer a beer!
