                               Psi4 1.3.2 release

  ==> Input File <==

--------------------------------------------------------------------------
#psi4
#
memory 32 gb

molecule  {
0 1
  O        3.0005300    -1.5493530     0.0754490
  N        0.8317470    -1.1153310    -0.4215630
  C        0.1960040     1.9504030    -0.2395030
  C        1.6857700     1.6448450    -0.3508570
  C       -0.7674710     0.7851500    -0.1025020
  C        2.1481850     0.6250380     0.6971500
  C       -0.4397869    -0.5567959    -0.1462172
  C        2.0510250    -0.7686880     0.1361100
  C       -2.1103850     1.1321340     0.1249900
  C       -1.4919760    -1.5397800    -0.0852490
  C       -3.1313420     0.1920050     0.2149350
  C       -2.8150140    -1.1632860     0.1069400
  H       -0.1141940     2.5504580    -1.1051150
  H        0.0480080     2.5950730     0.6372840
  H        1.9308140     1.2745600    -1.3520490
  H        2.2359360     2.5841340    -0.2253410
  H        1.5370720     0.7103830     1.6057590
  H        3.1934550     0.7649280     0.9813470
  H        0.8461440    -2.0798130    -0.7458600
  H       -2.3558010     2.1909910     0.2008090
  H       -1.2325710    -2.5958500    -0.1409630
  H       -4.1571650     0.5114050     0.3790120
  H       -3.5892060    -1.9233590     0.1747080
units angstrom
no_reorient  #important for SAPT in psi4, default
symmetry c1  #important for SAPT in psi4, default
}

set PROPERTIES_ORIGIN ["COM"]
properties('MP2/aug-cc-pvtz', properties = ['dipole'])
--------------------------------------------------------------------------

    Molecular point group: c1
  Charge       = 0
  Multiplicity = 1
  Basis Set: AUG-CC-PVTZ
    Blend: AUG-CC-PVTZ
  Basis Set: (AUG-CC-PVTZ AUX)
    Blend: AUG-CC-PVTZ-JKFIT

    Orbital Energies [Eh]
    ---------------------

    Doubly Occupied:

       1A    -20.525309     2A    -15.596653     3A    -11.355873
       4A    -11.297274     5A    -11.252338     6A    -11.248237
       7A    -11.245962     8A    -11.245510     9A    -11.244279
      10A    -11.242832    11A    -11.242089    12A    -11.240184
      13A     -1.379911    14A     -1.253196    15A     -1.151907
      16A     -1.101213    17A     -1.040668    18A     -1.012185
      19A     -0.958282    20A     -0.879024    21A     -0.845441
      22A     -0.808663    23A     -0.763485    24A     -0.722155
      25A     -0.681752    26A     -0.673119    27A     -0.645943
      28A     -0.628857    29A     -0.610873    30A     -0.602100
      31A     -0.598849    32A     -0.580537    33A     -0.564465
      34A     -0.541873    35A     -0.519643    36A     -0.510490
      37A     -0.498103    38A     -0.491107    39A     -0.481022
      40A     -0.435386    41A     -0.425325    42A     -0.340429
      43A     -0.316570

  @DF-RHF Final Energy:  -514.59224412582137

   => Energetics <=

    Nuclear Repulsion Energy =            675.3144243857307174
    One-Electron Energy =               -2038.2151087535632996
    Two-Electron Energy =                 848.3084402420112156
    Total Energy =                       -514.5922441258213667
  Basis Set: (AUG-CC-PVTZ AUX)
    Blend: AUG-CC-PVTZ-RI
    Molecular point group: c1

    Geometry (in Angstrom), charge = 0, multiplicity = 1:

       Center              X                  Y                   Z               Mass
    ------------   -----------------  -----------------  -----------------  -----------------
         O            2.988921979581    -1.511154877553     0.075536034746    15.994914619570
         N            0.820138979581    -1.077132877553    -0.421475965254    14.003074004430
         C            0.184395979581     1.988601122447    -0.239415965254    12.000000000000
         C            1.674161979581     1.683043122447    -0.350769965254    12.000000000000
         C           -0.779079020419     0.823348122447    -0.102414965254    12.000000000000
         C            2.136576979581     0.663236122447     0.697237034746    12.000000000000
         C           -0.451394920419    -0.518597777553    -0.146130165254    12.000000000000
         C            2.039416979581    -0.730489877553     0.136197034746    12.000000000000
         C           -2.121993020419     1.170332122447     0.125077034746    12.000000000000
         C           -1.503584020419    -1.501581877553    -0.085161965254    12.000000000000
         C           -3.142950020419     0.230203122447     0.215022034746    12.000000000000
         C           -2.826622020419    -1.125087877553     0.107027034746    12.000000000000
         H           -0.125802020419     2.588656122447    -1.105027965254     1.007825032230
         H            0.036399979581     2.633271122447     0.637371034746     1.007825032230
         H            1.919205979581     1.312758122447    -1.351961965254     1.007825032230
         H            2.224327979581     2.622332122447    -0.225253965254     1.007825032230
         H            1.525463979581     0.748581122447     1.605846034746     1.007825032230
         H            3.181846979581     0.803126122447     0.981434034746     1.007825032230
         H            0.834535979581    -2.041614877553    -0.745772965254     1.007825032230
         H           -2.367409020419     2.229189122447     0.200896034746     1.007825032230
         H           -1.244179020419    -2.557651877553    -0.140875965254     1.007825032230
         H           -4.168773020419     0.549603122447     0.379099034746     1.007825032230
         H           -3.600814020419    -1.885160877553     0.174795034746     1.007825032230

  Basis Set: AUG-CC-PVTZ
    Blend: AUG-CC-PVTZ
  Basis Set: (AUG-CC-PVTZ AUX)
    Blend: AUG-CC-PVTZ-JKFIT
	 Reference Energy          =    -514.5922441258213667 [Eh]
	 Singles Energy            =      -0.0000000000000000 [Eh]
	 Same-Spin Energy          =      -0.5577651630178740 [Eh]
	 Opposite-Spin Energy      =      -1.7431620714278382 [Eh]
	 Correlation Energy        =      -2.3009272344457123 [Eh]
	 Total Energy              =    -516.8931713602670470 [Eh]

	 ================> DF-SCS-MP2 Energies <==================
	-----------------------------------------------------------
	 SCS Same-Spin Scale       =       0.3333333333333333 [-]
	 SCS Opposite-Spin Scale   =       1.2000000000000000 [-]
	 SCS Same-Spin Energy      =      -0.1859217210059580 [Eh]
	 SCS Opposite-Spin Energy  =      -2.0917944857134056 [Eh]
	 SCS Correlation Energy    =      -2.2777162067193637 [Eh]
	 SCS Total Energy          =    -516.8699603325406997 [Eh]
	-----------------------------------------------------------

  Dipole Moment: [D]
     X:    -2.7465      Y:     2.0526      Z:     0.0311     Total:     3.4289

*** Psi4 exiting successfully. Buy a developer a beer!
