                               Psi4 1.3.2 release

  ==> Input File <==

--------------------------------------------------------------------------
#psi4
#
memory 32 gb

molecule  {
0 1
  O        3.0005300    -1.5493530     0.0754490
  N        0.8317470    -1.1153310    -0.4215630
  C        0.1960040     1.9504030    -0.2395030
  C        1.6857700     1.6448450    -0.3508570
  C       -0.7674710     0.7851500    -0.1025020
  C        2.1481850     0.6250380     0.6971500
  C       -0.4596220    -0.5879500    -0.1790540
  C        2.0510250    -0.7686880     0.1361100
  C       -2.1103850     1.1321340     0.1249900
  C       -1.4919760    -1.5397800    -0.0852490
  C       -3.1313420     0.1920050     0.2149350
  C       -2.8150140    -1.1632860     0.1069400
  H       -0.0859425     2.4958075    -1.0262786
  H        0.0480080     2.5950730     0.6372840
  H        1.9308140     1.2745600    -1.3520490
  H        2.2359360     2.5841340    -0.2253410
  H        1.5370720     0.7103830     1.6057590
  H        3.1934550     0.7649280     0.9813470
  H        0.8461440    -2.0798130    -0.7458600
  H       -2.3558010     2.1909910     0.2008090
  H       -1.2325710    -2.5958500    -0.1409630
  H       -4.1571650     0.5114050     0.3790120
  H       -3.5892060    -1.9233590     0.1747080
units angstrom
no_reorient  #important for SAPT in psi4, default
symmetry c1  #important for SAPT in psi4, default
}

set PROPERTIES_ORIGIN ["COM"]
properties('MP2/aug-cc-pvtz', properties = ['dipole'])
--------------------------------------------------------------------------

    Molecular point group: c1
  Charge       = 0
  Multiplicity = 1
  Basis Set: AUG-CC-PVTZ
    Blend: AUG-CC-PVTZ
  Basis Set: (AUG-CC-PVTZ AUX)
    Blend: AUG-CC-PVTZ-JKFIT

    Orbital Energies [Eh]
    ---------------------

    Doubly Occupied:

       1A    -20.525318     2A    -15.595822     3A    -11.356625
       4A    -11.296944     5A    -11.254655     6A    -11.246281
       7A    -11.244945     8A    -11.244282     9A    -11.242292
      10A    -11.241545    11A    -11.239775    12A    -11.232584
      13A     -1.379757    14A     -1.252737    15A     -1.151728
      16A     -1.103799    17A     -1.039411    18A     -1.016026
      19A     -0.961772    20A     -0.881220    21A     -0.842686
      22A     -0.811811    23A     -0.766805    24A     -0.721718
      25A     -0.683828    26A     -0.672170    27A     -0.646370
      28A     -0.628819    29A     -0.619792    30A     -0.603528
      31A     -0.600910    32A     -0.578456    33A     -0.565452
      34A     -0.541875    35A     -0.518099    36A     -0.510509
      37A     -0.498633    38A     -0.495785    39A     -0.482226
      40A     -0.435145    41A     -0.425680    42A     -0.341038
      43A     -0.315909

  @DF-RHF Final Energy:  -514.58883631802087

   => Energetics <=

    Nuclear Repulsion Energy =            675.6243755999315681
    One-Electron Energy =               -2038.7969063850530347
    Two-Electron Energy =                 848.5836944671007132
    Total Energy =                       -514.5888363180208671
  Basis Set: (AUG-CC-PVTZ AUX)
    Blend: AUG-CC-PVTZ-RI
    Molecular point group: c1

    Geometry (in Angstrom), charge = 0, multiplicity = 1:

       Center              X                  Y                   Z               Mass
    ------------   -----------------  -----------------  -----------------  -----------------
         O            2.990222844644    -1.508492122894     0.077488979655    15.994914619570
         N            0.821439844644    -1.074470122894    -0.419523020345    14.003074004430
         C            0.185696844644     1.991263877106    -0.237463020345    12.000000000000
         C            1.675462844644     1.685705877106    -0.348817020345    12.000000000000
         C           -0.777778155356     0.826010877106    -0.100462020345    12.000000000000
         C            2.137877844644     0.665898877106     0.699189979655    12.000000000000
         C           -0.469929155356    -0.547089122894    -0.177014020345    12.000000000000
         C            2.040717844644    -0.727827122894     0.138149979655    12.000000000000
         C           -2.120692155356     1.172994877106     0.127029979655    12.000000000000
         C           -1.502283155356    -1.498919122894    -0.083209020345    12.000000000000
         C           -3.141649155356     0.232865877106     0.216974979655    12.000000000000
         C           -2.825321155356    -1.122425122894     0.108979979655    12.000000000000
         H           -0.096249655356     2.536668377106    -1.024238620345     1.007825032230
         H            0.037700844644     2.635933877106     0.639323979655     1.007825032230
         H            1.920506844644     1.315420877106    -1.350009020345     1.007825032230
         H            2.225628844644     2.624994877106    -0.223301020345     1.007825032230
         H            1.526764844644     0.751243877106     1.607798979655     1.007825032230
         H            3.183147844644     0.805788877106     0.983386979655     1.007825032230
         H            0.835836844644    -2.038952122894    -0.743820020345     1.007825032230
         H           -2.366108155356     2.231851877106     0.202848979655     1.007825032230
         H           -1.242878155356    -2.554989122894    -0.138923020345     1.007825032230
         H           -4.167472155356     0.552265877106     0.381051979655     1.007825032230
         H           -3.599513155356    -1.882498122894     0.176747979655     1.007825032230

  Basis Set: AUG-CC-PVTZ
    Blend: AUG-CC-PVTZ
  Basis Set: (AUG-CC-PVTZ AUX)
    Blend: AUG-CC-PVTZ-JKFIT
	 Reference Energy          =    -514.5888363180208671 [Eh]
	 Singles Energy            =      -0.0000000000000000 [Eh]
	 Same-Spin Energy          =      -0.5578050674407231 [Eh]
	 Opposite-Spin Energy      =      -1.7424382646542242 [Eh]
	 Correlation Energy        =      -2.3002433320949471 [Eh]
	 Total Energy              =    -516.8890796501158320 [Eh]

	 ================> DF-SCS-MP2 Energies <==================
	-----------------------------------------------------------
	 SCS Same-Spin Scale       =       0.3333333333333333 [-]
	 SCS Opposite-Spin Scale   =       1.2000000000000000 [-]
	 SCS Same-Spin Energy      =      -0.1859350224802410 [Eh]
	 SCS Opposite-Spin Energy  =      -2.0909259175850692 [Eh]
	 SCS Correlation Energy    =      -2.2768609400653101 [Eh]
	 SCS Total Energy          =    -516.8656972580861293 [Eh]
	-----------------------------------------------------------

  Dipole Moment: [D]
     X:    -2.7544      Y:     2.0984      Z:     0.0110     Total:     3.4626

*** Psi4 exiting successfully. Buy a developer a beer!
