                               Psi4 1.3.2 release

  ==> Input File <==

--------------------------------------------------------------------------
#psi4
#
memory 32 gb

molecule  {
0 1
  O        3.0005300    -1.5493530     0.0754490
  N        0.8317470    -1.1153310    -0.4215630
  C        0.1960040     1.9504030    -0.2395030
  C        1.6857700     1.6448450    -0.3508570
  C       -0.7674710     0.7851500    -0.1025020
  C        2.1481850     0.6250380     0.6971500
  C       -0.3657769    -0.5625525    -0.1940150
  C        2.0510250    -0.7686880     0.1361100
  C       -2.1103850     1.1321340     0.1249900
  C       -1.4919760    -1.5397800    -0.0852490
  C       -3.1313420     0.1920050     0.2149350
  C       -2.8150140    -1.1632860     0.1069400
  H       -0.1141940     2.5504580    -1.1051150
  H        0.0480080     2.5950730     0.6372840
  H        1.9308140     1.2745600    -1.3520490
  H        2.2359360     2.5841340    -0.2253410
  H        1.5370720     0.7103830     1.6057590
  H        3.1934550     0.7649280     0.9813470
  H        0.8461440    -2.0798130    -0.7458600
  H       -2.3558010     2.1909910     0.2008090
  H       -1.2325710    -2.5958500    -0.1409630
  H       -4.1571650     0.5114050     0.3790120
  H       -3.5892060    -1.9233590     0.1747080
units angstrom
no_reorient  #important for SAPT in psi4, default
symmetry c1  #important for SAPT in psi4, default
}

set PROPERTIES_ORIGIN ["COM"]
properties('MP2/aug-cc-pvtz', properties = ['dipole'])
--------------------------------------------------------------------------

    Molecular point group: c1
  Charge       = 0
  Multiplicity = 1
  Basis Set: AUG-CC-PVTZ
    Blend: AUG-CC-PVTZ
  Basis Set: (AUG-CC-PVTZ AUX)
    Blend: AUG-CC-PVTZ-JKFIT

    Orbital Energies [Eh]
    ---------------------

    Doubly Occupied:

       1A    -20.531685     2A    -15.603676     3A    -11.361949
       4A    -11.301526     5A    -11.251694     6A    -11.249017
       7A    -11.245453     8A    -11.244009     9A    -11.243819
      10A    -11.243162    11A    -11.240658    12A    -11.236630
      13A     -1.387847    14A     -1.276814    15A     -1.145732
      16A     -1.101322    17A     -1.038954    18A     -1.005744
      19A     -0.955764    20A     -0.885717    21A     -0.845685
      22A     -0.812727    23A     -0.763539    24A     -0.733334
      25A     -0.685818    26A     -0.675236    27A     -0.647425
      28A     -0.626870    29A     -0.612962    30A     -0.604859
      31A     -0.594637    32A     -0.581136    33A     -0.566781
      34A     -0.543323    35A     -0.520555    36A     -0.509687
      37A     -0.497456    38A     -0.488699    39A     -0.474467
      40A     -0.440816    41A     -0.431115    42A     -0.337820
      43A     -0.304818

  @DF-RHF Final Energy:  -514.58157011434378

   => Energetics <=

    Nuclear Repulsion Energy =            675.4901609024013851
    One-Electron Energy =               -2038.4415901679876697
    Two-Electron Energy =                 848.3698591512425082
    Total Energy =                       -514.5815701143437764
  Basis Set: (AUG-CC-PVTZ AUX)
    Blend: AUG-CC-PVTZ-RI
    Molecular point group: c1

    Geometry (in Angstrom), charge = 0, multiplicity = 1:

       Center              X                  Y                   Z               Mass
    ------------   -----------------  -----------------  -----------------  -----------------
         O            2.983408585033    -1.510726038112     0.079096744514    15.994914619570
         N            0.814625585033    -1.076704038112    -0.417915255486    14.003074004430
         C            0.178882585033     1.989029961888    -0.235855255486    12.000000000000
         C            1.668648585033     1.683471961888    -0.347209255486    12.000000000000
         C           -0.784592414967     0.823776961888    -0.098854255486    12.000000000000
         C            2.131063585033     0.663664961888     0.700797744514    12.000000000000
         C           -0.382898314967    -0.523925538112    -0.190367255486    12.000000000000
         C            2.033903585033    -0.730061038112     0.139757744514    12.000000000000
         C           -2.127506414967     1.170760961888     0.128637744514    12.000000000000
         C           -1.509097414967    -1.501153038112    -0.081601255486    12.000000000000
         C           -3.148463414967     0.230631961888     0.218582744514    12.000000000000
         C           -2.832135414967    -1.124659038112     0.110587744514    12.000000000000
         H           -0.131315414967     2.589084961888    -1.101467255486     1.007825032230
         H            0.030886585033     2.633699961888     0.640931744514     1.007825032230
         H            1.913692585033     1.313186961888    -1.348401255486     1.007825032230
         H            2.218814585033     2.622760961888    -0.221693255486     1.007825032230
         H            1.519950585033     0.749009961888     1.609406744514     1.007825032230
         H            3.176333585033     0.803554961888     0.984994744514     1.007825032230
         H            0.829022585033    -2.041186038112    -0.742212255486     1.007825032230
         H           -2.372922414967     2.229617961888     0.204456744514     1.007825032230
         H           -1.249692414967    -2.557223038112    -0.137315255486     1.007825032230
         H           -4.174286414967     0.550031961888     0.382659744514     1.007825032230
         H           -3.606327414967    -1.884732038112     0.178355744514     1.007825032230

  Basis Set: AUG-CC-PVTZ
    Blend: AUG-CC-PVTZ
  Basis Set: (AUG-CC-PVTZ AUX)
    Blend: AUG-CC-PVTZ-JKFIT
	 Reference Energy          =    -514.5815701143437764 [Eh]
	 Singles Energy            =      -0.0000000000000000 [Eh]
	 Same-Spin Energy          =      -0.5587850720971212 [Eh]
	 Opposite-Spin Energy      =      -1.7446556120157768 [Eh]
	 Correlation Energy        =      -2.3034406841128980 [Eh]
	 Total Energy              =    -516.8850107984566193 [Eh]

	 ================> DF-SCS-MP2 Energies <==================
	-----------------------------------------------------------
	 SCS Same-Spin Scale       =       0.3333333333333333 [-]
	 SCS Opposite-Spin Scale   =       1.2000000000000000 [-]
	 SCS Same-Spin Energy      =      -0.1862616906990404 [Eh]
	 SCS Opposite-Spin Energy  =      -2.0935867344189321 [Eh]
	 SCS Correlation Energy    =      -2.2798484251179723 [Eh]
	 SCS Total Energy          =    -516.8614185394617380 [Eh]
	-----------------------------------------------------------

  Dipole Moment: [D]
     X:    -2.2901      Y:     1.9294      Z:    -0.0197     Total:     2.9946

*** Psi4 exiting successfully. Buy a developer a beer!
