                               Psi4 1.3.2 release

  ==> Input File <==

--------------------------------------------------------------------------
#psi4
#
memory 32 gb

molecule  {
0 1
  O        3.0005300    -1.5493530     0.0754490
  N        0.8317470    -1.1153310    -0.4215630
  C        0.1960040     1.9504030    -0.2395030
  C        1.4903717     1.6849221    -0.3362518
  C       -0.7674710     0.7851500    -0.1025020
  C        2.1481850     0.6250380     0.6971500
  C       -0.4596220    -0.5879500    -0.1790540
  C        2.0510250    -0.7686880     0.1361100
  C       -2.1103850     1.1321340     0.1249900
  C       -1.4919760    -1.5397800    -0.0852490
  C       -3.1313420     0.1920050     0.2149350
  C       -2.8150140    -1.1632860     0.1069400
  H       -0.1141940     2.5504580    -1.1051150
  H        0.0480080     2.5950730     0.6372840
  H        1.9308140     1.2745600    -1.3520490
  H        2.2359360     2.5841340    -0.2253410
  H        1.5370720     0.7103830     1.6057590
  H        3.1934550     0.7649280     0.9813470
  H        0.8461440    -2.0798130    -0.7458600
  H       -2.3558010     2.1909910     0.2008090
  H       -1.2325710    -2.5958500    -0.1409630
  H       -4.1571650     0.5114050     0.3790120
  H       -3.5892060    -1.9233590     0.1747080
units angstrom
no_reorient  #important for SAPT in psi4, default
symmetry c1  #important for SAPT in psi4, default
}

set PROPERTIES_ORIGIN ["COM"]
properties('MP2/aug-cc-pvtz', properties = ['dipole'])
--------------------------------------------------------------------------

    Molecular point group: c1
  Charge       = 0
  Multiplicity = 1
  Basis Set: AUG-CC-PVTZ
    Blend: AUG-CC-PVTZ
  Basis Set: (AUG-CC-PVTZ AUX)
    Blend: AUG-CC-PVTZ-JKFIT

    Orbital Energies [Eh]
    ---------------------

    Doubly Occupied:

       1A    -20.524846     2A    -15.595255     3A    -11.355896
       4A    -11.298974     5A    -11.256393     6A    -11.252011
       7A    -11.247818     8A    -11.246731     9A    -11.246598
      10A    -11.245328    11A    -11.240729    12A    -11.236729
      13A     -1.379222    14A     -1.253349    15A     -1.156529
      16A     -1.124357    17A     -1.033001    18A     -1.019161
      19A     -0.975612    20A     -0.874051    21A     -0.844080
      22A     -0.799130    23A     -0.766943    24A     -0.721750
      25A     -0.684270    26A     -0.675325    27A     -0.648852
      28A     -0.634707    29A     -0.622266    30A     -0.610179
      31A     -0.600891    32A     -0.584971    33A     -0.561760
      34A     -0.542323    35A     -0.534296    36A     -0.512441
      37A     -0.506366    38A     -0.463456    39A     -0.458145
      40A     -0.432737    41A     -0.421643    42A     -0.341644
      43A     -0.316629

  @DF-RHF Final Energy:  -514.54468739845299

   => Energetics <=

    Nuclear Repulsion Energy =            677.0275868226829061
    One-Electron Energy =               -2041.4497574284755501
    Two-Electron Energy =                 849.8774832073396510
    Total Energy =                       -514.5446873984529930
  Basis Set: (AUG-CC-PVTZ AUX)
    Blend: AUG-CC-PVTZ-RI
    Molecular point group: c1

    Geometry (in Angstrom), charge = 0, multiplicity = 1:

       Center              X                  Y                   Z               Mass
    ------------   -----------------  -----------------  -----------------  -----------------
         O            3.004955848706    -1.511819598801     0.076894202616    15.994914619570
         N            0.836172848706    -1.077797598801    -0.420117797384    14.003074004430
         C            0.200429848706     1.987936401199    -0.238057797384    12.000000000000
         C            1.494797548706     1.722455501199    -0.334806597384    12.000000000000
         C           -0.763045151294     0.822683401199    -0.101056797384    12.000000000000
         C            2.152610848706     0.662571401199     0.698595202616    12.000000000000
         C           -0.455196151294    -0.550416598801    -0.177608797384    12.000000000000
         C            2.055450848706    -0.731154598801     0.137555202616    12.000000000000
         C           -2.105959151294     1.169667401199     0.126435202616    12.000000000000
         C           -1.487550151294    -1.502246598801    -0.083803797384    12.000000000000
         C           -3.126916151294     0.229538401199     0.216380202616    12.000000000000
         C           -2.810588151294    -1.125752598801     0.108385202616    12.000000000000
         H           -0.109768151294     2.587991401199    -1.103669797384     1.007825032230
         H            0.052433848706     2.632606401199     0.638729202616     1.007825032230
         H            1.935239848706     1.312093401199    -1.350603797384     1.007825032230
         H            2.240361848706     2.621667401199    -0.223895797384     1.007825032230
         H            1.541497848706     0.747916401199     1.607204202616     1.007825032230
         H            3.197880848706     0.802461401199     0.982792202616     1.007825032230
         H            0.850569848706    -2.042279598801    -0.744414797384     1.007825032230
         H           -2.351375151294     2.228524401199     0.202254202616     1.007825032230
         H           -1.228145151294    -2.558316598801    -0.139517797384     1.007825032230
         H           -4.152739151294     0.548938401199     0.380457202616     1.007825032230
         H           -3.584780151294    -1.885825598801     0.176153202616     1.007825032230

  Basis Set: AUG-CC-PVTZ
    Blend: AUG-CC-PVTZ
  Basis Set: (AUG-CC-PVTZ AUX)
    Blend: AUG-CC-PVTZ-JKFIT
	 Reference Energy          =    -514.5446873984529930 [Eh]
	 Singles Energy            =      -0.0000000000000000 [Eh]
	 Same-Spin Energy          =      -0.5605724413027610 [Eh]
	 Opposite-Spin Energy      =      -1.7467922022638580 [Eh]
	 Correlation Energy        =      -2.3073646435666189 [Eh]
	 Total Energy              =    -516.8520520420196362 [Eh]

	 ================> DF-SCS-MP2 Energies <==================
	-----------------------------------------------------------
	 SCS Same-Spin Scale       =       0.3333333333333333 [-]
	 SCS Opposite-Spin Scale   =       1.2000000000000000 [-]
	 SCS Same-Spin Energy      =      -0.1868574804342537 [Eh]
	 SCS Opposite-Spin Energy  =      -2.0961506427166294 [Eh]
	 SCS Correlation Energy    =      -2.2830081231508830 [Eh]
	 SCS Total Energy          =    -516.8276955216039141 [Eh]
	-----------------------------------------------------------

  Dipole Moment: [D]
     X:    -2.8871      Y:     2.0838      Z:     0.0598     Total:     3.5611

*** Psi4 exiting successfully. Buy a developer a beer!
