                               Psi4 1.4a3.dev225

  ==> Input File <==

--------------------------------------------------------------------------
#psi4
#
memory 32 gb

molecule  {
0 1
  O        3.0005300    -1.5493530     0.0754490
  N        0.8317470    -1.1153310    -0.4215630
  C        0.1960040     1.9504030    -0.2395030
  C        1.7053098     1.6408373    -0.3523175
  C       -0.7674710     0.7851500    -0.1025020
  C        2.1481850     0.6250380     0.6971500
  C       -0.4596220    -0.5879500    -0.1790540
  C        2.0510250    -0.7686880     0.1361100
  C       -2.1103850     1.1321340     0.1249900
  C       -1.4919760    -1.5397800    -0.0852490
  C       -3.1313420     0.1920050     0.2149350
  C       -2.8150140    -1.1632860     0.1069400
  H       -0.1141940     2.5504580    -1.1051150
  H        0.0480080     2.5950730     0.6372840
  H        1.9308140     1.2745600    -1.3520490
  H        2.2359360     2.5841340    -0.2253410
  H        1.5370720     0.7103830     1.6057590
  H        3.1934550     0.7649280     0.9813470
  H        0.8461440    -2.0798130    -0.7458600
  H       -2.3558010     2.1909910     0.2008090
  H       -1.2325710    -2.5958500    -0.1409630
  H       -4.1571650     0.5114050     0.3790120
  H       -3.5892060    -1.9233590     0.1747080
units angstrom
no_reorient  #important for SAPT in psi4, default
symmetry c1  #important for SAPT in psi4, default
}

set PROPERTIES_ORIGIN ["COM"]
properties('MP2/aug-cc-pvtz', properties = ['dipole'])
--------------------------------------------------------------------------

    Molecular point group: c1
  Charge       = 0
  Multiplicity = 1
  Basis Set: AUG-CC-PVTZ
    Blend: AUG-CC-PVTZ
  Basis Set: (AUG-CC-PVTZ AUX)
    Blend: AUG-CC-PVTZ-JKFIT

    Orbital Energies [Eh]
    ---------------------

    Doubly Occupied:

       1A    -20.525716     2A    -15.596216     3A    -11.357099
       4A    -11.297186     5A    -11.255149     6A    -11.246375
       7A    -11.245538     8A    -11.244915     9A    -11.244388
      10A    -11.242599    11A    -11.241719    12A    -11.239792
      13A     -1.380160    14A     -1.253007    15A     -1.151317
      16A     -1.100662    17A     -1.039447    18A     -1.015930
      19A     -0.955423    20A     -0.881138    21A     -0.842747
      22A     -0.809498    23A     -0.765545    24A     -0.721819
      25A     -0.681605    26A     -0.670666    27A     -0.646257
      28A     -0.628917    29A     -0.610326    30A     -0.603384
      31A     -0.600635    32A     -0.578473    33A     -0.564846
      34A     -0.542941    35A     -0.517500    36A     -0.512607
      37A     -0.497844    38A     -0.490995    39A     -0.481984
      40A     -0.435389    41A     -0.425965    42A     -0.340461
      43A     -0.315953

  @DF-RHF Final Energy:  -514.59411795816925

   => Energetics <=

    Nuclear Repulsion Energy =            674.8857109325867896
    One-Electron Energy =               -2037.3593928747741302
    Two-Electron Energy =                 847.8795639840180911
    Total Energy =                       -514.5941179581692495
  Basis Set: (AUG-CC-PVTZ AUX)
    Blend: AUG-CC-PVTZ-RI
    Molecular point group: c1

    Geometry (in Angstrom), charge = 0, multiplicity = 1:

       Center              X                  Y                   Z               Mass
    ------------   -----------------  -----------------  -----------------  -----------------
         O            2.988943978032    -1.508535489952     0.078091021191    15.994914619570
         N            0.820160978032    -1.074513489952    -0.418920978809    14.003074004430
         C            0.184417978032     1.991220510048    -0.236860978809    12.000000000000
         C            1.693723778032     1.681654810048    -0.349675478809    12.000000000000
         C           -0.779057021968     0.825967510048    -0.099859978809    12.000000000000
         C            2.136598978032     0.665855510048     0.699792021191    12.000000000000
         C           -0.471208021968    -0.547132489952    -0.176411978809    12.000000000000
         C            2.039438978032    -0.727870489952     0.138752021191    12.000000000000
         C           -2.121971021968     1.172951510048     0.127632021191    12.000000000000
         C           -1.503562021968    -1.498962489952    -0.082606978809    12.000000000000
         C           -3.142928021968     0.232822510048     0.217577021191    12.000000000000
         C           -2.826600021968    -1.122468489952     0.109582021191    12.000000000000
         H           -0.125780021968     2.591275510048    -1.102472978809     1.007825032230
         H            0.036421978032     2.635890510048     0.639926021191     1.007825032230
         H            1.919227978032     1.315377510048    -1.349406978809     1.007825032230
         H            2.224349978032     2.624951510048    -0.222698978809     1.007825032230
         H            1.525485978032     0.751200510048     1.608401021191     1.007825032230
         H            3.181868978032     0.805745510048     0.983989021191     1.007825032230
         H            0.834557978032    -2.038995489952    -0.743217978809     1.007825032230
         H           -2.367387021968     2.231808510048     0.203451021191     1.007825032230
         H           -1.244157021968    -2.555032489952    -0.138320978809     1.007825032230
         H           -4.168751021968     0.552222510048     0.381654021191     1.007825032230
         H           -3.600792021968    -1.882541489952     0.177350021191     1.007825032230

  Basis Set: AUG-CC-PVTZ
    Blend: AUG-CC-PVTZ
  Basis Set: (AUG-CC-PVTZ AUX)
    Blend: AUG-CC-PVTZ-JKFIT
	 Reference Energy          =    -514.5941179581692495 [Eh]
	 Singles Energy            =      -0.0000000000000000 [Eh]
	 Same-Spin Energy          =      -0.5578092100133503 [Eh]
	 Opposite-Spin Energy      =      -1.7430137524972815 [Eh]
	 Correlation Energy        =      -2.3008229625106318 [Eh]
	 Total Energy              =    -516.8949409206799146 [Eh]

	 ================> DF-SCS-MP2 Energies <==================
	-----------------------------------------------------------
	 SCS Same-Spin Scale       =       0.3333333333333333 [-]
	 SCS Opposite-Spin Scale   =       1.2000000000000000 [-]
	 SCS Same-Spin Energy      =      -0.1859364033377834 [Eh]
	 SCS Opposite-Spin Energy  =      -2.0916165029967377 [Eh]
	 SCS Correlation Energy    =      -2.2775529063345212 [Eh]
	 SCS Total Energy          =    -516.8716708645038125 [Eh]
	-----------------------------------------------------------

  Dipole Moment: [D]
     X:    -2.7323      Y:     2.0584      Z:     0.0338     Total:     3.4210

*** Psi4 exiting successfully. Buy a developer a beer!
