                               Psi4 1.3.2 release

  ==> Input File <==

--------------------------------------------------------------------------
#psi4
#
memory 32 gb

molecule  {
0 1
  O        3.0005300    -1.5493530     0.0754490
  N        0.8317470    -1.1153310    -0.4215630
  C        0.1960040     1.9504030    -0.2395030
  C        1.7088466     1.8024929    -0.3603247
  C       -0.7674710     0.7851500    -0.1025020
  C        2.1481850     0.6250380     0.6971500
  C       -0.4596220    -0.5879500    -0.1790540
  C        2.0510250    -0.7686880     0.1361100
  C       -2.1103850     1.1321340     0.1249900
  C       -1.4919760    -1.5397800    -0.0852490
  C       -3.1313420     0.1920050     0.2149350
  C       -2.8150140    -1.1632860     0.1069400
  H       -0.1141940     2.5504580    -1.1051150
  H        0.0480080     2.5950730     0.6372840
  H        1.9308140     1.2745600    -1.3520490
  H        2.2359360     2.5841340    -0.2253410
  H        1.5370720     0.7103830     1.6057590
  H        3.1934550     0.7649280     0.9813470
  H        0.8461440    -2.0798130    -0.7458600
  H       -2.3558010     2.1909910     0.2008090
  H       -1.2325710    -2.5958500    -0.1409630
  H       -4.1571650     0.5114050     0.3790120
  H       -3.5892060    -1.9233590     0.1747080
units angstrom
no_reorient  #important for SAPT in psi4, default
symmetry c1  #important for SAPT in psi4, default
}

set PROPERTIES_ORIGIN ["COM"]
properties('MP2/aug-cc-pvtz', properties = ['dipole'])
--------------------------------------------------------------------------

    Molecular point group: c1
  Charge       = 0
  Multiplicity = 1
  Basis Set: AUG-CC-PVTZ
    Blend: AUG-CC-PVTZ
  Basis Set: (AUG-CC-PVTZ AUX)
    Blend: AUG-CC-PVTZ-JKFIT

    Orbital Energies [Eh]
    ---------------------

    Doubly Occupied:

       1A    -20.525655     2A    -15.596512     3A    -11.357838
       4A    -11.297950     5A    -11.258762     6A    -11.247177
       7A    -11.246538     8A    -11.245704     9A    -11.244867
      10A    -11.244704    11A    -11.242877    12A    -11.240667
      13A     -1.379715    14A     -1.252626    15A     -1.152285
      16A     -1.094495    17A     -1.033634    18A     -1.017055
      19A     -0.958437    20A     -0.888440    21A     -0.843683
      22A     -0.813362    23A     -0.764981    24A     -0.720285
      25A     -0.675373    26A     -0.671738    27A     -0.659078
      28A     -0.627573    29A     -0.611792    30A     -0.607063
      31A     -0.598132    32A     -0.581309    33A     -0.566468
      34A     -0.548193    35A     -0.519015    36A     -0.507899
      37A     -0.500269    38A     -0.488357    39A     -0.462969
      40A     -0.435007    41A     -0.425709    42A     -0.341126
      43A     -0.316682

  @DF-RHF Final Energy:  -514.56464035283818

   => Energetics <=

    Nuclear Repulsion Energy =            672.5830490070434280
    One-Electron Energy =               -2032.6713809282573493
    Two-Electron Energy =                 845.5236915683757388
    Total Energy =                       -514.5646403528381825
  Basis Set: (AUG-CC-PVTZ AUX)
    Blend: AUG-CC-PVTZ-RI
    Molecular point group: c1

    Geometry (in Angstrom), charge = 0, multiplicity = 1:

       Center              X                  Y                   Z               Mass
    ------------   -----------------  -----------------  -----------------  -----------------
         O            2.988680503180    -1.520578066679     0.078687519676    15.994914619570
         N            0.819897503180    -1.086556066679    -0.418324480324    14.003074004430
         C            0.184154503180     1.979177933321    -0.236264480324    12.000000000000
         C            1.696997103180     1.831267833321    -0.357086180324    12.000000000000
         C           -0.779320496820     0.813924933321    -0.099263480324    12.000000000000
         C            2.136335503180     0.653812933321     0.700388519676    12.000000000000
         C           -0.471471496820    -0.559175066679    -0.175815480324    12.000000000000
         C            2.039175503180    -0.739913066679     0.139348519676    12.000000000000
         C           -2.122234496820     1.160908933321     0.128228519676    12.000000000000
         C           -1.503825496820    -1.511005066679    -0.082010480324    12.000000000000
         C           -3.143191496820     0.220779933321     0.218173519676    12.000000000000
         C           -2.826863496820    -1.134511066679     0.110178519676    12.000000000000
         H           -0.126043496820     2.579232933321    -1.101876480324     1.007825032230
         H            0.036158503180     2.623847933321     0.640522519676     1.007825032230
         H            1.918964503180     1.303334933321    -1.348810480324     1.007825032230
         H            2.224086503180     2.612908933321    -0.222102480324     1.007825032230
         H            1.525222503180     0.739157933321     1.608997519676     1.007825032230
         H            3.181605503180     0.793702933321     0.984585519676     1.007825032230
         H            0.834294503180    -2.051038066679    -0.742621480324     1.007825032230
         H           -2.367650496820     2.219765933321     0.204047519676     1.007825032230
         H           -1.244420496820    -2.567075066679    -0.137724480324     1.007825032230
         H           -4.169014496820     0.540179933321     0.382250519676     1.007825032230
         H           -3.601055496820    -1.894584066679     0.177946519676     1.007825032230

  Basis Set: AUG-CC-PVTZ
    Blend: AUG-CC-PVTZ
  Basis Set: (AUG-CC-PVTZ AUX)
    Blend: AUG-CC-PVTZ-JKFIT
	 Reference Energy          =    -514.5646403528381825 [Eh]
	 Singles Energy            =      -0.0000000000000000 [Eh]
	 Same-Spin Energy          =      -0.5578310305502313 [Eh]
	 Opposite-Spin Energy      =      -1.7440542493659272 [Eh]
	 Correlation Energy        =      -2.3018852799161587 [Eh]
	 Total Energy              =    -516.8665256327543602 [Eh]

	 ================> DF-SCS-MP2 Energies <==================
	-----------------------------------------------------------
	 SCS Same-Spin Scale       =       0.3333333333333333 [-]
	 SCS Opposite-Spin Scale   =       1.2000000000000000 [-]
	 SCS Same-Spin Energy      =      -0.1859436768500771 [Eh]
	 SCS Opposite-Spin Energy  =      -2.0928650992391127 [Eh]
	 SCS Correlation Energy    =      -2.2788087760891900 [Eh]
	 SCS Total Energy          =    -516.8434491289273183 [Eh]
	-----------------------------------------------------------

  Dipole Moment: [D]
     X:    -2.7938      Y:     2.0913      Z:     0.0346     Total:     3.4900

*** Psi4 exiting successfully. Buy a developer a beer!
