                               Psi4 1.3.2 release

  ==> Input File <==

--------------------------------------------------------------------------
#psi4
#
memory 32 gb

molecule  {
0 1
  O        3.0005300    -1.5493530     0.0754490
  N        0.8317470    -1.1153310    -0.4215630
  C        0.1960040     1.9504030    -0.2395030
  C        1.6857700     1.6448450    -0.3508570
  C       -0.7674710     0.7851500    -0.1025020
  C        2.1481850     0.6250380     0.6971500
  C       -0.4596220    -0.5879500    -0.1790540
  C        2.0510250    -0.7686880     0.1361100
  C       -2.1103850     1.1321340     0.1249900
  C       -1.4919760    -1.5397800    -0.0852490
  C       -3.1313420     0.1920050     0.2149350
  C       -2.8150140    -1.1632860     0.1069400
  H       -0.1141940     2.5504580    -1.1051150
  H        0.0480080     2.5950730     0.6372840
  H        1.9308140     1.2745600    -1.3520490
  H        2.2359360     2.5841340    -0.2253410
  H        1.5370720     0.7103830     1.6057590
  H        3.1934550     0.7649280     0.9813470
  H        0.8447293    -1.9850371    -0.7139926
  H       -2.3558010     2.1909910     0.2008090
  H       -1.2325710    -2.5958500    -0.1409630
  H       -4.1571650     0.5114050     0.3790120
  H       -3.5892060    -1.9233590     0.1747080
units angstrom
no_reorient  #important for SAPT in psi4, default
symmetry c1  #important for SAPT in psi4, default
}

set PROPERTIES_ORIGIN ["COM"]
properties('MP2/aug-cc-pvtz', properties = ['dipole'])
--------------------------------------------------------------------------

    Molecular point group: c1
  Charge       = 0
  Multiplicity = 1
  Basis Set: AUG-CC-PVTZ
    Blend: AUG-CC-PVTZ
  Basis Set: (AUG-CC-PVTZ AUX)
    Blend: AUG-CC-PVTZ-JKFIT

    Orbital Energies [Eh]
    ---------------------

    Doubly Occupied:

       1A    -20.526649     2A    -15.586666     3A    -11.357488
       4A    -11.297482     5A    -11.255493     6A    -11.246819
       7A    -11.245289     8A    -11.245233     9A    -11.244921
      10A    -11.242944    11A    -11.242341    12A    -11.240264
      13A     -1.382670    14A     -1.263586    15A     -1.154265
      16A     -1.102833    17A     -1.039241    18A     -1.017683
      19A     -0.960528    20A     -0.881726    21A     -0.846155
      22A     -0.809873    23A     -0.777569    24A     -0.728610
      25A     -0.683855    26A     -0.672044    27A     -0.647905
      28A     -0.630231    29A     -0.612340    30A     -0.603708
      31A     -0.602369    32A     -0.581247    33A     -0.567013
      34A     -0.542651    35A     -0.518040    36A     -0.511242
      37A     -0.498534    38A     -0.492719    39A     -0.483176
      40A     -0.436709    41A     -0.426460    42A     -0.340858
      43A     -0.316961

  @DF-RHF Final Energy:  -514.58851918575124

   => Energetics <=

    Nuclear Repulsion Energy =            675.7549751426258808
    One-Electron Energy =               -2038.9581979966008021
    Two-Electron Energy =                 848.6147036682236831
    Total Energy =                       -514.5885191857512382
  Basis Set: (AUG-CC-PVTZ AUX)
    Blend: AUG-CC-PVTZ-RI
    Molecular point group: c1

    Geometry (in Angstrom), charge = 0, multiplicity = 1:

       Center              X                  Y                   Z               Mass
    ------------   -----------------  -----------------  -----------------  -----------------
         O            2.990408451701    -1.509427011564     0.077782841957    15.994914619570
         N            0.821625451701    -1.075405011564    -0.419229158043    14.003074004430
         C            0.185882451701     1.990328988436    -0.237169158043    12.000000000000
         C            1.675648451701     1.684770988436    -0.348523158043    12.000000000000
         C           -0.777592548299     0.825075988436    -0.100168158043    12.000000000000
         C            2.138063451701     0.664963988436     0.699483841957    12.000000000000
         C           -0.469743548299    -0.548024011564    -0.176720158043    12.000000000000
         C            2.040903451701    -0.728762011564     0.138443841957    12.000000000000
         C           -2.120506548299     1.172059988436     0.127323841957    12.000000000000
         C           -1.502097548299    -1.499854011564    -0.082915158043    12.000000000000
         C           -3.141463548299     0.231930988436     0.217268841957    12.000000000000
         C           -2.825135548299    -1.123360011564     0.109273841957    12.000000000000
         H           -0.124315548299     2.590383988436    -1.102781158043     1.007825032230
         H            0.037886451701     2.634998988436     0.639617841957     1.007825032230
         H            1.920692451701     1.314485988436    -1.349715158043     1.007825032230
         H            2.225814451701     2.624059988436    -0.223007158043     1.007825032230
         H            1.526950451701     0.750308988436     1.608092841957     1.007825032230
         H            3.183333451701     0.804853988436     0.983680841957     1.007825032230
         H            0.834607751701    -1.945111111564    -0.711658758043     1.007825032230
         H           -2.365922548299     2.230916988436     0.203142841957     1.007825032230
         H           -1.242692548299    -2.555924011564    -0.138629158043     1.007825032230
         H           -4.167286548299     0.551330988436     0.381345841957     1.007825032230
         H           -3.599327548299    -1.883433011564     0.177041841957     1.007825032230

  Basis Set: AUG-CC-PVTZ
    Blend: AUG-CC-PVTZ
  Basis Set: (AUG-CC-PVTZ AUX)
    Blend: AUG-CC-PVTZ-JKFIT
	 Reference Energy          =    -514.5885191857512382 [Eh]
	 Singles Energy            =      -0.0000000000000000 [Eh]
	 Same-Spin Energy          =      -0.5569979554783013 [Eh]
	 Opposite-Spin Energy      =      -1.7412298679448330 [Eh]
	 Correlation Energy        =      -2.2982278234231344 [Eh]
	 Total Energy              =    -516.8867470091744281 [Eh]

	 ================> DF-SCS-MP2 Energies <==================
	-----------------------------------------------------------
	 SCS Same-Spin Scale       =       0.3333333333333333 [-]
	 SCS Opposite-Spin Scale   =       1.2000000000000000 [-]
	 SCS Same-Spin Energy      =      -0.1856659851594338 [Eh]
	 SCS Opposite-Spin Energy  =      -2.0894758415337997 [Eh]
	 SCS Correlation Energy    =      -2.2751418266932335 [Eh]
	 SCS Total Energy          =    -516.8636610124444815 [Eh]
	-----------------------------------------------------------

  Dipole Moment: [D]
     X:    -2.7480      Y:     2.1359      Z:     0.0663     Total:     3.4811

*** Psi4 exiting successfully. Buy a developer a beer!
