                               Psi4 1.3.2 release

  ==> Input File <==

--------------------------------------------------------------------------
#psi4
#
memory 32 gb

molecule  {
0 1
  O        3.0005300    -1.5493530     0.0754490
  N        0.8692901    -1.2021944    -0.4412758
  C        0.1960040     1.9504030    -0.2395030
  C        1.6857700     1.6448450    -0.3508570
  C       -0.7674710     0.7851500    -0.1025020
  C        2.1481850     0.6250380     0.6971500
  C       -0.4596220    -0.5879500    -0.1790540
  C        2.0510250    -0.7686880     0.1361100
  C       -2.1103850     1.1321340     0.1249900
  C       -1.4919760    -1.5397800    -0.0852490
  C       -3.1313420     0.1920050     0.2149350
  C       -2.8150140    -1.1632860     0.1069400
  H       -0.1141940     2.5504580    -1.1051150
  H        0.0480080     2.5950730     0.6372840
  H        1.9308140     1.2745600    -1.3520490
  H        2.2359360     2.5841340    -0.2253410
  H        1.5370720     0.7103830     1.6057590
  H        3.1934550     0.7649280     0.9813470
  H        0.8461440    -2.0798130    -0.7458600
  H       -2.3558010     2.1909910     0.2008090
  H       -1.2325710    -2.5958500    -0.1409630
  H       -4.1571650     0.5114050     0.3790120
  H       -3.5892060    -1.9233590     0.1747080
units angstrom
no_reorient  #important for SAPT in psi4, default
symmetry c1  #important for SAPT in psi4, default
}

set PROPERTIES_ORIGIN ["COM"]
properties('MP2/aug-cc-pvtz', properties = ['dipole'])
--------------------------------------------------------------------------

    Molecular point group: c1
  Charge       = 0
  Multiplicity = 1
  Basis Set: AUG-CC-PVTZ
    Blend: AUG-CC-PVTZ
  Basis Set: (AUG-CC-PVTZ AUX)
    Blend: AUG-CC-PVTZ-JKFIT

    Orbital Energies [Eh]
    ---------------------

    Doubly Occupied:

       1A    -20.518390     2A    -15.587603     3A    -11.353183
       4A    -11.300193     5A    -11.259409     6A    -11.247183
       7A    -11.246670     8A    -11.246187     9A    -11.245768
      10A    -11.245745    11A    -11.243391    12A    -11.242270
      13A     -1.377544    14A     -1.240586    15A     -1.154363
      16A     -1.103080    17A     -1.039066    18A     -1.016566
      19A     -0.961653    20A     -0.877108    21A     -0.841390
      22A     -0.806272    23A     -0.781288    24A     -0.716596
      25A     -0.682885    26A     -0.669462    27A     -0.648105
      28A     -0.628764    29A     -0.612684    30A     -0.602543
      31A     -0.600954    32A     -0.578633    33A     -0.565599
      34A     -0.541163    35A     -0.516869    36A     -0.511305
      37A     -0.498598    38A     -0.494325    39A     -0.482925
      40A     -0.428718    41A     -0.421319    42A     -0.341508
      43A     -0.321376

  @DF-RHF Final Energy:  -514.58438768293627

   => Energetics <=

    Nuclear Repulsion Energy =            673.5118944295528536
    One-Electron Energy =               -2034.5940844603683217
    Two-Electron Energy =                 846.4978023478793148
    Total Energy =                       -514.5843876829362671
  Basis Set: (AUG-CC-PVTZ AUX)
    Blend: AUG-CC-PVTZ-RI
    Molecular point group: c1

    Geometry (in Angstrom), charge = 0, multiplicity = 1:

       Center              X                  Y                   Z               Mass
    ------------   -----------------  -----------------  -----------------  -----------------
         O            2.987135970459    -1.501282989675     0.079695859006    15.994914619570
         N            0.855896070459    -1.154124389675    -0.437028940994    14.003074004430
         C            0.182609970459     1.998473010325    -0.235256140994    12.000000000000
         C            1.672375970459     1.692915010325    -0.346610140994    12.000000000000
         C           -0.780865029541     0.833220010325    -0.098255140994    12.000000000000
         C            2.134790970459     0.673108010325     0.701396859006    12.000000000000
         C           -0.473016029541    -0.539879989675    -0.174807140994    12.000000000000
         C            2.037630970459    -0.720617989675     0.140356859006    12.000000000000
         C           -2.123779029541     1.180204010325     0.129236859006    12.000000000000
         C           -1.505370029541    -1.491709989675    -0.081002140994    12.000000000000
         C           -3.144736029541     0.240075010325     0.219181859006    12.000000000000
         C           -2.828408029541    -1.115215989675     0.111186859006    12.000000000000
         H           -0.127588029541     2.598528010325    -1.100868140994     1.007825032230
         H            0.034613970459     2.643143010325     0.641530859006     1.007825032230
         H            1.917419970459     1.322630010325    -1.347802140994     1.007825032230
         H            2.222541970459     2.632204010325    -0.221094140994     1.007825032230
         H            1.523677970459     0.758453010325     1.610005859006     1.007825032230
         H            3.180060970459     0.812998010325     0.985593859006     1.007825032230
         H            0.832749970459    -2.031742989675    -0.741613140994     1.007825032230
         H           -2.369195029541     2.239061010325     0.205055859006     1.007825032230
         H           -1.245965029541    -2.547779989675    -0.136716140994     1.007825032230
         H           -4.170559029541     0.559475010325     0.383258859006     1.007825032230
         H           -3.602600029541    -1.875288989675     0.178954859006     1.007825032230

  Basis Set: AUG-CC-PVTZ
    Blend: AUG-CC-PVTZ
  Basis Set: (AUG-CC-PVTZ AUX)
    Blend: AUG-CC-PVTZ-JKFIT
	 Reference Energy          =    -514.5843876829362671 [Eh]
	 Singles Energy            =      -0.0000000000000000 [Eh]
	 Same-Spin Energy          =      -0.5564882664088886 [Eh]
	 Opposite-Spin Energy      =      -1.7414726517702093 [Eh]
	 Correlation Energy        =      -2.2979609181790979 [Eh]
	 Total Energy              =    -516.8823486011153818 [Eh]

	 ================> DF-SCS-MP2 Energies <==================
	-----------------------------------------------------------
	 SCS Same-Spin Scale       =       0.3333333333333333 [-]
	 SCS Opposite-Spin Scale   =       1.2000000000000000 [-]
	 SCS Same-Spin Energy      =      -0.1854960888029629 [Eh]
	 SCS Opposite-Spin Energy  =      -2.0897671821242509 [Eh]
	 SCS Correlation Energy    =      -2.2752632709272138 [Eh]
	 SCS Total Energy          =    -516.8596509538634791 [Eh]
	-----------------------------------------------------------

  Dipole Moment: [D]
     X:    -2.9333      Y:     2.2346      Z:     0.0771     Total:     3.6883

*** Psi4 exiting successfully. Buy a developer a beer!
