                               Psi4 1.3.2 release

  ==> Input File <==

--------------------------------------------------------------------------
#psi4
#
memory 32 gb

molecule  {
0 1
  O        3.0005300    -1.5493530     0.0754490
  N        0.8317470    -1.1153310    -0.4215630
  C        0.1960040     1.9504030    -0.2395030
  C        1.7029873     1.7496777    -0.3573110
  C       -0.7674710     0.7851500    -0.1025020
  C        2.1481850     0.6250380     0.6971500
  C       -0.4596220    -0.5879500    -0.1790540
  C        2.0510250    -0.7686880     0.1361100
  C       -2.1103850     1.1321340     0.1249900
  C       -1.4919760    -1.5397800    -0.0852490
  C       -3.1313420     0.1920050     0.2149350
  C       -2.8150140    -1.1632860     0.1069400
  H       -0.1141940     2.5504580    -1.1051150
  H        0.0480080     2.5950730     0.6372840
  H        1.9308140     1.2745600    -1.3520490
  H        2.2359360     2.5841340    -0.2253410
  H        1.5370720     0.7103830     1.6057590
  H        3.1934550     0.7649280     0.9813470
  H        0.8461440    -2.0798130    -0.7458600
  H       -2.3558010     2.1909910     0.2008090
  H       -1.2325710    -2.5958500    -0.1409630
  H       -4.1571650     0.5114050     0.3790120
  H       -3.5892060    -1.9233590     0.1747080
units angstrom
no_reorient  #important for SAPT in psi4, default
symmetry c1  #important for SAPT in psi4, default
}

set PROPERTIES_ORIGIN ["COM"]
properties('MP2/aug-cc-pvtz', properties = ['dipole'])
--------------------------------------------------------------------------

    Molecular point group: c1
  Charge       = 0
  Multiplicity = 1
  Basis Set: AUG-CC-PVTZ
    Blend: AUG-CC-PVTZ
  Basis Set: (AUG-CC-PVTZ AUX)
    Blend: AUG-CC-PVTZ-JKFIT

    Orbital Energies [Eh]
    ---------------------

    Doubly Occupied:

       1A    -20.525633     2A    -15.596330     3A    -11.357521
       4A    -11.297651     5A    -11.257462     6A    -11.246868
       7A    -11.245955     8A    -11.245031     9A    -11.244663
      10A    -11.244001    11A    -11.241895    12A    -11.240332
      13A     -1.379794    14A     -1.252654    15A     -1.151941
      16A     -1.096304    17A     -1.035144    18A     -1.016642
      19A     -0.957836    20A     -0.885218    21A     -0.843294
      22A     -0.811128    23A     -0.765078    24A     -0.720643
      25A     -0.677182    26A     -0.671428    27A     -0.654102
      28A     -0.628005    29A     -0.609513    30A     -0.606691
      31A     -0.599205    32A     -0.580365    33A     -0.565478
      34A     -0.547040    35A     -0.518092    36A     -0.507418
      37A     -0.497031    38A     -0.492328    39A     -0.473317
      40A     -0.435161    41A     -0.426305    42A     -0.340882
      43A     -0.316396

  @DF-RHF Final Energy:  -514.58203076723657

   => Energetics <=

    Nuclear Repulsion Energy =            673.3828245882800729
    One-Electron Energy =               -2034.3197975329846940
    Two-Electron Energy =                 846.3549421774680468
    Total Energy =                       -514.5820307672365743
  Basis Set: (AUG-CC-PVTZ AUX)
    Blend: AUG-CC-PVTZ-RI
    Molecular point group: c1

    Geometry (in Angstrom), charge = 0, multiplicity = 1:

       Center              X                  Y                   Z               Mass
    ------------   -----------------  -----------------  -----------------  -----------------
         O            2.989116993285    -1.516643584370     0.078463013296    15.994914619570
         N            0.820333993285    -1.082621584370    -0.418548986704    14.003074004430
         C            0.184590993285     1.983112415630    -0.236488986704    12.000000000000
         C            1.691574293285     1.782387115630    -0.354296986704    12.000000000000
         C           -0.778884006715     0.817859415630    -0.099487986704    12.000000000000
         C            2.136771993285     0.657747415630     0.700164013296    12.000000000000
         C           -0.471035006715    -0.555240584370    -0.176039986704    12.000000000000
         C            2.039611993285    -0.735978584370     0.139124013296    12.000000000000
         C           -2.121798006715     1.164843415630     0.128004013296    12.000000000000
         C           -1.503389006715    -1.507070584370    -0.082234986704    12.000000000000
         C           -3.142755006715     0.224714415630     0.217949013296    12.000000000000
         C           -2.826427006715    -1.130576584370     0.109954013296    12.000000000000
         H           -0.125607006715     2.583167415630    -1.102100986704     1.007825032230
         H            0.036594993285     2.627782415630     0.640298013296     1.007825032230
         H            1.919400993285     1.307269415630    -1.349034986704     1.007825032230
         H            2.224522993285     2.616843415630    -0.222326986704     1.007825032230
         H            1.525658993285     0.743092415630     1.608773013296     1.007825032230
         H            3.182041993285     0.797637415630     0.984361013296     1.007825032230
         H            0.834730993285    -2.047103584370    -0.742845986704     1.007825032230
         H           -2.367214006715     2.223700415630     0.203823013296     1.007825032230
         H           -1.243984006715    -2.563140584370    -0.137948986704     1.007825032230
         H           -4.168578006715     0.544114415630     0.382026013296     1.007825032230
         H           -3.600619006715    -1.890649584370     0.177722013296     1.007825032230

  Basis Set: AUG-CC-PVTZ
    Blend: AUG-CC-PVTZ
  Basis Set: (AUG-CC-PVTZ AUX)
    Blend: AUG-CC-PVTZ-JKFIT
	 Reference Energy          =    -514.5820307672365743 [Eh]
	 Singles Energy            =      -0.0000000000000000 [Eh]
	 Same-Spin Energy          =      -0.5576740232736324 [Eh]
	 Opposite-Spin Energy      =      -1.7433260142186551 [Eh]
	 Correlation Energy        =      -2.3010000374922877 [Eh]
	 Total Energy              =    -516.8830308047288327 [Eh]

	 ================> DF-SCS-MP2 Energies <==================
	-----------------------------------------------------------
	 SCS Same-Spin Scale       =       0.3333333333333333 [-]
	 SCS Opposite-Spin Scale   =       1.2000000000000000 [-]
	 SCS Same-Spin Energy      =      -0.1858913410912108 [Eh]
	 SCS Opposite-Spin Energy  =      -2.0919912170623860 [Eh]
	 SCS Correlation Energy    =      -2.2778825581535966 [Eh]
	 SCS Total Energy          =    -516.8599133253901527 [Eh]
	-----------------------------------------------------------

  Dipole Moment: [D]
     X:    -2.7667      Y:     2.0896      Z:     0.0315     Total:     3.4673

*** Psi4 exiting successfully. Buy a developer a beer!
