                               Psi4 1.3.2 release

  ==> Input File <==

--------------------------------------------------------------------------
#psi4
#
memory 32 gb

molecule  {
0 1
  O        3.0005300    -1.5493530     0.0754490
  N        0.8317470    -1.1153310    -0.4215630
  C        0.1960040     1.9504030    -0.2395030
  C        1.6857700     1.6448450    -0.3508570
  C       -0.7674710     0.7851500    -0.1025020
  C        2.1481850     0.6250380     0.6971500
  C       -0.4596220    -0.5879500    -0.1790540
  C        2.0334914    -0.7245056     0.1448868
  C       -2.1103850     1.1321340     0.1249900
  C       -1.4919760    -1.5397800    -0.0852490
  C       -3.1313420     0.1920050     0.2149350
  C       -2.8150140    -1.1632860     0.1069400
  H       -0.1141940     2.5504580    -1.1051150
  H        0.0480080     2.5950730     0.6372840
  H        1.9308140     1.2745600    -1.3520490
  H        2.2359360     2.5841340    -0.2253410
  H        1.5370720     0.7103830     1.6057590
  H        3.1934550     0.7649280     0.9813470
  H        0.8461440    -2.0798130    -0.7458600
  H       -2.3558010     2.1909910     0.2008090
  H       -1.2325710    -2.5958500    -0.1409630
  H       -4.1571650     0.5114050     0.3790120
  H       -3.5892060    -1.9233590     0.1747080
units angstrom
no_reorient  #important for SAPT in psi4, default
symmetry c1  #important for SAPT in psi4, default
}

set PROPERTIES_ORIGIN ["COM"]
properties('MP2/aug-cc-pvtz', properties = ['dipole'])
--------------------------------------------------------------------------

    Molecular point group: c1
  Charge       = 0
  Multiplicity = 1
  Basis Set: AUG-CC-PVTZ
    Blend: AUG-CC-PVTZ
  Basis Set: (AUG-CC-PVTZ AUX)
    Blend: AUG-CC-PVTZ-JKFIT

    Orbital Energies [Eh]
    ---------------------

    Doubly Occupied:

       1A    -20.519899     2A    -15.599401     3A    -11.360078
       4A    -11.297496     5A    -11.256275     6A    -11.247317
       7A    -11.246848     8A    -11.246059     9A    -11.245366
      10A    -11.245155    11A    -11.244491    12A    -11.240640
      13A     -1.357189    14A     -1.249114    15A     -1.151872
      16A     -1.107274    17A     -1.043675    18A     -1.016494
      19A     -0.963136    20A     -0.883049    21A     -0.843571
      22A     -0.811234    23A     -0.768815    24A     -0.722333
      25A     -0.684275    26A     -0.671479    27A     -0.646418
      28A     -0.627711    29A     -0.608793    30A     -0.603716
      31A     -0.602782    32A     -0.577800    33A     -0.561755
      34A     -0.543325    35A     -0.517179    36A     -0.510198
      37A     -0.498111    38A     -0.494165    39A     -0.481325
      40A     -0.429251    41A     -0.425378    42A     -0.341541
      43A     -0.316329

  @DF-RHF Final Energy:  -514.58684216504537

   => Energetics <=

    Nuclear Repulsion Energy =            675.2388267005417219
    One-Electron Energy =               -2038.0347152451820421
    Two-Electron Energy =                 848.2090463795949518
    Total Energy =                       -514.5868421650453683
  Basis Set: (AUG-CC-PVTZ AUX)
    Blend: AUG-CC-PVTZ-RI
    Molecular point group: c1

    Geometry (in Angstrom), charge = 0, multiplicity = 1:

       Center              X                  Y                   Z               Mass
    ------------   -----------------  -----------------  -----------------  -----------------
         O            2.991705770782    -1.512125424211     0.077328390817    15.994914619570
         N            0.822922770782    -1.078103424211    -0.419683609183    14.003074004430
         C            0.187179770782     1.987630575789    -0.237623609183    12.000000000000
         C            1.676945770782     1.682072575789    -0.348977609183    12.000000000000
         C           -0.776295229218     0.822377575789    -0.100622609183    12.000000000000
         C            2.139360770782     0.662265575789     0.699029390817    12.000000000000
         C           -0.468446229218    -0.550722424211    -0.177174609183    12.000000000000
         C            2.024667170782    -0.687278024211     0.146766190817    12.000000000000
         C           -2.119209229218     1.169361575789     0.126869390817    12.000000000000
         C           -1.500800229218    -1.502552424211    -0.083369609183    12.000000000000
         C           -3.140166229218     0.229232575789     0.216814390817    12.000000000000
         C           -2.823838229218    -1.126058424211     0.108819390817    12.000000000000
         H           -0.123018229218     2.587685575789    -1.103235609183     1.007825032230
         H            0.039183770782     2.632300575789     0.639163390817     1.007825032230
         H            1.921989770782     1.311787575789    -1.350169609183     1.007825032230
         H            2.227111770782     2.621361575789    -0.223461609183     1.007825032230
         H            1.528247770782     0.747610575789     1.607638390817     1.007825032230
         H            3.184630770782     0.802155575789     0.983226390817     1.007825032230
         H            0.837319770782    -2.042585424211    -0.743980609183     1.007825032230
         H           -2.364625229218     2.228218575789     0.202688390817     1.007825032230
         H           -1.241395229218    -2.558622424211    -0.139083609183     1.007825032230
         H           -4.165989229218     0.548632575789     0.380891390817     1.007825032230
         H           -3.598030229218    -1.886131424211     0.176587390817     1.007825032230

  Basis Set: AUG-CC-PVTZ
    Blend: AUG-CC-PVTZ
  Basis Set: (AUG-CC-PVTZ AUX)
    Blend: AUG-CC-PVTZ-JKFIT
	 Reference Energy          =    -514.5868421650453683 [Eh]
	 Singles Energy            =      -0.0000000000000000 [Eh]
	 Same-Spin Energy          =      -0.5591346401686947 [Eh]
	 Opposite-Spin Energy      =      -1.7453578600078585 [Eh]
	 Correlation Energy        =      -2.3044925001765533 [Eh]
	 Total Energy              =    -516.8913346652219616 [Eh]

	 ================> DF-SCS-MP2 Energies <==================
	-----------------------------------------------------------
	 SCS Same-Spin Scale       =       0.3333333333333333 [-]
	 SCS Opposite-Spin Scale   =       1.2000000000000000 [-]
	 SCS Same-Spin Energy      =      -0.1863782133895649 [Eh]
	 SCS Opposite-Spin Energy  =      -2.0944294320094303 [Eh]
	 SCS Correlation Energy    =      -2.2808076453989954 [Eh]
	 SCS Total Energy          =    -516.8676498104443908 [Eh]
	-----------------------------------------------------------

  Dipole Moment: [D]
     X:    -2.9068      Y:     2.2744      Z:     0.0536     Total:     3.6912

*** Psi4 exiting successfully. Buy a developer a beer!
