                               Psi4 1.3.2 release

  ==> Input File <==

--------------------------------------------------------------------------
#psi4
#
memory 32 gb

molecule  {
0 1
  O        3.0005300    -1.5493530     0.0754490
  N        0.8317470    -1.1153310    -0.4215630
  C        0.1960040     1.9504030    -0.2395030
  C        1.6612947     1.5415009    -0.3438605
  C       -0.7674710     0.7851500    -0.1025020
  C        2.1481850     0.6250380     0.6971500
  C       -0.4596220    -0.5879500    -0.1790540
  C        2.0510250    -0.7686880     0.1361100
  C       -2.1103850     1.1321340     0.1249900
  C       -1.4919760    -1.5397800    -0.0852490
  C       -3.1313420     0.1920050     0.2149350
  C       -2.8150140    -1.1632860     0.1069400
  H       -0.1141940     2.5504580    -1.1051150
  H        0.0480080     2.5950730     0.6372840
  H        1.9308140     1.2745600    -1.3520490
  H        2.2359360     2.5841340    -0.2253410
  H        1.5370720     0.7103830     1.6057590
  H        3.1934550     0.7649280     0.9813470
  H        0.8461440    -2.0798130    -0.7458600
  H       -2.3558010     2.1909910     0.2008090
  H       -1.2325710    -2.5958500    -0.1409630
  H       -4.1571650     0.5114050     0.3790120
  H       -3.5892060    -1.9233590     0.1747080
units angstrom
no_reorient  #important for SAPT in psi4, default
symmetry c1  #important for SAPT in psi4, default
}

set PROPERTIES_ORIGIN ["COM"]
properties('MP2/aug-cc-pvtz', properties = ['dipole'])
--------------------------------------------------------------------------

    Molecular point group: c1
  Charge       = 0
  Multiplicity = 1
  Basis Set: AUG-CC-PVTZ
    Blend: AUG-CC-PVTZ
  Basis Set: (AUG-CC-PVTZ AUX)
    Blend: AUG-CC-PVTZ-JKFIT

    Orbital Energies [Eh]
    ---------------------

    Doubly Occupied:

       1A    -20.525788     2A    -15.596230     3A    -11.356698
       4A    -11.297363     5A    -11.253467     6A    -11.246572
       7A    -11.246413     8A    -11.245726     9A    -11.244567
      10A    -11.244447    11A    -11.241953    12A    -11.239680
      13A     -1.380613    14A     -1.253921    15A     -1.151498
      16A     -1.109865    17A     -1.043316    18A     -1.016005
      19A     -0.957265    20A     -0.877107    21A     -0.842843
      22A     -0.808451    23A     -0.766531    24A     -0.723265
      25A     -0.687007    26A     -0.670799    27A     -0.641351
      28A     -0.630740    29A     -0.615282    30A     -0.607262
      31A     -0.597860    32A     -0.577868    33A     -0.565630
      34A     -0.537037    35A     -0.524300    36A     -0.514809
      37A     -0.501886    38A     -0.499619    39A     -0.462657
      40A     -0.435442    41A     -0.422960    42A     -0.340515
      43A     -0.315863

  @DF-RHF Final Energy:  -514.58184583998514

   => Energetics <=

    Nuclear Repulsion Energy =            676.8312223181619629
    One-Electron Energy =               -2041.1891957168188583
    Two-Electron Energy =                 849.7761275586717602
    Total Energy =                       -514.5818458399851352
  Basis Set: (AUG-CC-PVTZ AUX)
    Blend: AUG-CC-PVTZ-RI
    Molecular point group: c1

    Geometry (in Angstrom), charge = 0, multiplicity = 1:

       Center              X                  Y                   Z               Mass
    ------------   -----------------  -----------------  -----------------  -----------------
         O            2.992222894562    -1.501135398530     0.077461014737    15.994914619570
         N            0.823439894562    -1.067113398530    -0.419550985263    14.003074004430
         C            0.187696894562     1.998620601470    -0.237490985263    12.000000000000
         C            1.652987594562     1.589718501470    -0.341848485263    12.000000000000
         C           -0.775778105438     0.833367601470    -0.100489985263    12.000000000000
         C            2.139877894562     0.673255601470     0.699162014737    12.000000000000
         C           -0.467929105438    -0.539732398530    -0.177041985263    12.000000000000
         C            2.042717894562    -0.720470398530     0.138122014737    12.000000000000
         C           -2.118692105438     1.180351601470     0.127002014737    12.000000000000
         C           -1.500283105438    -1.491562398530    -0.083236985263    12.000000000000
         C           -3.139649105438     0.240222601470     0.216947014737    12.000000000000
         C           -2.823321105438    -1.115068398530     0.108952014737    12.000000000000
         H           -0.122501105438     2.598675601470    -1.103102985263     1.007825032230
         H            0.039700894562     2.643290601470     0.639296014737     1.007825032230
         H            1.922506894562     1.322777601470    -1.350036985263     1.007825032230
         H            2.227628894562     2.632351601470    -0.223328985263     1.007825032230
         H            1.528764894562     0.758600601470     1.607771014737     1.007825032230
         H            3.185147894562     0.813145601470     0.983359014737     1.007825032230
         H            0.837836894562    -2.031595398530    -0.743847985263     1.007825032230
         H           -2.364108105438     2.239208601470     0.202821014737     1.007825032230
         H           -1.240878105438    -2.547632398530    -0.138950985263     1.007825032230
         H           -4.165472105438     0.559622601470     0.381024014737     1.007825032230
         H           -3.597513105438    -1.875141398530     0.176720014737     1.007825032230

  Basis Set: AUG-CC-PVTZ
    Blend: AUG-CC-PVTZ
  Basis Set: (AUG-CC-PVTZ AUX)
    Blend: AUG-CC-PVTZ-JKFIT
	 Reference Energy          =    -514.5818458399851352 [Eh]
	 Singles Energy            =      -0.0000000000000000 [Eh]
	 Same-Spin Energy          =      -0.5587581545310614 [Eh]
	 Opposite-Spin Energy      =      -1.7442479296068951 [Eh]
	 Correlation Energy        =      -2.3030060841379565 [Eh]
	 Total Energy              =    -516.8848519241230406 [Eh]

	 ================> DF-SCS-MP2 Energies <==================
	-----------------------------------------------------------
	 SCS Same-Spin Scale       =       0.3333333333333333 [-]
	 SCS Opposite-Spin Scale   =       1.2000000000000000 [-]
	 SCS Same-Spin Energy      =      -0.1862527181770204 [Eh]
	 SCS Opposite-Spin Energy  =      -2.0930975155282741 [Eh]
	 SCS Correlation Energy    =      -2.2793502337052947 [Eh]
	 SCS Total Energy          =    -516.8611960736903939 [Eh]
	-----------------------------------------------------------

  Dipole Moment: [D]
     X:    -2.7532      Y:     1.9989      Z:     0.0480     Total:     3.4027

*** Psi4 exiting successfully. Buy a developer a beer!
