                               Psi4 1.3.2 release

  ==> Input File <==

--------------------------------------------------------------------------
#psi4
#
memory 32 gb

molecule  {
0 1
  O        3.0005300    -1.5493530     0.0754490
  N        0.8317470    -1.1153310    -0.4215630
  C        0.1960040     1.9504030    -0.2395030
  C        1.6857700     1.6448450    -0.3508570
  C       -0.8149320     0.7733355    -0.0972529
  C        2.1481850     0.6250380     0.6971500
  C       -0.4596220    -0.5879500    -0.1790540
  C        2.0510250    -0.7686880     0.1361100
  C       -2.1103850     1.1321340     0.1249900
  C       -1.4919760    -1.5397800    -0.0852490
  C       -3.1313420     0.1920050     0.2149350
  C       -2.8150140    -1.1632860     0.1069400
  H       -0.1141940     2.5504580    -1.1051150
  H        0.0480080     2.5950730     0.6372840
  H        1.9308140     1.2745600    -1.3520490
  H        2.2359360     2.5841340    -0.2253410
  H        1.5370720     0.7103830     1.6057590
  H        3.1934550     0.7649280     0.9813470
  H        0.8461440    -2.0798130    -0.7458600
  H       -2.3558010     2.1909910     0.2008090
  H       -1.2325710    -2.5958500    -0.1409630
  H       -4.1571650     0.5114050     0.3790120
  H       -3.5892060    -1.9233590     0.1747080
units angstrom
no_reorient  #important for SAPT in psi4, default
symmetry c1  #important for SAPT in psi4, default
}

set PROPERTIES_ORIGIN ["COM"]
properties('MP2/aug-cc-pvtz', properties = ['dipole'])
--------------------------------------------------------------------------

    Molecular point group: c1
  Charge       = 0
  Multiplicity = 1
  Basis Set: AUG-CC-PVTZ
    Blend: AUG-CC-PVTZ
  Basis Set: (AUG-CC-PVTZ AUX)
    Blend: AUG-CC-PVTZ-JKFIT

    Orbital Energies [Eh]
    ---------------------

    Doubly Occupied:

       1A    -20.526244     2A    -15.597919     3A    -11.357466
       4A    -11.297241     5A    -11.252716     6A    -11.245662
       7A    -11.245582     8A    -11.243950     9A    -11.242918
      10A    -11.242219    11A    -11.240586    12A    -11.239278
      13A     -1.380641    14A     -1.253470    15A     -1.155630
      16A     -1.099048    17A     -1.038573    18A     -1.018015
      19A     -0.957075    20A     -0.878452    21A     -0.843485
      22A     -0.809198    23A     -0.767587    24A     -0.723340
      25A     -0.681506    26A     -0.669617    27A     -0.644779
      28A     -0.630517    29A     -0.610841    30A     -0.604534
      31A     -0.600328    32A     -0.576884    33A     -0.565061
      34A     -0.542993    35A     -0.519342    36A     -0.510878
      37A     -0.499529    38A     -0.491543    39A     -0.475580
      40A     -0.435890    41A     -0.426436    42A     -0.345677
      43A     -0.315285

  @DF-RHF Final Energy:  -514.59258083976135

   => Energetics <=

    Nuclear Repulsion Energy =            675.0581858515032536
    One-Electron Energy =               -2037.6945037026057435
    Two-Electron Energy =                 848.0437370113410225
    Total Energy =                       -514.5925808397613537
  Basis Set: (AUG-CC-PVTZ AUX)
    Blend: AUG-CC-PVTZ-RI
    Molecular point group: c1

    Geometry (in Angstrom), charge = 0, multiplicity = 1:

       Center              X                  Y                   Z               Mass
    ------------   -----------------  -----------------  -----------------  -----------------
         O            2.993935220370    -1.507953920318     0.077591187763    15.994914619570
         N            0.825152220370    -1.073931920318    -0.419420812237    14.003074004430
         C            0.189409220370     1.991802079682    -0.237360812237    12.000000000000
         C            1.679175220370     1.686244079682    -0.348714812237    12.000000000000
         C           -0.821526779630     0.814734579682    -0.095110712237    12.000000000000
         C            2.141590220370     0.666437079682     0.699292187763    12.000000000000
         C           -0.466216779630    -0.546550920318    -0.176911812237    12.000000000000
         C            2.044430220370    -0.727288920318     0.138252187763    12.000000000000
         C           -2.116979779630     1.173533079682     0.127132187763    12.000000000000
         C           -1.498570779630    -1.498380920318    -0.083106812237    12.000000000000
         C           -3.137936779630     0.233404079682     0.217077187763    12.000000000000
         C           -2.821608779630    -1.121886920318     0.109082187763    12.000000000000
         H           -0.120788779630     2.591857079682    -1.102972812237     1.007825032230
         H            0.041413220370     2.636472079682     0.639426187763     1.007825032230
         H            1.924219220370     1.315959079682    -1.349906812237     1.007825032230
         H            2.229341220370     2.625533079682    -0.223198812237     1.007825032230
         H            1.530477220370     0.751782079682     1.607901187763     1.007825032230
         H            3.186860220370     0.806327079682     0.983489187763     1.007825032230
         H            0.839549220370    -2.038413920318    -0.743717812237     1.007825032230
         H           -2.362395779630     2.232390079682     0.202951187763     1.007825032230
         H           -1.239165779630    -2.554450920318    -0.138820812237     1.007825032230
         H           -4.163759779630     0.552804079682     0.381154187763     1.007825032230
         H           -3.595800779630    -1.881959920318     0.176850187763     1.007825032230

  Basis Set: AUG-CC-PVTZ
    Blend: AUG-CC-PVTZ
  Basis Set: (AUG-CC-PVTZ AUX)
    Blend: AUG-CC-PVTZ-JKFIT
	 Reference Energy          =    -514.5925808397613537 [Eh]
	 Singles Energy            =      -0.0000000000000000 [Eh]
	 Same-Spin Energy          =      -0.5576191811249078 [Eh]
	 Opposite-Spin Energy      =      -1.7425599675200250 [Eh]
	 Correlation Energy        =      -2.3001791486449328 [Eh]
	 Total Energy              =    -516.8927599884062829 [Eh]

	 ================> DF-SCS-MP2 Energies <==================
	-----------------------------------------------------------
	 SCS Same-Spin Scale       =       0.3333333333333333 [-]
	 SCS Opposite-Spin Scale   =       1.2000000000000000 [-]
	 SCS Same-Spin Energy      =      -0.1858730603749693 [Eh]
	 SCS Opposite-Spin Energy  =      -2.0910719610240300 [Eh]
	 SCS Correlation Energy    =      -2.2769450213989995 [Eh]
	 SCS Total Energy          =    -516.8695258611603549 [Eh]
	-----------------------------------------------------------

  Dipole Moment: [D]
     X:    -2.7288      Y:     2.0273      Z:     0.0389     Total:     3.3997

*** Psi4 exiting successfully. Buy a developer a beer!
