                               Psi4 1.3.2 release

  ==> Input File <==

--------------------------------------------------------------------------
#psi4
#
memory 32 gb

molecule  {
0 1
  O        3.0005300    -1.5493530     0.0754490
  N        0.8317470    -1.1153310    -0.4215630
  C        0.1960040     1.9504030    -0.2395030
  C        1.6857700     1.6448450    -0.3508570
  C       -0.6230712     0.8105086    -0.1187828
  C        2.1481850     0.6250380     0.6971500
  C       -0.4596220    -0.5879500    -0.1790540
  C        2.0510250    -0.7686880     0.1361100
  C       -2.1103850     1.1321340     0.1249900
  C       -1.4919760    -1.5397800    -0.0852490
  C       -3.1313420     0.1920050     0.2149350
  C       -2.8150140    -1.1632860     0.1069400
  H       -0.1141940     2.5504580    -1.1051150
  H        0.0480080     2.5950730     0.6372840
  H        1.9308140     1.2745600    -1.3520490
  H        2.2359360     2.5841340    -0.2253410
  H        1.5370720     0.7103830     1.6057590
  H        3.1934550     0.7649280     0.9813470
  H        0.8461440    -2.0798130    -0.7458600
  H       -2.3558010     2.1909910     0.2008090
  H       -1.2325710    -2.5958500    -0.1409630
  H       -4.1571650     0.5114050     0.3790120
  H       -3.5892060    -1.9233590     0.1747080
units angstrom
no_reorient  #important for SAPT in psi4, default
symmetry c1  #important for SAPT in psi4, default
}

set PROPERTIES_ORIGIN ["COM"]
properties('MP2/aug-cc-pvtz', properties = ['dipole'])
--------------------------------------------------------------------------

    Molecular point group: c1
  Charge       = 0
  Multiplicity = 1
  Basis Set: AUG-CC-PVTZ
    Blend: AUG-CC-PVTZ
  Basis Set: (AUG-CC-PVTZ AUX)
    Blend: AUG-CC-PVTZ-JKFIT

    Orbital Energies [Eh]
    ---------------------

    Doubly Occupied:

       1A    -20.523676     2A    -15.590683     3A    -11.355378
       4A    -11.298970     5A    -11.262532     6A    -11.256837
       7A    -11.249237     8A    -11.246248     9A    -11.242739
      10A    -11.242412    11A    -11.241608    12A    -11.240586
      13A     -1.378273    14A     -1.252173    15A     -1.143845
      16A     -1.112504    17A     -1.042013    18A     -1.010741
      19A     -0.956564    20A     -0.886396    21A     -0.842688
      22A     -0.805957    23A     -0.759187    24A     -0.717982
      25A     -0.682657    26A     -0.678330    27A     -0.651357
      28A     -0.627121    29A     -0.617147    30A     -0.603426
      31A     -0.596595    32A     -0.582966    33A     -0.562899
      34A     -0.539970    35A     -0.517053    36A     -0.515382
      37A     -0.500817    38A     -0.493610    39A     -0.471074
      40A     -0.433760    41A     -0.423965    42A     -0.329035
      43A     -0.315880

  @DF-RHF Final Energy:  -514.56637734743049

   => Energetics <=

    Nuclear Repulsion Energy =            675.3686591099824454
    One-Electron Energy =               -2038.2655235784754950
    Two-Electron Energy =                 848.3304871210625606
    Total Energy =                       -514.5663773474304890
  Basis Set: (AUG-CC-PVTZ AUX)
    Blend: AUG-CC-PVTZ-RI
    Molecular point group: c1

    Geometry (in Angstrom), charge = 0, multiplicity = 1:

       Center              X                  Y                   Z               Mass
    ------------   -----------------  -----------------  -----------------  -----------------
         O            2.979642499270    -1.510723140246     0.079195063364    15.994914619570
         N            0.810859499270    -1.076701140246    -0.417816936636    14.003074004430
         C            0.175116499270     1.989032859754    -0.235756936636    12.000000000000
         C            1.664882499270     1.683474859754    -0.347110936636    12.000000000000
         C           -0.643958700730     0.849138459754    -0.115036736636    12.000000000000
         C            2.127297499270     0.663667859754     0.700896063364    12.000000000000
         C           -0.480509500730    -0.549320140246    -0.175307936636    12.000000000000
         C            2.030137499270    -0.730058140246     0.139856063364    12.000000000000
         C           -2.131272500730     1.170763859754     0.128736063364    12.000000000000
         C           -1.512863500730    -1.501150140246    -0.081502936636    12.000000000000
         C           -3.152229500730     0.230634859754     0.218681063364    12.000000000000
         C           -2.835901500730    -1.124656140246     0.110686063364    12.000000000000
         H           -0.135081500730     2.589087859754    -1.101368936636     1.007825032230
         H            0.027120499270     2.633702859754     0.641030063364     1.007825032230
         H            1.909926499270     1.313189859754    -1.348302936636     1.007825032230
         H            2.215048499270     2.622763859754    -0.221594936636     1.007825032230
         H            1.516184499270     0.749012859754     1.609505063364     1.007825032230
         H            3.172567499270     0.803557859754     0.985093063364     1.007825032230
         H            0.825256499270    -2.041183140246    -0.742113936636     1.007825032230
         H           -2.376688500730     2.229620859754     0.204555063364     1.007825032230
         H           -1.253458500730    -2.557220140246    -0.137216936636     1.007825032230
         H           -4.178052500730     0.550034859754     0.382758063364     1.007825032230
         H           -3.610093500730    -1.884729140246     0.178454063364     1.007825032230

  Basis Set: AUG-CC-PVTZ
    Blend: AUG-CC-PVTZ
  Basis Set: (AUG-CC-PVTZ AUX)
    Blend: AUG-CC-PVTZ-JKFIT
	 Reference Energy          =    -514.5663773474304890 [Eh]
	 Singles Energy            =      -0.0000000000000000 [Eh]
	 Same-Spin Energy          =      -0.5595604082414871 [Eh]
	 Opposite-Spin Energy      =      -1.7467915828108003 [Eh]
	 Correlation Energy        =      -2.3063519910522876 [Eh]
	 Total Energy              =    -516.8727293384828272 [Eh]

	 ================> DF-SCS-MP2 Energies <==================
	-----------------------------------------------------------
	 SCS Same-Spin Scale       =       0.3333333333333333 [-]
	 SCS Opposite-Spin Scale   =       1.2000000000000000 [-]
	 SCS Same-Spin Energy      =      -0.1865201360804957 [Eh]
	 SCS Opposite-Spin Energy  =      -2.0961498993729601 [Eh]
	 SCS Correlation Energy    =      -2.2826700354534557 [Eh]
	 SCS Total Energy          =    -516.8490473828838958 [Eh]
	-----------------------------------------------------------

  Dipole Moment: [D]
     X:    -2.7905      Y:     2.1573      Z:     0.0224     Total:     3.5273

*** Psi4 exiting successfully. Buy a developer a beer!
