                               Psi4 1.3.2 release

  ==> Input File <==

--------------------------------------------------------------------------
#psi4
#
memory 32 gb

molecule  {
0 1
  O        3.0005300    -1.5493530     0.0754490
  N        0.8317470    -1.1153310    -0.4215630
  C        0.1960040     1.9504030    -0.2395030
  C        1.6857700     1.6448450    -0.3508570
  C       -0.7674710     0.7851500    -0.1025020
  C        2.1481850     0.6250380     0.6971500
  C       -0.4596220    -0.5879500    -0.1790540
  C        2.0510250    -0.7686880     0.1361100
  C       -1.9192976     1.0827606     0.0926195
  C       -1.4919760    -1.5397800    -0.0852490
  C       -3.1313420     0.1920050     0.2149350
  C       -2.8150140    -1.1632860     0.1069400
  H       -0.1141940     2.5504580    -1.1051150
  H        0.0480080     2.5950730     0.6372840
  H        1.9308140     1.2745600    -1.3520490
  H        2.2359360     2.5841340    -0.2253410
  H        1.5370720     0.7103830     1.6057590
  H        3.1934550     0.7649280     0.9813470
  H        0.8461440    -2.0798130    -0.7458600
  H       -2.3558010     2.1909910     0.2008090
  H       -1.2325710    -2.5958500    -0.1409630
  H       -4.1571650     0.5114050     0.3790120
  H       -3.5892060    -1.9233590     0.1747080
units angstrom
no_reorient  #important for SAPT in psi4, default
symmetry c1  #important for SAPT in psi4, default
}

set PROPERTIES_ORIGIN ["COM"]
properties('MP2/aug-cc-pvtz', properties = ['dipole'])
--------------------------------------------------------------------------

    Molecular point group: c1
  Charge       = 0
  Multiplicity = 1
  Basis Set: AUG-CC-PVTZ
    Blend: AUG-CC-PVTZ
  Basis Set: (AUG-CC-PVTZ AUX)
    Blend: AUG-CC-PVTZ-JKFIT

    Orbital Energies [Eh]
    ---------------------

    Doubly Occupied:

       1A    -20.527368     2A    -15.598489     3A    -11.358371
       4A    -11.302045     5A    -11.248100     6A    -11.245026
       7A    -11.244267     8A    -11.243972     9A    -11.242003
      10A    -11.240371    11A    -11.240300    12A    -11.230874
      13A     -1.381667    14A     -1.256982    15A     -1.171482
      16A     -1.103809    17A     -1.055237    18A     -1.001850
      19A     -0.963903    20A     -0.877029    21A     -0.843249
      22A     -0.812365    23A     -0.769671    24A     -0.716993
      25A     -0.683212    26A     -0.670822    27A     -0.648562
      28A     -0.632186    29A     -0.612905    30A     -0.604135
      31A     -0.587381    32A     -0.583169    33A     -0.567982
      34A     -0.547508    35A     -0.523132    36A     -0.509315
      37A     -0.500591    38A     -0.492382    39A     -0.454580
      40A     -0.432144    41A     -0.427443    42A     -0.368985
      43A     -0.304918

  @DF-RHF Final Energy:  -514.53299231955054

   => Energetics <=

    Nuclear Repulsion Energy =            678.5374647459810831
    One-Electron Energy =               -2044.4873611159359825
    Two-Electron Energy =                 851.4169040504042414
    Total Energy =                       -514.5329923195505444
  Basis Set: (AUG-CC-PVTZ AUX)
    Blend: AUG-CC-PVTZ-RI
    Molecular point group: c1

    Geometry (in Angstrom), charge = 0, multiplicity = 1:

       Center              X                  Y                   Z               Mass
    ------------   -----------------  -----------------  -----------------  -----------------
         O            2.976164494146    -1.505155960118     0.080393669826    15.994914619570
         N            0.807381494146    -1.071133960118    -0.416618330174    14.003074004430
         C            0.171638494146     1.994600039882    -0.234558330174    12.000000000000
         C            1.661404494146     1.689042039882    -0.345912330174    12.000000000000
         C           -0.791836505854     0.829347039882    -0.097557330174    12.000000000000
         C            2.123819494146     0.669235039882     0.702094669826    12.000000000000
         C           -0.483987505854    -0.543752960118    -0.174109330174    12.000000000000
         C            2.026659494146    -0.724490960118     0.141054669826    12.000000000000
         C           -1.943663105854     1.126957639882     0.097564169826    12.000000000000
         C           -1.516341505854    -1.495582960118    -0.080304330174    12.000000000000
         C           -3.155707505854     0.236202039882     0.219879669826    12.000000000000
         C           -2.839379505854    -1.119088960118     0.111884669826    12.000000000000
         H           -0.138559505854     2.594655039882    -1.100170330174     1.007825032230
         H            0.023642494146     2.639270039882     0.642228669826     1.007825032230
         H            1.906448494146     1.318757039882    -1.347104330174     1.007825032230
         H            2.211570494146     2.628331039882    -0.220396330174     1.007825032230
         H            1.512706494146     0.754580039882     1.610703669826     1.007825032230
         H            3.169089494146     0.809125039882     0.986291669826     1.007825032230
         H            0.821778494146    -2.035615960118    -0.740915330174     1.007825032230
         H           -2.380166505854     2.235188039882     0.205753669826     1.007825032230
         H           -1.256936505854    -2.551652960118    -0.136018330174     1.007825032230
         H           -4.181530505854     0.555602039882     0.383956669826     1.007825032230
         H           -3.613571505854    -1.879161960118     0.179652669826     1.007825032230

  Basis Set: AUG-CC-PVTZ
    Blend: AUG-CC-PVTZ
  Basis Set: (AUG-CC-PVTZ AUX)
    Blend: AUG-CC-PVTZ-JKFIT
	 Reference Energy          =    -514.5329923195505444 [Eh]
	 Singles Energy            =      -0.0000000000000000 [Eh]
	 Same-Spin Energy          =      -0.5579287156627650 [Eh]
	 Opposite-Spin Energy      =      -1.7452090575178367 [Eh]
	 Correlation Energy        =      -2.3031377731806018 [Eh]
	 Total Energy              =    -516.8361300927311959 [Eh]

	 ================> DF-SCS-MP2 Energies <==================
	-----------------------------------------------------------
	 SCS Same-Spin Scale       =       0.3333333333333333 [-]
	 SCS Opposite-Spin Scale   =       1.2000000000000000 [-]
	 SCS Same-Spin Energy      =      -0.1859762385542550 [Eh]
	 SCS Opposite-Spin Energy  =      -2.0942508690214039 [Eh]
	 SCS Correlation Energy    =      -2.2802271075756591 [Eh]
	 SCS Total Energy          =    -516.8132194271262279 [Eh]
	-----------------------------------------------------------

  Dipole Moment: [D]
     X:    -2.6988      Y:     1.9522      Z:     0.0341     Total:     3.3311

*** Psi4 exiting successfully. Buy a developer a beer!
