                               Psi4 1.3.2 release

  ==> Input File <==

--------------------------------------------------------------------------
#psi4
#
memory 32 gb

molecule  {
0 1
  O        3.0005300    -1.5493530     0.0754490
  N        0.8317470    -1.1153310    -0.4215630
  C        0.2736670     1.8797082    -0.2536377
  C        1.6857700     1.6448450    -0.3508570
  C       -0.7674710     0.7851500    -0.1025020
  C        2.1481850     0.6250380     0.6971500
  C       -0.4596220    -0.5879500    -0.1790540
  C        2.0510250    -0.7686880     0.1361100
  C       -2.1103850     1.1321340     0.1249900
  C       -1.4919760    -1.5397800    -0.0852490
  C       -3.1313420     0.1920050     0.2149350
  C       -2.8150140    -1.1632860     0.1069400
  H       -0.1141940     2.5504580    -1.1051150
  H        0.0480080     2.5950730     0.6372840
  H        1.9308140     1.2745600    -1.3520490
  H        2.2359360     2.5841340    -0.2253410
  H        1.5370720     0.7103830     1.6057590
  H        3.1934550     0.7649280     0.9813470
  H        0.8461440    -2.0798130    -0.7458600
  H       -2.3558010     2.1909910     0.2008090
  H       -1.2325710    -2.5958500    -0.1409630
  H       -4.1571650     0.5114050     0.3790120
  H       -3.5892060    -1.9233590     0.1747080
units angstrom
no_reorient  #important for SAPT in psi4, default
symmetry c1  #important for SAPT in psi4, default
}

set PROPERTIES_ORIGIN ["COM"]
properties('MP2/aug-cc-pvtz', properties = ['dipole'])
--------------------------------------------------------------------------

    Molecular point group: c1
  Charge       = 0
  Multiplicity = 1
  Basis Set: AUG-CC-PVTZ
    Blend: AUG-CC-PVTZ
  Basis Set: (AUG-CC-PVTZ AUX)
    Blend: AUG-CC-PVTZ-JKFIT

    Orbital Energies [Eh]
    ---------------------

    Doubly Occupied:

       1A    -20.526223     2A    -15.596733     3A    -11.357739
       4A    -11.295474     5A    -11.257760     6A    -11.251826
       7A    -11.246696     8A    -11.246191     9A    -11.244217
      10A    -11.243354    11A    -11.240983    12A    -11.239889
      13A     -1.380710    14A     -1.253933    15A     -1.152005
      16A     -1.114033    17A     -1.038683    18A     -1.017363
      19A     -0.961362    20A     -0.881130    21A     -0.843864
      22A     -0.804910    23A     -0.766064    24A     -0.721938
      25A     -0.684072    26A     -0.671293    27A     -0.649282
      28A     -0.629617    29A     -0.616459    30A     -0.603467
      31A     -0.598829    32A     -0.578858    33A     -0.562966
      34A     -0.543326    35A     -0.519593    36A     -0.512755
      37A     -0.508321    38A     -0.479591    39A     -0.477737
      40A     -0.435566    41A     -0.426394    42A     -0.338877
      43A     -0.315079

  @DF-RHF Final Energy:  -514.58072365195471

   => Energetics <=

    Nuclear Repulsion Energy =            676.4153536564828073
    One-Electron Energy =               -2040.3218319727952803
    Two-Electron Energy =                 849.3257546643578735
    Total Energy =                       -514.5807236519547132
  Basis Set: (AUG-CC-PVTZ AUX)
    Blend: AUG-CC-PVTZ-RI
    Molecular point group: c1

    Geometry (in Angstrom), charge = 0, multiplicity = 1:

       Center              X                  Y                   Z               Mass
    ------------   -----------------  -----------------  -----------------  -----------------
         O            2.984614074858    -1.503567616779     0.079035189076    15.994914619570
         N            0.815831074858    -1.069545616779    -0.417976810924    14.003074004430
         C            0.257751074858     1.925493583221    -0.250051510924    12.000000000000
         C            1.669854074858     1.690630383221    -0.347270810924    12.000000000000
         C           -0.783386925142     0.830935383221    -0.098915810924    12.000000000000
         C            2.132269074858     0.670823383221     0.700736189076    12.000000000000
         C           -0.475537925142    -0.542164616779    -0.175467810924    12.000000000000
         C            2.035109074858    -0.722902616779     0.139696189076    12.000000000000
         C           -2.126300925142     1.177919383221     0.128576189076    12.000000000000
         C           -1.507891925142    -1.493994616779    -0.081662810924    12.000000000000
         C           -3.147257925142     0.237790383221     0.218521189076    12.000000000000
         C           -2.830929925142    -1.117500616779     0.110526189076    12.000000000000
         H           -0.130109925142     2.596243383221    -1.101528810924     1.007825032230
         H            0.032092074858     2.640858383221     0.640870189076     1.007825032230
         H            1.914898074858     1.320345383221    -1.348462810924     1.007825032230
         H            2.220020074858     2.629919383221    -0.221754810924     1.007825032230
         H            1.521156074858     0.756168383221     1.609345189076     1.007825032230
         H            3.177539074858     0.810713383221     0.984933189076     1.007825032230
         H            0.830228074858    -2.034027616779    -0.742273810924     1.007825032230
         H           -2.371716925142     2.236776383221     0.204395189076     1.007825032230
         H           -1.248486925142    -2.550064616779    -0.137376810924     1.007825032230
         H           -4.173080925142     0.557190383221     0.382598189076     1.007825032230
         H           -3.605121925142    -1.877573616779     0.178294189076     1.007825032230

  Basis Set: AUG-CC-PVTZ
    Blend: AUG-CC-PVTZ
  Basis Set: (AUG-CC-PVTZ AUX)
    Blend: AUG-CC-PVTZ-JKFIT
	 Reference Energy          =    -514.5807236519547132 [Eh]
	 Singles Energy            =      -0.0000000000000000 [Eh]
	 Same-Spin Energy          =      -0.5590677168296773 [Eh]
	 Opposite-Spin Energy      =      -1.7446332878730566 [Eh]
	 Correlation Energy        =      -2.3037010047027340 [Eh]
	 Total Energy              =    -516.8844246566574157 [Eh]

	 ================> DF-SCS-MP2 Energies <==================
	-----------------------------------------------------------
	 SCS Same-Spin Scale       =       0.3333333333333333 [-]
	 SCS Opposite-Spin Scale   =       1.2000000000000000 [-]
	 SCS Same-Spin Energy      =      -0.1863559056098924 [Eh]
	 SCS Opposite-Spin Energy  =      -2.0935599454476677 [Eh]
	 SCS Correlation Energy    =      -2.2799158510575599 [Eh]
	 SCS Total Energy          =    -516.8606395030122940 [Eh]
	-----------------------------------------------------------

  Dipole Moment: [D]
     X:    -2.6705      Y:     2.0379      Z:     0.0204     Total:     3.3593

*** Psi4 exiting successfully. Buy a developer a beer!
