                               Psi4 1.3.2 release

  ==> Input File <==

--------------------------------------------------------------------------
#psi4
#
memory 32 gb

molecule  {
0 1
  O        3.0005300    -1.5493530     0.0754490
  N        0.8317470    -1.1153310    -0.4215630
  C        0.1960040     1.9504030    -0.2395030
  C        1.6857700     1.6448450    -0.3508570
  C       -0.7674710     0.7851500    -0.1025020
  C        2.1481850     0.6250380     0.6971500
  C       -0.4596220    -0.5879500    -0.1790540
  C        2.2271136    -0.7186257     0.2166493
  C       -2.1103850     1.1321340     0.1249900
  C       -1.4919760    -1.5397800    -0.0852490
  C       -3.1313420     0.1920050     0.2149350
  C       -2.8150140    -1.1632860     0.1069400
  H       -0.1141940     2.5504580    -1.1051150
  H        0.0480080     2.5950730     0.6372840
  H        1.9308140     1.2745600    -1.3520490
  H        2.2359360     2.5841340    -0.2253410
  H        1.5370720     0.7103830     1.6057590
  H        3.1934550     0.7649280     0.9813470
  H        0.8461440    -2.0798130    -0.7458600
  H       -2.3558010     2.1909910     0.2008090
  H       -1.2325710    -2.5958500    -0.1409630
  H       -4.1571650     0.5114050     0.3790120
  H       -3.5892060    -1.9233590     0.1747080
units angstrom
no_reorient  #important for SAPT in psi4, default
symmetry c1  #important for SAPT in psi4, default
}

set PROPERTIES_ORIGIN ["COM"]
properties('MP2/aug-cc-pvtz', properties = ['dipole'])
--------------------------------------------------------------------------

    Molecular point group: c1
  Charge       = 0
  Multiplicity = 1
  Basis Set: AUG-CC-PVTZ
    Blend: AUG-CC-PVTZ
  Basis Set: (AUG-CC-PVTZ AUX)
    Blend: AUG-CC-PVTZ-JKFIT

    Orbital Energies [Eh]
    ---------------------

    Doubly Occupied:

       1A    -20.565631     2A    -15.559590     3A    -11.372472
       4A    -11.280325     5A    -11.253058     6A    -11.249159
       7A    -11.241962     8A    -11.240127     9A    -11.234849
      10A    -11.234693    11A    -11.227916    12A    -11.225750
      13A     -1.458094    14A     -1.212142    15A     -1.128649
      16A     -1.109705    17A     -1.042247    18A     -0.995241
      19A     -0.960692    20A     -0.871507    21A     -0.826724
      22A     -0.793042    23A     -0.755650    24A     -0.706262
      25A     -0.694598    26A     -0.672229    27A     -0.655783
      28A     -0.625064    29A     -0.616973    30A     -0.607050
      31A     -0.597510    32A     -0.584539    33A     -0.566939
      34A     -0.537975    35A     -0.518960    36A     -0.512750
      37A     -0.498271    38A     -0.486931    39A     -0.482498
      40A     -0.436012    41A     -0.425905    42A     -0.329647
      43A     -0.293635

  @DF-RHF Final Energy:  -514.55856253633738

   => Energetics <=

    Nuclear Repulsion Energy =            673.7009091316551803
    One-Electron Energy =               -2035.1414335464187388
    Two-Electron Energy =                 846.8819618784261820
    Total Energy =                       -514.5585625363373765
  Basis Set: (AUG-CC-PVTZ AUX)
    Blend: AUG-CC-PVTZ-RI
    Molecular point group: c1

    Geometry (in Angstrom), charge = 0, multiplicity = 1:

       Center              X                  Y                   Z               Mass
    ------------   -----------------  -----------------  -----------------  -----------------
         O            2.977281833723    -1.512563448919     0.071982424377    15.994914619570
         N            0.808498833723    -1.078541448919    -0.425029575623    14.003074004430
         C            0.172755833723     1.987192551081    -0.242969575623    12.000000000000
         C            1.662521833723     1.681634551081    -0.354323575623    12.000000000000
         C           -0.790719166277     0.821939551081    -0.105968575623    12.000000000000
         C            2.124936833723     0.661827551081     0.693683424377    12.000000000000
         C           -0.482870166277    -0.551160448919    -0.182520575623    12.000000000000
         C            2.203865433723    -0.681836148919     0.213182724377    12.000000000000
         C           -2.133633166277     1.168923551081     0.121523424377    12.000000000000
         C           -1.515224166277    -1.502990448919    -0.088715575623    12.000000000000
         C           -3.154590166277     0.228794551081     0.211468424377    12.000000000000
         C           -2.838262166277    -1.126496448919     0.103473424377    12.000000000000
         H           -0.137442166277     2.587247551081    -1.108581575623     1.007825032230
         H            0.024759833723     2.631862551081     0.633817424377     1.007825032230
         H            1.907565833723     1.311349551081    -1.355515575623     1.007825032230
         H            2.212687833723     2.620923551081    -0.228807575623     1.007825032230
         H            1.513823833723     0.747172551081     1.602292424377     1.007825032230
         H            3.170206833723     0.801717551081     0.977880424377     1.007825032230
         H            0.822895833723    -2.043023448919    -0.749326575623     1.007825032230
         H           -2.379049166277     2.227780551081     0.197342424377     1.007825032230
         H           -1.255819166277    -2.559060448919    -0.144429575623     1.007825032230
         H           -4.180413166277     0.548194551081     0.375545424377     1.007825032230
         H           -3.612454166277    -1.886569448919     0.171241424377     1.007825032230

  Basis Set: AUG-CC-PVTZ
    Blend: AUG-CC-PVTZ
  Basis Set: (AUG-CC-PVTZ AUX)
    Blend: AUG-CC-PVTZ-JKFIT
	 Reference Energy          =    -514.5585625363373765 [Eh]
	 Singles Energy            =      -0.0000000000000000 [Eh]
	 Same-Spin Energy          =      -0.5582129354535379 [Eh]
	 Opposite-Spin Energy      =      -1.7433632222406432 [Eh]
	 Correlation Energy        =      -2.3015761576941811 [Eh]
	 Total Energy              =    -516.8601386940315479 [Eh]

	 ================> DF-SCS-MP2 Energies <==================
	-----------------------------------------------------------
	 SCS Same-Spin Scale       =       0.3333333333333333 [-]
	 SCS Opposite-Spin Scale   =       1.2000000000000000 [-]
	 SCS Same-Spin Energy      =      -0.1860709784845126 [Eh]
	 SCS Opposite-Spin Energy  =      -2.0920358666887720 [Eh]
	 SCS Correlation Energy    =      -2.2781068451732844 [Eh]
	 SCS Total Energy          =    -516.8366693815106601 [Eh]
	-----------------------------------------------------------

  Dipole Moment: [D]
     X:    -0.5000      Y:     2.0339      Z:     0.4963     Total:     2.1524

*** Psi4 exiting successfully. Buy a developer a beer!
