                               Psi4 1.4a3.dev225

  ==> Input File <==

--------------------------------------------------------------------------
#psi4
#
memory 32 gb

molecule  {
0 1
  O        3.0005300    -1.5493530     0.0754490
  N        0.8317470    -1.1153310    -0.4215630
  C        0.1960040     1.9504030    -0.2395030
  C        1.6369204     1.6548643    -0.3472057
  C       -0.7674710     0.7851500    -0.1025020
  C        2.1481850     0.6250380     0.6971500
  C       -0.4596220    -0.5879500    -0.1790540
  C        2.0510250    -0.7686880     0.1361100
  C       -2.1103850     1.1321340     0.1249900
  C       -1.4919760    -1.5397800    -0.0852490
  C       -3.1313420     0.1920050     0.2149350
  C       -2.8150140    -1.1632860     0.1069400
  H       -0.1141940     2.5504580    -1.1051150
  H        0.0480080     2.5950730     0.6372840
  H        1.9308140     1.2745600    -1.3520490
  H        2.2359360     2.5841340    -0.2253410
  H        1.5370720     0.7103830     1.6057590
  H        3.1934550     0.7649280     0.9813470
  H        0.8461440    -2.0798130    -0.7458600
  H       -2.3558010     2.1909910     0.2008090
  H       -1.2325710    -2.5958500    -0.1409630
  H       -4.1571650     0.5114050     0.3790120
  H       -3.5892060    -1.9233590     0.1747080
units angstrom
no_reorient  #important for SAPT in psi4, default
symmetry c1  #important for SAPT in psi4, default
}

set PROPERTIES_ORIGIN ["COM"]
properties('MP2/aug-cc-pvtz', properties = ['dipole'])
--------------------------------------------------------------------------

    Molecular point group: c1
  Charge       = 0
  Multiplicity = 1
  Basis Set: AUG-CC-PVTZ
    Blend: AUG-CC-PVTZ
  Basis Set: (AUG-CC-PVTZ AUX)
    Blend: AUG-CC-PVTZ-JKFIT

    Orbital Energies [Eh]
    ---------------------

    Doubly Occupied:

       1A    -20.525435     2A    -15.595901     3A    -11.356676
       4A    -11.297656     5A    -11.255394     6A    -11.246749
       7A    -11.245352     8A    -11.244635     9A    -11.244240
      10A    -11.243485    11A    -11.243081    12A    -11.240040
      13A     -1.379851    14A     -1.253045    15A     -1.152145
      16A     -1.105503    17A     -1.037543    18A     -1.016672
      19A     -0.961720    20A     -0.878790    21A     -0.843082
      22A     -0.806773    23A     -0.765913    24A     -0.721708
      25A     -0.681915    26A     -0.671791    27A     -0.646008
      28A     -0.629455    29A     -0.614077    30A     -0.603047
      31A     -0.601511    32A     -0.580103    33A     -0.563742
      34A     -0.540325    35A     -0.519297    36A     -0.507885
      37A     -0.505070    38A     -0.488390    39A     -0.479706
      40A     -0.435067    41A     -0.425548    42A     -0.340812
      43A     -0.316137

  @DF-RHF Final Energy:  -514.59151194464232

   => Energetics <=

    Nuclear Repulsion Energy =            675.5201117291255741
    One-Electron Energy =               -2038.6007007062148659
    Two-Electron Energy =                 848.4890770324469713
    Total Energy =                       -514.5915119446423205
  Basis Set: (AUG-CC-PVTZ AUX)
    Blend: AUG-CC-PVTZ-RI
    Molecular point group: c1

    Geometry (in Angstrom), charge = 0, multiplicity = 1:

       Center              X                  Y                   Z               Mass
    ------------   -----------------  -----------------  -----------------  -----------------
         O            2.994038664494    -1.509580435031     0.077710216297    15.994914619570
         N            0.825255664494    -1.075558435031    -0.419301783703    14.003074004430
         C            0.189512664494     1.990175564969    -0.237241783703    12.000000000000
         C            1.630429064494     1.694636864969    -0.344944483703    12.000000000000
         C           -0.773962335506     0.824922564969    -0.100240783703    12.000000000000
         C            2.141693664494     0.664810564969     0.699411216297    12.000000000000
         C           -0.466113335506    -0.548177435031    -0.176792783703    12.000000000000
         C            2.044533664494    -0.728915435031     0.138371216297    12.000000000000
         C           -2.116876335506     1.171906564969     0.127251216297    12.000000000000
         C           -1.498467335506    -1.500007435031    -0.082987783703    12.000000000000
         C           -3.137833335506     0.231777564969     0.217196216297    12.000000000000
         C           -2.821505335506    -1.123513435031     0.109201216297    12.000000000000
         H           -0.120685335506     2.590230564969    -1.102853783703     1.007825032230
         H            0.041516664494     2.634845564969     0.639545216297     1.007825032230
         H            1.924322664494     1.314332564969    -1.349787783703     1.007825032230
         H            2.229444664494     2.623906564969    -0.223079783703     1.007825032230
         H            1.530580664494     0.750155564969     1.608020216297     1.007825032230
         H            3.186963664494     0.804700564969     0.983608216297     1.007825032230
         H            0.839652664494    -2.040040435031    -0.743598783703     1.007825032230
         H           -2.362292335506     2.230763564969     0.203070216297     1.007825032230
         H           -1.239062335506    -2.556077435031    -0.138701783703     1.007825032230
         H           -4.163656335506     0.551177564969     0.381273216297     1.007825032230
         H           -3.595697335506    -1.883586435031     0.176969216297     1.007825032230

  Basis Set: AUG-CC-PVTZ
    Blend: AUG-CC-PVTZ
  Basis Set: (AUG-CC-PVTZ AUX)
    Blend: AUG-CC-PVTZ-JKFIT
	 Reference Energy          =    -514.5915119446423205 [Eh]
	 Singles Energy            =      -0.0000000000000000 [Eh]
	 Same-Spin Energy          =      -0.5581891461575517 [Eh]
	 Opposite-Spin Energy      =      -1.7433798670364999 [Eh]
	 Correlation Energy        =      -2.3015690131940518 [Eh]
	 Total Energy              =    -516.8930809578363323 [Eh]

	 ================> DF-SCS-MP2 Energies <==================
	-----------------------------------------------------------
	 SCS Same-Spin Scale       =       0.3333333333333333 [-]
	 SCS Opposite-Spin Scale   =       1.2000000000000000 [-]
	 SCS Same-Spin Energy      =      -0.1860630487191839 [Eh]
	 SCS Opposite-Spin Energy  =      -2.0920558404437997 [Eh]
	 SCS Correlation Energy    =      -2.2781188891629833 [Eh]
	 SCS Total Energy          =    -516.8696308338053313 [Eh]
	-----------------------------------------------------------

  Dipole Moment: [D]
     X:    -2.7670      Y:     2.0693      Z:     0.0380     Total:     3.4554

*** Psi4 exiting successfully. Buy a developer a beer!
