                               Psi4 1.3.2 release

  ==> Input File <==

--------------------------------------------------------------------------
#psi4
#
memory 32 gb

molecule  {
0 1
  O        3.0005300    -1.5493530     0.0754490
  N        0.8317470    -1.1153310    -0.4215630
  C        0.1960040     1.9504030    -0.2395030
  C        1.6857700     1.6448450    -0.3508570
  C       -0.7674710     0.7851500    -0.1025020
  C        2.1481850     0.6250380     0.6971500
  C       -0.5071359    -0.5981466    -0.1714290
  C        2.0510250    -0.7686880     0.1361100
  C       -2.1103850     1.1321340     0.1249900
  C       -1.4919760    -1.5397800    -0.0852490
  C       -3.1313420     0.1920050     0.2149350
  C       -2.8150140    -1.1632860     0.1069400
  H       -0.1141940     2.5504580    -1.1051150
  H        0.0480080     2.5950730     0.6372840
  H        1.9308140     1.2745600    -1.3520490
  H        2.2359360     2.5841340    -0.2253410
  H        1.5370720     0.7103830     1.6057590
  H        3.1934550     0.7649280     0.9813470
  H        0.8461440    -2.0798130    -0.7458600
  H       -2.3558010     2.1909910     0.2008090
  H       -1.2325710    -2.5958500    -0.1409630
  H       -4.1571650     0.5114050     0.3790120
  H       -3.5892060    -1.9233590     0.1747080
units angstrom
no_reorient  #important for SAPT in psi4, default
symmetry c1  #important for SAPT in psi4, default
}

set PROPERTIES_ORIGIN ["COM"]
properties('MP2/aug-cc-pvtz', properties = ['dipole'])
--------------------------------------------------------------------------

    Molecular point group: c1
  Charge       = 0
  Multiplicity = 1
  Basis Set: AUG-CC-PVTZ
    Blend: AUG-CC-PVTZ
  Basis Set: (AUG-CC-PVTZ AUX)
    Blend: AUG-CC-PVTZ-JKFIT

    Orbital Energies [Eh]
    ---------------------

    Doubly Occupied:

       1A    -20.522682     2A    -15.592152     3A    -11.354368
       4A    -11.295558     5A    -11.257067     6A    -11.247483
       7A    -11.246997     8A    -11.245749     9A    -11.242041
      10A    -11.241970    11A    -11.241293    12A    -11.241276
      13A     -1.376537    14A     -1.242990    15A     -1.154494
      16A     -1.102280    17A     -1.039110    18A     -1.021645
      19A     -0.957774    20A     -0.878796    21A     -0.841820
      22A     -0.807247    23A     -0.766422    24A     -0.717419
      25A     -0.679806    26A     -0.667411    27A     -0.646183
      28A     -0.630957    29A     -0.610548    30A     -0.605406
      31A     -0.600039    32A     -0.576822    33A     -0.563520
      34A     -0.541896    35A     -0.515460    36A     -0.512060
      37A     -0.498881    38A     -0.494226    39A     -0.484282
      40A     -0.431488    41A     -0.423018    42A     -0.343075
      43A     -0.320694

  @DF-RHF Final Energy:  -514.59202680871374

   => Energetics <=

    Nuclear Repulsion Energy =            674.9237678513159153
    One-Electron Energy =               -2037.4697090547308562
    Two-Electron Energy =                 847.9539143947012008
    Total Energy =                       -514.5920268087137401
  Basis Set: (AUG-CC-PVTZ AUX)
    Blend: AUG-CC-PVTZ-RI
    Molecular point group: c1

    Geometry (in Angstrom), charge = 0, multiplicity = 1:

       Center              X                  Y                   Z               Mass
    ------------   -----------------  -----------------  -----------------  -----------------
         O            2.993939161169    -1.508074446207     0.077414194463    15.994914619570
         N            0.825156161169    -1.074052446207    -0.419597805537    14.003074004430
         C            0.189413161169     1.991681553793    -0.237537805537    12.000000000000
         C            1.679179161169     1.686123553793    -0.348891805537    12.000000000000
         C           -0.774061838831     0.826428553793    -0.100536805537    12.000000000000
         C            2.141594161169     0.666316553793     0.699115194463    12.000000000000
         C           -0.513726738831    -0.556868046207    -0.169463805537    12.000000000000
         C            2.044434161169    -0.727409446207     0.138075194463    12.000000000000
         C           -2.116975838831     1.173412553793     0.126955194463    12.000000000000
         C           -1.498566838831    -1.498501446207    -0.083283805537    12.000000000000
         C           -3.137932838831     0.233283553793     0.216900194463    12.000000000000
         C           -2.821604838831    -1.122007446207     0.108905194463    12.000000000000
         H           -0.120784838831     2.591736553793    -1.103149805537     1.007825032230
         H            0.041417161169     2.636351553793     0.639249194463     1.007825032230
         H            1.924223161169     1.315838553793    -1.350083805537     1.007825032230
         H            2.229345161169     2.625412553793    -0.223375805537     1.007825032230
         H            1.530481161169     0.751661553793     1.607724194463     1.007825032230
         H            3.186864161169     0.806206553793     0.983312194463     1.007825032230
         H            0.839553161169    -2.038534446207    -0.743894805537     1.007825032230
         H           -2.362391838831     2.232269553793     0.202774194463     1.007825032230
         H           -1.239161838831    -2.554571446207    -0.138997805537     1.007825032230
         H           -4.163755838831     0.552683553793     0.380977194463     1.007825032230
         H           -3.595796838831    -1.882080446207     0.176673194463     1.007825032230

  Basis Set: AUG-CC-PVTZ
    Blend: AUG-CC-PVTZ
  Basis Set: (AUG-CC-PVTZ AUX)
    Blend: AUG-CC-PVTZ-JKFIT
	 Reference Energy          =    -514.5920268087137401 [Eh]
	 Singles Energy            =      -0.0000000000000000 [Eh]
	 Same-Spin Energy          =      -0.5576166634408936 [Eh]
	 Opposite-Spin Energy      =      -1.7427669136885433 [Eh]
	 Correlation Energy        =      -2.3003835771294368 [Eh]
	 Total Energy              =    -516.8924103858431636 [Eh]

	 ================> DF-SCS-MP2 Energies <==================
	-----------------------------------------------------------
	 SCS Same-Spin Scale       =       0.3333333333333333 [-]
	 SCS Opposite-Spin Scale   =       1.2000000000000000 [-]
	 SCS Same-Spin Energy      =      -0.1858722211469645 [Eh]
	 SCS Opposite-Spin Energy  =      -2.0913202964262521 [Eh]
	 SCS Correlation Energy    =      -2.2771925175732166 [Eh]
	 SCS Total Energy          =    -516.8692193262869523 [Eh]
	-----------------------------------------------------------

  Dipole Moment: [D]
     X:    -2.9659      Y:     2.1230      Z:     0.0605     Total:     3.6479

*** Psi4 exiting successfully. Buy a developer a beer!
