                               Psi4 1.3.2 release

  ==> Input File <==

--------------------------------------------------------------------------
#psi4
#
memory 32 gb

molecule  {
0 1
  O        3.0005300    -1.5493530     0.0754490
  N        0.8317470    -1.1153310    -0.4215630
  C        0.1960040     1.9504030    -0.2395030
  C        1.6857700     1.6448450    -0.3508570
  C       -0.7674710     0.7851500    -0.1025020
  C        2.1481850     0.6250380     0.6971500
  C       -0.4596220    -0.5879500    -0.1790540
  C        2.0592360    -0.7909409     0.1314661
  C       -2.1103850     1.1321340     0.1249900
  C       -1.4919760    -1.5397800    -0.0852490
  C       -3.1313420     0.1920050     0.2149350
  C       -2.8150140    -1.1632860     0.1069400
  H       -0.1141940     2.5504580    -1.1051150
  H        0.0480080     2.5950730     0.6372840
  H        1.9308140     1.2745600    -1.3520490
  H        2.2359360     2.5841340    -0.2253410
  H        1.5370720     0.7103830     1.6057590
  H        3.1934550     0.7649280     0.9813470
  H        0.8461440    -2.0798130    -0.7458600
  H       -2.3558010     2.1909910     0.2008090
  H       -1.2325710    -2.5958500    -0.1409630
  H       -4.1571650     0.5114050     0.3790120
  H       -3.5892060    -1.9233590     0.1747080
units angstrom
no_reorient  #important for SAPT in psi4, default
symmetry c1  #important for SAPT in psi4, default
}

set PROPERTIES_ORIGIN ["COM"]
properties('MP2/aug-cc-pvtz', properties = ['dipole'])
--------------------------------------------------------------------------

    Molecular point group: c1
  Charge       = 0
  Multiplicity = 1
  Basis Set: AUG-CC-PVTZ
    Blend: AUG-CC-PVTZ
  Basis Set: (AUG-CC-PVTZ AUX)
    Blend: AUG-CC-PVTZ-JKFIT

    Orbital Energies [Eh]
    ---------------------

    Doubly Occupied:

       1A    -20.528434     2A    -15.594639     3A    -11.355437
       4A    -11.297255     5A    -11.254706     6A    -11.246075
       7A    -11.244542     8A    -11.244129     9A    -11.244044
      10A    -11.241610    11A    -11.240714    12A    -11.239493
      13A     -1.392838    14A     -1.254305    15A     -1.151337
      16A     -1.099356    17A     -1.036633    18A     -1.015966
      19A     -0.954152    20A     -0.879127    21A     -0.842513
      22A     -0.807572    23A     -0.764062    24A     -0.721506
      25A     -0.681118    26A     -0.670783    27A     -0.646328
      28A     -0.630709    29A     -0.612189    30A     -0.603243
      31A     -0.600033    32A     -0.579024    33A     -0.566128
      34A     -0.541607    35A     -0.517757    36A     -0.511696
      37A     -0.498507    38A     -0.490465    39A     -0.483029
      40A     -0.437781    41A     -0.424687    42A     -0.340083
      43A     -0.315840

  @DF-RHF Final Energy:  -514.59538925641323

   => Energetics <=

    Nuclear Repulsion Energy =            674.9977627568122216
    One-Electron Energy =               -2037.5834009294062525
    Two-Electron Energy =                 847.9902489161806898
    Total Energy =                       -514.5953892564132275
  Basis Set: (AUG-CC-PVTZ AUX)
    Blend: AUG-CC-PVTZ-RI
    Molecular point group: c1

    Geometry (in Angstrom), charge = 0, multiplicity = 1:

       Center              X                  Y                   Z               Mass
    ------------   -----------------  -----------------  -----------------  -----------------
         O            2.989787919988    -1.507176308946     0.078328169417    15.994914619570
         N            0.821004919988    -1.073154308946    -0.418683830583    14.003074004430
         C            0.185261919988     1.992579691054    -0.236623830583    12.000000000000
         C            1.675027919988     1.687021691054    -0.347977830583    12.000000000000
         C           -0.778213080012     0.827326691054    -0.099622830583    12.000000000000
         C            2.137442919988     0.667214691054     0.700029169417    12.000000000000
         C           -0.470364080012    -0.545773308946    -0.176174830583    12.000000000000
         C            2.048493919988    -0.748764208946     0.134345269417    12.000000000000
         C           -2.121127080012     1.174310691054     0.127869169417    12.000000000000
         C           -1.502718080012    -1.497603308946    -0.082369830583    12.000000000000
         C           -3.142084080012     0.234181691054     0.217814169417    12.000000000000
         C           -2.825756080012    -1.121109308946     0.109819169417    12.000000000000
         H           -0.124936080012     2.592634691054    -1.102235830583     1.007825032230
         H            0.037265919988     2.637249691054     0.640163169417     1.007825032230
         H            1.920071919988     1.316736691054    -1.349169830583     1.007825032230
         H            2.225193919988     2.626310691054    -0.222461830583     1.007825032230
         H            1.526329919988     0.752559691054     1.608638169417     1.007825032230
         H            3.182712919988     0.807104691054     0.984226169417     1.007825032230
         H            0.835401919988    -2.037636308946    -0.742980830583     1.007825032230
         H           -2.366543080012     2.233167691054     0.203688169417     1.007825032230
         H           -1.243313080012    -2.553673308946    -0.138083830583     1.007825032230
         H           -4.167907080012     0.553581691054     0.381891169417     1.007825032230
         H           -3.599948080012    -1.881182308946     0.177587169417     1.007825032230

  Basis Set: AUG-CC-PVTZ
    Blend: AUG-CC-PVTZ
  Basis Set: (AUG-CC-PVTZ AUX)
    Blend: AUG-CC-PVTZ-JKFIT
	 Reference Energy          =    -514.5953892564132275 [Eh]
	 Singles Energy            =      -0.0000000000000000 [Eh]
	 Same-Spin Energy          =      -0.5573325322351658 [Eh]
	 Opposite-Spin Energy      =      -1.7420378764184217 [Eh]
	 Correlation Energy        =      -2.2993704086535875 [Eh]
	 Total Energy              =    -516.8947596650667720 [Eh]

	 ================> DF-SCS-MP2 Energies <==================
	-----------------------------------------------------------
	 SCS Same-Spin Scale       =       0.3333333333333333 [-]
	 SCS Opposite-Spin Scale   =       1.2000000000000000 [-]
	 SCS Same-Spin Energy      =      -0.1857775107450552 [Eh]
	 SCS Opposite-Spin Energy  =      -2.0904454517021058 [Eh]
	 SCS Correlation Energy    =      -2.2762229624471613 [Eh]
	 SCS Total Energy          =    -516.8716122188603777 [Eh]
	-----------------------------------------------------------

  Dipole Moment: [D]
     X:    -2.6577      Y:     1.9485      Z:     0.0228     Total:     3.2955

*** Psi4 exiting successfully. Buy a developer a beer!
