                               Psi4 1.3.2 release

  ==> Input File <==

--------------------------------------------------------------------------
#psi4
#
memory 32 gb

molecule  {
0 1
  O        3.0005300    -1.5493530     0.0754490
  N        0.8317470    -1.1153310    -0.4215630
  C        0.1960040     1.9504030    -0.2395030
  C        1.5894491     1.5982076    -0.3482722
  C       -0.7674710     0.7851500    -0.1025020
  C        2.1481850     0.6250380     0.6971500
  C       -0.4596220    -0.5879500    -0.1790540
  C        2.0510250    -0.7686880     0.1361100
  C       -2.1103850     1.1321340     0.1249900
  C       -1.4919760    -1.5397800    -0.0852490
  C       -3.1313420     0.1920050     0.2149350
  C       -2.8150140    -1.1632860     0.1069400
  H       -0.1141940     2.5504580    -1.1051150
  H        0.0480080     2.5950730     0.6372840
  H        1.9308140     1.2745600    -1.3520490
  H        2.2359360     2.5841340    -0.2253410
  H        1.5370720     0.7103830     1.6057590
  H        3.1934550     0.7649280     0.9813470
  H        0.8461440    -2.0798130    -0.7458600
  H       -2.3558010     2.1909910     0.2008090
  H       -1.2325710    -2.5958500    -0.1409630
  H       -4.1571650     0.5114050     0.3790120
  H       -3.5892060    -1.9233590     0.1747080
units angstrom
no_reorient  #important for SAPT in psi4, default
symmetry c1  #important for SAPT in psi4, default
}

set PROPERTIES_ORIGIN ["COM"]
properties('MP2/aug-cc-pvtz', properties = ['dipole'])
--------------------------------------------------------------------------

    Molecular point group: c1
  Charge       = 0
  Multiplicity = 1
  Basis Set: AUG-CC-PVTZ
    Blend: AUG-CC-PVTZ
  Basis Set: (AUG-CC-PVTZ AUX)
    Blend: AUG-CC-PVTZ-JKFIT

    Orbital Energies [Eh]
    ---------------------

    Doubly Occupied:

       1A    -20.525336     2A    -15.595776     3A    -11.356199
       4A    -11.297882     5A    -11.254326     6A    -11.247086
       7A    -11.246854     8A    -11.245162     9A    -11.244788
      10A    -11.244199    11A    -11.242626    12A    -11.240011
      13A     -1.379958    14A     -1.253580    15A     -1.152671
      16A     -1.111855    17A     -1.038951    18A     -1.016941
      19A     -0.965076    20A     -0.875958    21A     -0.843211
      22A     -0.805314    23A     -0.766182    24A     -0.722630
      25A     -0.685256    26A     -0.672198    27A     -0.643431
      28A     -0.631099    29A     -0.617665    30A     -0.605809
      31A     -0.599356    32A     -0.579902    33A     -0.563406
      34A     -0.536787    35A     -0.527025    36A     -0.509070
      37A     -0.507745    38A     -0.491098    39A     -0.466609
      40A     -0.435005    41A     -0.423081    42A     -0.340922
      43A     -0.316123

  @DF-RHF Final Energy:  -514.58146854298047

   => Energetics <=

    Nuclear Repulsion Energy =            676.8536540332440836
    One-Electron Energy =               -2041.2219256250743911
    Two-Electron Energy =                 849.7868030488498334
    Total Energy =                       -514.5814685429804740
  Basis Set: (AUG-CC-PVTZ AUX)
    Blend: AUG-CC-PVTZ-RI
    Molecular point group: c1

    Geometry (in Angstrom), charge = 0, multiplicity = 1:

       Center              X                  Y                   Z               Mass
    ------------   -----------------  -----------------  -----------------  -----------------
         O            2.997575051558    -1.505359779162     0.077789665497    15.994914619570
         N            0.828792051558    -1.071337779162    -0.419222334503    14.003074004430
         C            0.193049051558     1.994396220838    -0.237162334503    12.000000000000
         C            1.586494151558     1.642200820838    -0.345931534503    12.000000000000
         C           -0.770425948442     0.829143220838    -0.100161334503    12.000000000000
         C            2.145230051558     0.669031220838     0.699490665497    12.000000000000
         C           -0.462576948442    -0.543956779162    -0.176713334503    12.000000000000
         C            2.048070051558    -0.724694779162     0.138450665497    12.000000000000
         C           -2.113339948442     1.176127220838     0.127330665497    12.000000000000
         C           -1.494930948442    -1.495786779162    -0.082908334503    12.000000000000
         C           -3.134296948442     0.235998220838     0.217275665497    12.000000000000
         C           -2.817968948442    -1.119292779162     0.109280665497    12.000000000000
         H           -0.117148948442     2.594451220838    -1.102774334503     1.007825032230
         H            0.045053051558     2.639066220838     0.639624665497     1.007825032230
         H            1.927859051558     1.318553220838    -1.349708334503     1.007825032230
         H            2.232981051558     2.628127220838    -0.223000334503     1.007825032230
         H            1.534117051558     0.754376220838     1.608099665497     1.007825032230
         H            3.190500051558     0.808921220838     0.983687665497     1.007825032230
         H            0.843189051558    -2.035819779162    -0.743519334503     1.007825032230
         H           -2.358755948442     2.234984220838     0.203149665497     1.007825032230
         H           -1.235525948442    -2.551856779162    -0.138622334503     1.007825032230
         H           -4.160119948442     0.555398220838     0.381352665497     1.007825032230
         H           -3.592160948442    -1.879365779162     0.177048665497     1.007825032230

  Basis Set: AUG-CC-PVTZ
    Blend: AUG-CC-PVTZ
  Basis Set: (AUG-CC-PVTZ AUX)
    Blend: AUG-CC-PVTZ-JKFIT
	 Reference Energy          =    -514.5814685429804740 [Eh]
	 Singles Energy            =      -0.0000000000000000 [Eh]
	 Same-Spin Energy          =      -0.5589136473621831 [Eh]
	 Opposite-Spin Energy      =      -1.7443246866250639 [Eh]
	 Correlation Energy        =      -2.3032383339872471 [Eh]
	 Total Energy              =    -516.8847068769676980 [Eh]

	 ================> DF-SCS-MP2 Energies <==================
	-----------------------------------------------------------
	 SCS Same-Spin Scale       =       0.3333333333333333 [-]
	 SCS Opposite-Spin Scale   =       1.2000000000000000 [-]
	 SCS Same-Spin Energy      =      -0.1863045491207277 [Eh]
	 SCS Opposite-Spin Energy  =      -2.0931896239500767 [Eh]
	 SCS Correlation Energy    =      -2.2794941730708045 [Eh]
	 SCS Total Energy          =    -516.8609627160512900 [Eh]
	-----------------------------------------------------------

  Dipole Moment: [D]
     X:    -2.7884      Y:     2.0371      Z:     0.0435     Total:     3.4536

*** Psi4 exiting successfully. Buy a developer a beer!
