                               Psi4 1.3.2 release

  ==> Input File <==

--------------------------------------------------------------------------
#psi4
#
memory 32 gb

molecule  {
0 1
  O        3.0005300    -1.5493530     0.0754490
  N        0.8317470    -1.1153310    -0.4215630
  C        0.0708233     2.0457018    -0.2171303
  C        1.6857700     1.6448450    -0.3508570
  C       -0.7674710     0.7851500    -0.1025020
  C        2.1481850     0.6250380     0.6971500
  C       -0.4596220    -0.5879500    -0.1790540
  C        2.0510250    -0.7686880     0.1361100
  C       -2.1103850     1.1321340     0.1249900
  C       -1.4919760    -1.5397800    -0.0852490
  C       -3.1313420     0.1920050     0.2149350
  C       -2.8150140    -1.1632860     0.1069400
  H       -0.1141940     2.5504580    -1.1051150
  H        0.0480080     2.5950730     0.6372840
  H        1.9308140     1.2745600    -1.3520490
  H        2.2359360     2.5841340    -0.2253410
  H        1.5370720     0.7103830     1.6057590
  H        3.1934550     0.7649280     0.9813470
  H        0.8461440    -2.0798130    -0.7458600
  H       -2.3558010     2.1909910     0.2008090
  H       -1.2325710    -2.5958500    -0.1409630
  H       -4.1571650     0.5114050     0.3790120
  H       -3.5892060    -1.9233590     0.1747080
units angstrom
no_reorient  #important for SAPT in psi4, default
symmetry c1  #important for SAPT in psi4, default
}

set PROPERTIES_ORIGIN ["COM"]
properties('MP2/aug-cc-pvtz', properties = ['dipole'])
--------------------------------------------------------------------------

    Molecular point group: c1
  Charge       = 0
  Multiplicity = 1
  Basis Set: AUG-CC-PVTZ
    Blend: AUG-CC-PVTZ
  Basis Set: (AUG-CC-PVTZ AUX)
    Blend: AUG-CC-PVTZ-JKFIT

    Orbital Energies [Eh]
    ---------------------

    Doubly Occupied:

       1A    -20.525009     2A    -15.595619     3A    -11.356150
       4A    -11.300507     5A    -11.254024     6A    -11.247197
       7A    -11.245208     8A    -11.244944     9A    -11.243220
      10A    -11.242115    11A    -11.240467    12A    -11.238618
      13A     -1.379403    14A     -1.252340    15A     -1.151901
      16A     -1.090014    17A     -1.040053    18A     -1.014890
      19A     -0.954083    20A     -0.878927    21A     -0.842104
      22A     -0.813791    23A     -0.765787    24A     -0.722075
      25A     -0.680627    26A     -0.671054    27A     -0.646514
      28A     -0.629918    29A     -0.622635    30A     -0.605439
      31A     -0.595526    32A     -0.580829    33A     -0.565822
      34A     -0.539587    35A     -0.516086    36A     -0.513630
      37A     -0.505853    38A     -0.495540    39A     -0.450263
      40A     -0.434792    41A     -0.423579    42A     -0.342700
      43A     -0.317017

  @DF-RHF Final Energy:  -514.57261718763789

   => Energetics <=

    Nuclear Repulsion Energy =            673.2869922242458642
    One-Electron Energy =               -2034.1675065595736669
    Two-Electron Energy =                 846.3078971476900279
    Total Energy =                       -514.5726171876378885
  Basis Set: (AUG-CC-PVTZ AUX)
    Blend: AUG-CC-PVTZ-RI
    Molecular point group: c1

    Geometry (in Angstrom), charge = 0, multiplicity = 1:

       Center              X                  Y                   Z               Mass
    ------------   -----------------  -----------------  -----------------  -----------------
         O            2.999724970001    -1.515933353965     0.076315560646    15.994914619570
         N            0.830941970001    -1.081911353965    -0.420696439354    14.003074004430
         C            0.070018270001     2.079121446035    -0.216263739354    12.000000000000
         C            1.684964970001     1.678264646035    -0.349990439354    12.000000000000
         C           -0.768276029999     0.818569646035    -0.101635439354    12.000000000000
         C            2.147379970001     0.658457646035     0.698016560646    12.000000000000
         C           -0.460427029999    -0.554530353965    -0.178187439354    12.000000000000
         C            2.050219970001    -0.735268353965     0.136976560646    12.000000000000
         C           -2.111190029999     1.165553646035     0.125856560646    12.000000000000
         C           -1.492781029999    -1.506360353965    -0.084382439354    12.000000000000
         C           -3.132147029999     0.225424646035     0.215801560646    12.000000000000
         C           -2.815819029999    -1.129866353965     0.107806560646    12.000000000000
         H           -0.114999029999     2.583877646035    -1.104248439354     1.007825032230
         H            0.047202970001     2.628492646035     0.638150560646     1.007825032230
         H            1.930008970001     1.307979646035    -1.351182439354     1.007825032230
         H            2.235130970001     2.617553646035    -0.224474439354     1.007825032230
         H            1.536266970001     0.743802646035     1.606625560646     1.007825032230
         H            3.192649970001     0.798347646035     0.982213560646     1.007825032230
         H            0.845338970001    -2.046393353965    -0.744993439354     1.007825032230
         H           -2.356606029999     2.224410646035     0.201675560646     1.007825032230
         H           -1.233376029999    -2.562430353965    -0.140096439354     1.007825032230
         H           -4.157970029999     0.544824646035     0.379878560646     1.007825032230
         H           -3.590011029999    -1.889939353965     0.175574560646     1.007825032230

  Basis Set: AUG-CC-PVTZ
    Blend: AUG-CC-PVTZ
  Basis Set: (AUG-CC-PVTZ AUX)
    Blend: AUG-CC-PVTZ-JKFIT
	 Reference Energy          =    -514.5726171876378885 [Eh]
	 Singles Energy            =      -0.0000000000000000 [Eh]
	 Same-Spin Energy          =      -0.5577759575056991 [Eh]
	 Opposite-Spin Energy      =      -1.7438592361912146 [Eh]
	 Correlation Energy        =      -2.3016351936969137 [Eh]
	 Total Energy              =    -516.8742523813348271 [Eh]

	 ================> DF-SCS-MP2 Energies <==================
	-----------------------------------------------------------
	 SCS Same-Spin Scale       =       0.3333333333333333 [-]
	 SCS Opposite-Spin Scale   =       1.2000000000000000 [-]
	 SCS Same-Spin Energy      =      -0.1859253191685664 [Eh]
	 SCS Opposite-Spin Energy  =      -2.0926310834294575 [Eh]
	 SCS Correlation Energy    =      -2.2785564025980238 [Eh]
	 SCS Total Energy          =    -516.8511735902359305 [Eh]
	-----------------------------------------------------------

  Dipole Moment: [D]
     X:    -2.8294      Y:     2.0494      Z:     0.0563     Total:     3.4941

*** Psi4 exiting successfully. Buy a developer a beer!
