                               Psi4 1.3.2 release

  ==> Input File <==

--------------------------------------------------------------------------
#psi4
#
memory 32 gb

molecule  {
0 1
  O        2.9218854    -1.6294684     0.0122693
  N        0.8317470    -1.1153310    -0.4215630
  C        0.1960040     1.9504030    -0.2395030
  C        1.6857700     1.6448450    -0.3508570
  C       -0.7674710     0.7851500    -0.1025020
  C        2.1481850     0.6250380     0.6971500
  C       -0.4596220    -0.5879500    -0.1790540
  C        2.0510250    -0.7686880     0.1361100
  C       -2.1103850     1.1321340     0.1249900
  C       -1.4919760    -1.5397800    -0.0852490
  C       -3.1313420     0.1920050     0.2149350
  C       -2.8150140    -1.1632860     0.1069400
  H       -0.1141940     2.5504580    -1.1051150
  H        0.0480080     2.5950730     0.6372840
  H        1.9308140     1.2745600    -1.3520490
  H        2.2359360     2.5841340    -0.2253410
  H        1.5370720     0.7103830     1.6057590
  H        3.1934550     0.7649280     0.9813470
  H        0.8461440    -2.0798130    -0.7458600
  H       -2.3558010     2.1909910     0.2008090
  H       -1.2325710    -2.5958500    -0.1409630
  H       -4.1571650     0.5114050     0.3790120
  H       -3.5892060    -1.9233590     0.1747080
units angstrom
no_reorient  #important for SAPT in psi4, default
symmetry c1  #important for SAPT in psi4, default
}

set PROPERTIES_ORIGIN ["COM"]
properties('MP2/aug-cc-pvtz', properties = ['dipole'])
--------------------------------------------------------------------------

    Molecular point group: c1
  Charge       = 0
  Multiplicity = 1
  Basis Set: AUG-CC-PVTZ
    Blend: AUG-CC-PVTZ
  Basis Set: (AUG-CC-PVTZ AUX)
    Blend: AUG-CC-PVTZ-JKFIT

    Orbital Energies [Eh]
    ---------------------

    Doubly Occupied:

       1A    -20.524437     2A    -15.589636     3A    -11.357652
       4A    -11.294237     5A    -11.253457     6A    -11.249497
       7A    -11.245756     8A    -11.245025     9A    -11.245019
      10A    -11.243917    11A    -11.242251    12A    -11.238147
      13A     -1.383029    14A     -1.246447    15A     -1.149031
      16A     -1.104028    17A     -1.039821    18A     -1.013740
      19A     -0.958809    20A     -0.880033    21A     -0.840877
      22A     -0.808585    23A     -0.765083    24A     -0.720309
      25A     -0.681817    26A     -0.669592    27A     -0.646192
      28A     -0.627945    29A     -0.611066    30A     -0.603430
      31A     -0.600922    32A     -0.579508    33A     -0.563975
      34A     -0.542686    35A     -0.516627    36A     -0.512271
      37A     -0.498270    38A     -0.492520    39A     -0.483753
      40A     -0.431800    41A     -0.428379    42A     -0.339329
      43A     -0.312948

  @DF-RHF Final Energy:  -514.59112867169176

   => Energetics <=

    Nuclear Repulsion Energy =            675.4903606631824005
    One-Electron Energy =               -2038.5992725289493137
    Two-Electron Energy =                 848.5177831940751503
    Total Energy =                       -514.5911286716917630
  Basis Set: (AUG-CC-PVTZ AUX)
    Blend: AUG-CC-PVTZ-RI
    Molecular point group: c1

    Geometry (in Angstrom), charge = 0, multiplicity = 1:

       Center              X                  Y                   Z               Mass
    ------------   -----------------  -----------------  -----------------  -----------------
         O            2.919564051554    -1.580994349930     0.021075977599    15.994914619570
         N            0.829425651554    -1.066856949930    -0.412756322401    14.003074004430
         C            0.193682651554     1.998877050070    -0.230696322401    12.000000000000
         C            1.683448651554     1.693319050070    -0.342050322401    12.000000000000
         C           -0.769792348446     0.833624050070    -0.093695322401    12.000000000000
         C            2.145863651554     0.673512050070     0.705956677599    12.000000000000
         C           -0.461943348446    -0.539475949930    -0.170247322401    12.000000000000
         C            2.048703651554    -0.720213949930     0.144916677599    12.000000000000
         C           -2.112706348446     1.180608050070     0.133796677599    12.000000000000
         C           -1.494297348446    -1.491305949930    -0.076442322401    12.000000000000
         C           -3.133663348446     0.240479050070     0.223741677599    12.000000000000
         C           -2.817335348446    -1.114811949930     0.115746677599    12.000000000000
         H           -0.116515348446     2.598932050070    -1.096308322401     1.007825032230
         H            0.045686651554     2.643547050070     0.646090677599     1.007825032230
         H            1.928492651554     1.323034050070    -1.343242322401     1.007825032230
         H            2.233614651554     2.632608050070    -0.216534322401     1.007825032230
         H            1.534750651554     0.758857050070     1.614565677599     1.007825032230
         H            3.191133651554     0.813402050070     0.990153677599     1.007825032230
         H            0.843822651554    -2.031338949930    -0.737053322401     1.007825032230
         H           -2.358122348446     2.239465050070     0.209615677599     1.007825032230
         H           -1.234892348446    -2.547375949930    -0.132156322401     1.007825032230
         H           -4.159486348446     0.559879050070     0.387818677599     1.007825032230
         H           -3.591527348446    -1.874884949930     0.183514677599     1.007825032230

  Basis Set: AUG-CC-PVTZ
    Blend: AUG-CC-PVTZ
  Basis Set: (AUG-CC-PVTZ AUX)
    Blend: AUG-CC-PVTZ-JKFIT
	 Reference Energy          =    -514.5911286716917630 [Eh]
	 Singles Energy            =      -0.0000000000000000 [Eh]
	 Same-Spin Energy          =      -0.5580231952306524 [Eh]
	 Opposite-Spin Energy      =      -1.7431577653148564 [Eh]
	 Correlation Energy        =      -2.3011809605455089 [Eh]
	 Total Energy              =    -516.8923096322372430 [Eh]

	 ================> DF-SCS-MP2 Energies <==================
	-----------------------------------------------------------
	 SCS Same-Spin Scale       =       0.3333333333333333 [-]
	 SCS Opposite-Spin Scale   =       1.2000000000000000 [-]
	 SCS Same-Spin Energy      =      -0.1860077317435508 [Eh]
	 SCS Opposite-Spin Energy  =      -2.0917893183778276 [Eh]
	 SCS Correlation Energy    =      -2.2777970501213782 [Eh]
	 SCS Total Energy          =    -516.8689257218131843 [Eh]
	-----------------------------------------------------------

  Dipole Moment: [D]
     X:    -2.4665      Y:     2.2757      Z:     0.1740     Total:     3.3605

*** Psi4 exiting successfully. Buy a developer a beer!
