                               Psi4 1.3.2 release

  ==> Input File <==

--------------------------------------------------------------------------
#psi4
#
memory 32 gb

molecule  {
0 1
  O        3.0005300    -1.5493530     0.0754490
  N        0.8317470    -1.1153310    -0.4215630
  C        0.1960040     1.9504030    -0.2395030
  C        1.6857700     1.6448450    -0.3508570
  C       -0.7674710     0.7851500    -0.1025020
  C        2.1481850     0.6250380     0.6971500
  C       -0.4360021    -0.5822235    -0.1828321
  C        2.0510250    -0.7686880     0.1361100
  C       -2.1103850     1.1321340     0.1249900
  C       -1.4919760    -1.5397800    -0.0852490
  C       -3.1313420     0.1920050     0.2149350
  C       -2.8150140    -1.1632860     0.1069400
  H       -0.1141940     2.5504580    -1.1051150
  H        0.0480080     2.5950730     0.6372840
  H        1.9308140     1.2745600    -1.3520490
  H        2.2359360     2.5841340    -0.2253410
  H        1.5370720     0.7103830     1.6057590
  H        3.1934550     0.7649280     0.9813470
  H        0.8461440    -2.0798130    -0.7458600
  H       -2.3558010     2.1909910     0.2008090
  H       -1.2325710    -2.5958500    -0.1409630
  H       -4.1571650     0.5114050     0.3790120
  H       -3.5892060    -1.9233590     0.1747080
units angstrom
no_reorient  #important for SAPT in psi4, default
symmetry c1  #important for SAPT in psi4, default
}

set PROPERTIES_ORIGIN ["COM"]
properties('MP2/aug-cc-pvtz', properties = ['dipole'])
--------------------------------------------------------------------------

    Molecular point group: c1
  Charge       = 0
  Multiplicity = 1
  Basis Set: AUG-CC-PVTZ
    Blend: AUG-CC-PVTZ
  Basis Set: (AUG-CC-PVTZ AUX)
    Blend: AUG-CC-PVTZ-JKFIT

    Orbital Energies [Eh]
    ---------------------

    Doubly Occupied:

       1A    -20.527122     2A    -15.598043     3A    -11.358239
       4A    -11.298292     5A    -11.254307     6A    -11.246431
       7A    -11.245170     8A    -11.244704     9A    -11.243970
      10A    -11.243479    11A    -11.242396    12A    -11.239099
      13A     -1.381908    14A     -1.258557    15A     -1.150030
      16A     -1.101637    17A     -1.038910    18A     -1.013399
      19A     -0.956839    20A     -0.881538    21A     -0.843462
      22A     -0.809681    23A     -0.765077    24A     -0.724438
      25A     -0.682643    26A     -0.672374    27A     -0.646261
      28A     -0.628220    29A     -0.611747    30A     -0.602901
      31A     -0.600108    32A     -0.579737    33A     -0.565074
      34A     -0.542331    35A     -0.518584    36A     -0.510354
      37A     -0.497954    38A     -0.490810    39A     -0.481374
      40A     -0.437025    41A     -0.427299    42A     -0.339648
      43A     -0.313359

  @DF-RHF Final Energy:  -514.59333078728469

   => Energetics <=

    Nuclear Repulsion Energy =            675.1528107076289871
    One-Electron Energy =               -2037.8632217021186079
    Two-Electron Energy =                 848.1170802072049355
    Total Energy =                       -514.5933307872846854
  Basis Set: (AUG-CC-PVTZ AUX)
    Blend: AUG-CC-PVTZ-RI
    Molecular point group: c1

    Geometry (in Angstrom), charge = 0, multiplicity = 1:

       Center              X                  Y                   Z               Mass
    ------------   -----------------  -----------------  -----------------  -----------------
         O            2.988640029902    -1.509260641758     0.078263671417    15.994914619570
         N            0.819857029902    -1.075238641758    -0.418748328583    14.003074004430
         C            0.184114029902     1.990495358242    -0.236688328583    12.000000000000
         C            1.673880029902     1.684937358242    -0.348042328583    12.000000000000
         C           -0.779360970098     0.825242358242    -0.099687328583    12.000000000000
         C            2.136295029902     0.665130358242     0.699964671417    12.000000000000
         C           -0.447892070098    -0.542131141758    -0.180017428583    12.000000000000
         C            2.039135029902    -0.728595641758     0.138924671417    12.000000000000
         C           -2.122274970098     1.172226358242     0.127804671417    12.000000000000
         C           -1.503865970098    -1.499687641758    -0.082434328583    12.000000000000
         C           -3.143231970098     0.232097358242     0.217749671417    12.000000000000
         C           -2.826903970098    -1.123193641758     0.109754671417    12.000000000000
         H           -0.126083970098     2.590550358242    -1.102300328583     1.007825032230
         H            0.036118029902     2.635165358242     0.640098671417     1.007825032230
         H            1.918924029902     1.314652358242    -1.349234328583     1.007825032230
         H            2.224046029902     2.624226358242    -0.222526328583     1.007825032230
         H            1.525182029902     0.750475358242     1.608573671417     1.007825032230
         H            3.181565029902     0.805020358242     0.984161671417     1.007825032230
         H            0.834254029902    -2.039720641758    -0.743045328583     1.007825032230
         H           -2.367690970098     2.231083358242     0.203623671417     1.007825032230
         H           -1.244460970098    -2.555757641758    -0.138148328583     1.007825032230
         H           -4.169054970098     0.551497358242     0.381826671417     1.007825032230
         H           -3.601095970098    -1.883266641758     0.177522671417     1.007825032230

  Basis Set: AUG-CC-PVTZ
    Blend: AUG-CC-PVTZ
  Basis Set: (AUG-CC-PVTZ AUX)
    Blend: AUG-CC-PVTZ-JKFIT
	 Reference Energy          =    -514.5933307872846854 [Eh]
	 Singles Energy            =      -0.0000000000000000 [Eh]
	 Same-Spin Energy          =      -0.5580548230014024 [Eh]
	 Opposite-Spin Energy      =      -1.7433203718360843 [Eh]
	 Correlation Energy        =      -2.3013751948374868 [Eh]
	 Total Energy              =    -516.8947059821222183 [Eh]

	 ================> DF-SCS-MP2 Energies <==================
	-----------------------------------------------------------
	 SCS Same-Spin Scale       =       0.3333333333333333 [-]
	 SCS Opposite-Spin Scale   =       1.2000000000000000 [-]
	 SCS Same-Spin Energy      =      -0.1860182743338008 [Eh]
	 SCS Opposite-Spin Energy  =      -2.0919844462033010 [Eh]
	 SCS Correlation Energy    =      -2.2780027205371018 [Eh]
	 SCS Total Energy          =    -516.8713335078217597 [Eh]
	-----------------------------------------------------------

  Dipole Moment: [D]
     X:    -2.6287      Y:     2.0298      Z:     0.0213     Total:     3.3212

*** Psi4 exiting successfully. Buy a developer a beer!
