                               Psi4 1.3.2 release

  ==> Input File <==

--------------------------------------------------------------------------
#psi4
#
memory 32 gb

molecule  {
0 1
  O        3.0005300    -1.5493530     0.0754490
  N        0.8317470    -1.1153310    -0.4215630
  C        0.1960040     1.9504030    -0.2395030
  C        1.6857700     1.6448450    -0.3508570
  C       -0.7674710     0.7851500    -0.1025020
  C        2.1481850     0.6250380     0.6971500
  C       -0.4596220    -0.5879500    -0.1790540
  C        2.0510250    -0.7686880     0.1361100
  C       -2.3014724     1.1815074     0.1573605
  C       -1.4919760    -1.5397800    -0.0852490
  C       -3.1313420     0.1920050     0.2149350
  C       -2.8150140    -1.1632860     0.1069400
  H       -0.1141940     2.5504580    -1.1051150
  H        0.0480080     2.5950730     0.6372840
  H        1.9308140     1.2745600    -1.3520490
  H        2.2359360     2.5841340    -0.2253410
  H        1.5370720     0.7103830     1.6057590
  H        3.1934550     0.7649280     0.9813470
  H        0.8461440    -2.0798130    -0.7458600
  H       -2.3558010     2.1909910     0.2008090
  H       -1.2325710    -2.5958500    -0.1409630
  H       -4.1571650     0.5114050     0.3790120
  H       -3.5892060    -1.9233590     0.1747080
units angstrom
no_reorient  #important for SAPT in psi4, default
symmetry c1  #important for SAPT in psi4, default
}

set PROPERTIES_ORIGIN ["COM"]
properties('MP2/aug-cc-pvtz', properties = ['dipole'])
--------------------------------------------------------------------------

    Molecular point group: c1
  Charge       = 0
  Multiplicity = 1
  Basis Set: AUG-CC-PVTZ
    Blend: AUG-CC-PVTZ
  Basis Set: (AUG-CC-PVTZ AUX)
    Blend: AUG-CC-PVTZ-JKFIT

    Orbital Energies [Eh]
    ---------------------

    Doubly Occupied:

       1A    -20.524178     2A    -15.594298     3A    -11.355738
       4A    -11.293072     5A    -11.267029     6A    -11.250149
       7A    -11.247290     8A    -11.245848     9A    -11.245483
      10A    -11.242341    11A    -11.241564    12A    -11.232211
      13A     -1.378726    14A     -1.250559    15A     -1.146679
      16A     -1.100025    17A     -1.036922    18A     -1.023827
      19A     -0.951867    20A     -0.884974    21A     -0.844449
      22A     -0.802857    23A     -0.762173    24A     -0.728094
      25A     -0.680633    26A     -0.671405    27A     -0.658803
      28A     -0.629452    29A     -0.610626    30A     -0.605807
      31A     -0.600268    32A     -0.576204    33A     -0.562999
      34A     -0.546430    35A     -0.517446    36A     -0.507557
      37A     -0.494375    38A     -0.492846    39A     -0.458811
      40A     -0.440207    41A     -0.424280    42A     -0.343420
      43A     -0.311152

  @DF-RHF Final Energy:  -514.55450445167332

   => Energetics <=

    Nuclear Repulsion Energy =            672.2427822470426690
    One-Electron Energy =               -2032.0284217260727928
    Two-Electron Energy =                 845.2311350273567996
    Total Energy =                       -514.5545044516733242
  Basis Set: (AUG-CC-PVTZ AUX)
    Blend: AUG-CC-PVTZ-RI
    Molecular point group: c1

    Geometry (in Angstrom), charge = 0, multiplicity = 1:

       Center              X                  Y                   Z               Mass
    ------------   -----------------  -----------------  -----------------  -----------------
         O            3.004634707069    -1.512512129131     0.075570771888    15.994914619570
         N            0.835851707069    -1.078490129131    -0.421441228112    14.003074004430
         C            0.200108707069     1.987243870869    -0.239381228112    12.000000000000
         C            1.689874707069     1.681685870869    -0.350735228112    12.000000000000
         C           -0.763366292931     0.821990870869    -0.102380228112    12.000000000000
         C            2.152289707069     0.661878870869     0.697271771888    12.000000000000
         C           -0.455517292931    -0.551109129131    -0.178932228112    12.000000000000
         C            2.055129707069    -0.731847129131     0.136231771888    12.000000000000
         C           -2.297367692931     1.218348270869     0.157482271888    12.000000000000
         C           -1.487871292931    -1.502939129131    -0.085127228112    12.000000000000
         C           -3.127237292931     0.228845870869     0.215056771888    12.000000000000
         C           -2.810909292931    -1.126445129131     0.107061771888    12.000000000000
         H           -0.110089292931     2.587298870869    -1.104993228112     1.007825032230
         H            0.052112707069     2.631913870869     0.637405771888     1.007825032230
         H            1.934918707069     1.311400870869    -1.351927228112     1.007825032230
         H            2.240040707069     2.620974870869    -0.225219228112     1.007825032230
         H            1.541176707069     0.747223870869     1.605880771888     1.007825032230
         H            3.197559707069     0.801768870869     0.981468771888     1.007825032230
         H            0.850248707069    -2.042972129131    -0.745738228112     1.007825032230
         H           -2.351696292931     2.227831870869     0.200930771888     1.007825032230
         H           -1.228466292931    -2.559009129131    -0.140841228112     1.007825032230
         H           -4.153060292931     0.548245870869     0.379133771888     1.007825032230
         H           -3.585101292931    -1.886518129131     0.174829771888     1.007825032230

  Basis Set: AUG-CC-PVTZ
    Blend: AUG-CC-PVTZ
  Basis Set: (AUG-CC-PVTZ AUX)
    Blend: AUG-CC-PVTZ-JKFIT
	 Reference Energy          =    -514.5545044516733242 [Eh]
	 Singles Energy            =      -0.0000000000000000 [Eh]
	 Same-Spin Energy          =      -0.5569400256354287 [Eh]
	 Opposite-Spin Energy      =      -1.7447595199249519 [Eh]
	 Correlation Energy        =      -2.3016995455603806 [Eh]
	 Total Energy              =    -516.8562039972337061 [Eh]

	 ================> DF-SCS-MP2 Energies <==================
	-----------------------------------------------------------
	 SCS Same-Spin Scale       =       0.3333333333333333 [-]
	 SCS Opposite-Spin Scale   =       1.2000000000000000 [-]
	 SCS Same-Spin Energy      =      -0.1856466752118096 [Eh]
	 SCS Opposite-Spin Energy  =      -2.0937114239099421 [Eh]
	 SCS Correlation Energy    =      -2.2793580991217519 [Eh]
	 SCS Total Energy          =    -516.8338625507950610 [Eh]
	-----------------------------------------------------------

  Dipole Moment: [D]
     X:    -2.7990      Y:     2.1151      Z:     0.0355     Total:     3.5085

*** Psi4 exiting successfully. Buy a developer a beer!
