                               Psi4 1.3.2 release

  ==> Input File <==

--------------------------------------------------------------------------
#psi4
#
memory 32 gb

molecule  {
0 1
  O        3.0005300    -1.5493530     0.0754490
  N        0.8317470    -1.1153310    -0.4215630
  C        0.1960040     1.9504030    -0.2395030
  C        1.6857700     1.6448450    -0.3508570
  C       -0.7674710     0.7851500    -0.1025020
  C        2.1481850     0.6250380     0.6971500
  C       -0.4596220    -0.5879500    -0.1790540
  C        1.9486074    -0.7512341     0.1203294
  C       -2.1103850     1.1321340     0.1249900
  C       -1.4919760    -1.5397800    -0.0852490
  C       -3.1313420     0.1920050     0.2149350
  C       -2.8150140    -1.1632860     0.1069400
  H       -0.1141940     2.5504580    -1.1051150
  H        0.0480080     2.5950730     0.6372840
  H        1.9308140     1.2745600    -1.3520490
  H        2.2359360     2.5841340    -0.2253410
  H        1.5370720     0.7103830     1.6057590
  H        3.1934550     0.7649280     0.9813470
  H        0.8461440    -2.0798130    -0.7458600
  H       -2.3558010     2.1909910     0.2008090
  H       -1.2325710    -2.5958500    -0.1409630
  H       -4.1571650     0.5114050     0.3790120
  H       -3.5892060    -1.9233590     0.1747080
units angstrom
no_reorient  #important for SAPT in psi4, default
symmetry c1  #important for SAPT in psi4, default
}

set PROPERTIES_ORIGIN ["COM"]
properties('MP2/aug-cc-pvtz', properties = ['dipole'])
--------------------------------------------------------------------------

    Molecular point group: c1
  Charge       = 0
  Multiplicity = 1
  Basis Set: AUG-CC-PVTZ
    Blend: AUG-CC-PVTZ
  Basis Set: (AUG-CC-PVTZ AUX)
    Blend: AUG-CC-PVTZ-JKFIT

    Orbital Energies [Eh]
    ---------------------

    Doubly Occupied:

       1A    -20.500879     2A    -15.612989     3A    -11.352237
       4A    -11.304229     5A    -11.263353     6A    -11.253334
       7A    -11.251913     8A    -11.250841     9A    -11.248465
      10A    -11.247193    11A    -11.243670    12A    -11.242711
      13A     -1.349265    14A     -1.251183    15A     -1.161664
      16A     -1.104901    17A     -1.042623    18A     -1.028013
      19A     -0.960628    20A     -0.891324    21A     -0.851514
      22A     -0.818315    23A     -0.778287    24A     -0.733115
      25A     -0.679951    26A     -0.675955    27A     -0.651891
      28A     -0.626993    29A     -0.612822    30A     -0.608050
      31A     -0.601396    32A     -0.576951    33A     -0.552145
      34A     -0.546741    35A     -0.518290    36A     -0.508576
      37A     -0.498074    38A     -0.495781    39A     -0.482476
      40A     -0.417731    41A     -0.406717    42A     -0.346587
      43A     -0.325421

  @DF-RHF Final Energy:  -514.57410812733485

   => Energetics <=

    Nuclear Repulsion Energy =            676.0303868387933335
    One-Electron Energy =               -2039.4586009138895406
    Two-Electron Energy =                 848.8541059477612407
    Total Energy =                       -514.5741081273348527
  Basis Set: (AUG-CC-PVTZ AUX)
    Blend: AUG-CC-PVTZ-RI
    Molecular point group: c1

    Geometry (in Angstrom), charge = 0, multiplicity = 1:

       Center              X                  Y                   Z               Mass
    ------------   -----------------  -----------------  -----------------  -----------------
         O            2.998029226839    -1.510134277526     0.079157800833    15.994914619570
         N            0.829246226839    -1.076112277526    -0.417854199167    14.003074004430
         C            0.193503226839     1.989621722474    -0.235794199167    12.000000000000
         C            1.683269226839     1.684063722474    -0.347148199167    12.000000000000
         C           -0.769971773161     0.824368722474    -0.098793199167    12.000000000000
         C            2.145684226839     0.664256722474     0.700858800833    12.000000000000
         C           -0.462122773161    -0.548731277526    -0.175345199167    12.000000000000
         C            1.946106626839    -0.712015377526     0.124038200833    12.000000000000
         C           -2.112885773161     1.171352722474     0.128698800833    12.000000000000
         C           -1.494476773161    -1.500561277526    -0.081540199167    12.000000000000
         C           -3.133842773161     0.231223722474     0.218643800833    12.000000000000
         C           -2.817514773161    -1.124067277526     0.110648800833    12.000000000000
         H           -0.116694773161     2.589676722474    -1.101406199167     1.007825032230
         H            0.045507226839     2.634291722474     0.640992800833     1.007825032230
         H            1.928313226839     1.313778722474    -1.348340199167     1.007825032230
         H            2.233435226839     2.623352722474    -0.221632199167     1.007825032230
         H            1.534571226839     0.749601722474     1.609467800833     1.007825032230
         H            3.190954226839     0.804146722474     0.985055800833     1.007825032230
         H            0.843643226839    -2.040594277526    -0.742151199167     1.007825032230
         H           -2.358301773161     2.230209722474     0.204517800833     1.007825032230
         H           -1.235071773161    -2.556631277526    -0.137254199167     1.007825032230
         H           -4.159665773161     0.550623722474     0.382720800833     1.007825032230
         H           -3.591706773161    -1.884140277526     0.178416800833     1.007825032230

  Basis Set: AUG-CC-PVTZ
    Blend: AUG-CC-PVTZ
  Basis Set: (AUG-CC-PVTZ AUX)
    Blend: AUG-CC-PVTZ-JKFIT
	 Reference Energy          =    -514.5741081273348527 [Eh]
	 Singles Energy            =      -0.0000000000000000 [Eh]
	 Same-Spin Energy          =      -0.5595435951650203 [Eh]
	 Opposite-Spin Energy      =      -1.7462303474714074 [Eh]
	 Correlation Energy        =      -2.3057739426364279 [Eh]
	 Total Energy              =    -516.8798820699712451 [Eh]

	 ================> DF-SCS-MP2 Energies <==================
	-----------------------------------------------------------
	 SCS Same-Spin Scale       =       0.3333333333333333 [-]
	 SCS Opposite-Spin Scale   =       1.2000000000000000 [-]
	 SCS Same-Spin Energy      =      -0.1865145317216734 [Eh]
	 SCS Opposite-Spin Energy  =      -2.0954764169656888 [Eh]
	 SCS Correlation Energy    =      -2.2819909486873620 [Eh]
	 SCS Total Energy          =    -516.8560990760222467 [Eh]
	-----------------------------------------------------------

  Dipole Moment: [D]
     X:    -3.8583      Y:     2.3383      Z:    -0.1214     Total:     4.5132

*** Psi4 exiting successfully. Buy a developer a beer!
