                               Psi4 1.3.2 release

  ==> Input File <==

--------------------------------------------------------------------------
#psi4
#
memory 32 gb

molecule  {
0 1
  O        3.0005300    -1.5493530     0.0754490
  N        0.8317470    -1.1153310    -0.4215630
  C        0.3106190     1.8423385    -0.2604331
  C        1.6857700     1.6448450    -0.3508570
  C       -0.7674710     0.7851500    -0.1025020
  C        2.1481850     0.6250380     0.6971500
  C       -0.4596220    -0.5879500    -0.1790540
  C        2.0510250    -0.7686880     0.1361100
  C       -2.1103850     1.1321340     0.1249900
  C       -1.4919760    -1.5397800    -0.0852490
  C       -3.1313420     0.1920050     0.2149350
  C       -2.8150140    -1.1632860     0.1069400
  H       -0.1141940     2.5504580    -1.1051150
  H        0.0480080     2.5950730     0.6372840
  H        1.9308140     1.2745600    -1.3520490
  H        2.2359360     2.5841340    -0.2253410
  H        1.5370720     0.7103830     1.6057590
  H        3.1934550     0.7649280     0.9813470
  H        0.8461440    -2.0798130    -0.7458600
  H       -2.3558010     2.1909910     0.2008090
  H       -1.2325710    -2.5958500    -0.1409630
  H       -4.1571650     0.5114050     0.3790120
  H       -3.5892060    -1.9233590     0.1747080
units angstrom
no_reorient  #important for SAPT in psi4, default
symmetry c1  #important for SAPT in psi4, default
}

set PROPERTIES_ORIGIN ["COM"]
properties('MP2/aug-cc-pvtz', properties = ['dipole'])
--------------------------------------------------------------------------

    Molecular point group: c1
  Charge       = 0
  Multiplicity = 1
  Basis Set: AUG-CC-PVTZ
    Blend: AUG-CC-PVTZ
  Basis Set: (AUG-CC-PVTZ AUX)
    Blend: AUG-CC-PVTZ-JKFIT

    Orbital Energies [Eh]
    ---------------------

    Doubly Occupied:

       1A    -20.526604     2A    -15.597148     3A    -11.358227
       4A    -11.294663     5A    -11.259607     6A    -11.256209
       7A    -11.247623     8A    -11.246118     9A    -11.244176
      10A    -11.243774    11A    -11.241617    12A    -11.238667
      13A     -1.381126    14A     -1.254588    15A     -1.152577
      16A     -1.121548    17A     -1.038768    18A     -1.018092
      19A     -0.964009    20A     -0.881404    21A     -0.844538
      22A     -0.802955    23A     -0.766467    24A     -0.722149
      25A     -0.685711    26A     -0.671734    27A     -0.651493
      28A     -0.630411    29A     -0.620906    30A     -0.603749
      31A     -0.598539    32A     -0.579637    33A     -0.562365
      34A     -0.543825    35A     -0.522412    36A     -0.515710
      37A     -0.510046    38A     -0.474107    39A     -0.468682
      40A     -0.435601    41A     -0.426471    42A     -0.337915
      43A     -0.314422

  @DF-RHF Final Energy:  -514.56422703570047

   => Energetics <=

    Nuclear Repulsion Energy =            677.1423292534312850
    One-Electron Energy =               -2041.7003307705363113
    Two-Electron Energy =                 849.9937744814044436
    Total Energy =                       -514.5642270357004691
  Basis Set: (AUG-CC-PVTZ AUX)
    Blend: AUG-CC-PVTZ-RI
    Molecular point group: c1

    Geometry (in Angstrom), charge = 0, multiplicity = 1:

       Center              X                  Y                   Z               Mass
    ------------   -----------------  -----------------  -----------------  -----------------
         O            2.981861325833    -1.500783751082     0.079541414199    15.994914619570
         N            0.813078325833    -1.066761751082    -0.417470585801    14.003074004430
         C            0.291950325833     1.890907748918    -0.256340685801    12.000000000000
         C            1.667101325833     1.693414248918    -0.346764585801    12.000000000000
         C           -0.786139674167     0.833719248918    -0.098409585801    12.000000000000
         C            2.129516325833     0.673607248918     0.701242414199    12.000000000000
         C           -0.478290674167    -0.539380751082    -0.174961585801    12.000000000000
         C            2.032356325833    -0.720118751082     0.140202414199    12.000000000000
         C           -2.129053674167     1.180703248918     0.129082414199    12.000000000000
         C           -1.510644674167    -1.491210751082    -0.081156585801    12.000000000000
         C           -3.150010674167     0.240574248918     0.219027414199    12.000000000000
         C           -2.833682674167    -1.114716751082     0.111032414199    12.000000000000
         H           -0.132862674167     2.599027248918    -1.101022585801     1.007825032230
         H            0.029339325833     2.643642248918     0.641376414199     1.007825032230
         H            1.912145325833     1.323129248918    -1.347956585801     1.007825032230
         H            2.217267325833     2.632703248918    -0.221248585801     1.007825032230
         H            1.518403325833     0.758952248918     1.609851414199     1.007825032230
         H            3.174786325833     0.813497248918     0.985439414199     1.007825032230
         H            0.827475325833    -2.031243751082    -0.741767585801     1.007825032230
         H           -2.374469674167     2.239560248918     0.204901414199     1.007825032230
         H           -1.251239674167    -2.547280751082    -0.136870585801     1.007825032230
         H           -4.175833674167     0.559974248918     0.383104414199     1.007825032230
         H           -3.607874674167    -1.874789751082     0.178800414199     1.007825032230

  Basis Set: AUG-CC-PVTZ
    Blend: AUG-CC-PVTZ
  Basis Set: (AUG-CC-PVTZ AUX)
    Blend: AUG-CC-PVTZ-JKFIT
	 Reference Energy          =    -514.5642270357004691 [Eh]
	 Singles Energy            =      -0.0000000000000000 [Eh]
	 Same-Spin Energy          =      -0.5600089232212970 [Eh]
	 Opposite-Spin Energy      =      -1.7460757393132571 [Eh]
	 Correlation Energy        =      -2.3060846625345541 [Eh]
	 Total Energy              =    -516.8703116982350139 [Eh]

	 ================> DF-SCS-MP2 Energies <==================
	-----------------------------------------------------------
	 SCS Same-Spin Scale       =       0.3333333333333333 [-]
	 SCS Opposite-Spin Scale   =       1.2000000000000000 [-]
	 SCS Same-Spin Energy      =      -0.1866696410737657 [Eh]
	 SCS Opposite-Spin Energy  =      -2.0952908871759086 [Eh]
	 SCS Correlation Energy    =      -2.2819605282496744 [Eh]
	 SCS Total Energy          =    -516.8461875639501386 [Eh]
	-----------------------------------------------------------

  Dipole Moment: [D]
     X:    -2.6295      Y:     2.0136      Z:     0.0141     Total:     3.3119

*** Psi4 exiting successfully. Buy a developer a beer!
