                               Psi4 1.3.2 release

  ==> Input File <==

--------------------------------------------------------------------------
#psi4
#
memory 32 gb

molecule  {
0 1
  O        3.0005300    -1.5493530     0.0754490
  N        0.8317470    -1.1153310    -0.4215630
  C        0.1960040     1.9504030    -0.2395030
  C        1.6857700     1.6448450    -0.3508570
  C       -0.7116235     0.7537135    -0.0181108
  C        2.1481850     0.6250380     0.6971500
  C       -0.4596220    -0.5879500    -0.1790540
  C        2.0510250    -0.7686880     0.1361100
  C       -2.1103850     1.1321340     0.1249900
  C       -1.4919760    -1.5397800    -0.0852490
  C       -3.1313420     0.1920050     0.2149350
  C       -2.8150140    -1.1632860     0.1069400
  H       -0.1141940     2.5504580    -1.1051150
  H        0.0480080     2.5950730     0.6372840
  H        1.9308140     1.2745600    -1.3520490
  H        2.2359360     2.5841340    -0.2253410
  H        1.5370720     0.7103830     1.6057590
  H        3.1934550     0.7649280     0.9813470
  H        0.8461440    -2.0798130    -0.7458600
  H       -2.3558010     2.1909910     0.2008090
  H       -1.2325710    -2.5958500    -0.1409630
  H       -4.1571650     0.5114050     0.3790120
  H       -3.5892060    -1.9233590     0.1747080
units angstrom
no_reorient  #important for SAPT in psi4, default
symmetry c1  #important for SAPT in psi4, default
}

set PROPERTIES_ORIGIN ["COM"]
properties('MP2/aug-cc-pvtz', properties = ['dipole'])
--------------------------------------------------------------------------

    Molecular point group: c1
  Charge       = 0
  Multiplicity = 1
  Basis Set: AUG-CC-PVTZ
    Blend: AUG-CC-PVTZ
  Basis Set: (AUG-CC-PVTZ AUX)
    Blend: AUG-CC-PVTZ-JKFIT

    Orbital Energies [Eh]
    ---------------------

    Doubly Occupied:

       1A    -20.524964     2A    -15.594695     3A    -11.356537
       4A    -11.294533     5A    -11.254756     6A    -11.250990
       7A    -11.248138     8A    -11.245731     9A    -11.245152
      10A    -11.242199    11A    -11.240637    12A    -11.240021
      13A     -1.379527    14A     -1.253965    15A     -1.149101
      16A     -1.101916    17A     -1.038622    18A     -1.014726
      19A     -0.957971    20A     -0.879500    21A     -0.845745
      22A     -0.808101    23A     -0.762922    24A     -0.721650
      25A     -0.681307    26A     -0.671311    27A     -0.645672
      28A     -0.628802    29A     -0.613551    30A     -0.601569
      31A     -0.600928    32A     -0.577131    33A     -0.564389
      34A     -0.540045    35A     -0.517478    36A     -0.511131
      37A     -0.497304    38A     -0.496745    39A     -0.477083
      40A     -0.435270    41A     -0.425387    42A     -0.336005
      43A     -0.319989

  @DF-RHF Final Energy:  -514.58847679014889

   => Energetics <=

    Nuclear Repulsion Energy =            675.4740114963458382
    One-Electron Energy =               -2038.5385883116566674
    Two-Electron Energy =                 848.4761000251619407
    Total Energy =                       -514.5884767901488885
  Basis Set: (AUG-CC-PVTZ AUX)
    Blend: AUG-CC-PVTZ-RI
    Molecular point group: c1

    Geometry (in Angstrom), charge = 0, multiplicity = 1:

       Center              X                  Y                   Z               Mass
    ------------   -----------------  -----------------  -----------------  -----------------
         O            2.986239226307    -1.506492174233     0.071695476067    15.994914619570
         N            0.817456226307    -1.072470174233    -0.425316523933    14.003074004430
         C            0.181713226307     1.993263825767    -0.243256523933    12.000000000000
         C            1.671479226307     1.687705825767    -0.354610523933    12.000000000000
         C           -0.725914273693     0.796574325767    -0.021864323933    12.000000000000
         C            2.133894226307     0.667898825767     0.693396476067    12.000000000000
         C           -0.473912773693    -0.545089174233    -0.182807523933    12.000000000000
         C            2.036734226307    -0.725827174233     0.132356476067    12.000000000000
         C           -2.124675773693     1.174994825767     0.121236476067    12.000000000000
         C           -1.506266773693    -1.496919174233    -0.089002523933    12.000000000000
         C           -3.145632773693     0.234865825767     0.211181476067    12.000000000000
         C           -2.829304773693    -1.120425174233     0.103186476067    12.000000000000
         H           -0.128484773693     2.593318825767    -1.108868523933     1.007825032230
         H            0.033717226307     2.637933825767     0.633530476067     1.007825032230
         H            1.916523226307     1.317420825767    -1.355802523933     1.007825032230
         H            2.221645226307     2.626994825767    -0.229094523933     1.007825032230
         H            1.522781226307     0.753243825767     1.602005476067     1.007825032230
         H            3.179164226307     0.807788825767     0.977593476067     1.007825032230
         H            0.831853226307    -2.036952174233    -0.749613523933     1.007825032230
         H           -2.370091773693     2.233851825767     0.197055476067     1.007825032230
         H           -1.246861773693    -2.552989174233    -0.144716523933     1.007825032230
         H           -4.171455773693     0.554265825767     0.375258476067     1.007825032230
         H           -3.603496773693    -1.880498174233     0.170954476067     1.007825032230

  Basis Set: AUG-CC-PVTZ
    Blend: AUG-CC-PVTZ
  Basis Set: (AUG-CC-PVTZ AUX)
    Blend: AUG-CC-PVTZ-JKFIT
	 Reference Energy          =    -514.5884767901488885 [Eh]
	 Singles Energy            =      -0.0000000000000000 [Eh]
	 Same-Spin Energy          =      -0.5579275334593574 [Eh]
	 Opposite-Spin Energy      =      -1.7437861206683309 [Eh]
	 Correlation Energy        =      -2.3017136541276884 [Eh]
	 Total Energy              =    -516.8901904442765272 [Eh]

	 ================> DF-SCS-MP2 Energies <==================
	-----------------------------------------------------------
	 SCS Same-Spin Scale       =       0.3333333333333333 [-]
	 SCS Opposite-Spin Scale   =       1.2000000000000000 [-]
	 SCS Same-Spin Energy      =      -0.1859758444864525 [Eh]
	 SCS Opposite-Spin Energy  =      -2.0925433448019972 [Eh]
	 SCS Correlation Energy    =      -2.2785191892884495 [Eh]
	 SCS Total Energy          =    -516.8669959794373199 [Eh]
	-----------------------------------------------------------

  Dipole Moment: [D]
     X:    -2.8185      Y:     2.0525      Z:     0.0098     Total:     3.4866

*** Psi4 exiting successfully. Buy a developer a beer!
