                               Psi4 1.3.2 release

  ==> Input File <==

--------------------------------------------------------------------------
#psi4
#
memory 32 gb

molecule  {
0 1
  O        3.0005300    -1.5493530     0.0754490
  N        0.8317470    -1.1153310    -0.4215630
  C        0.1960040     1.9504030    -0.2395030
  C        1.6857700     1.6448450    -0.3508570
  C       -0.7674710     0.7851500    -0.1025020
  C        2.1481850     0.6250380     0.6971500
  C       -0.4814666    -0.4905164    -0.1736220
  C        2.0510250    -0.7686880     0.1361100
  C       -2.1103850     1.1321340     0.1249900
  C       -1.4919760    -1.5397800    -0.0852490
  C       -3.1313420     0.1920050     0.2149350
  C       -2.8150140    -1.1632860     0.1069400
  H       -0.1141940     2.5504580    -1.1051150
  H        0.0480080     2.5950730     0.6372840
  H        1.9308140     1.2745600    -1.3520490
  H        2.2359360     2.5841340    -0.2253410
  H        1.5370720     0.7103830     1.6057590
  H        3.1934550     0.7649280     0.9813470
  H        0.8461440    -2.0798130    -0.7458600
  H       -2.3558010     2.1909910     0.2008090
  H       -1.2325710    -2.5958500    -0.1409630
  H       -4.1571650     0.5114050     0.3790120
  H       -3.5892060    -1.9233590     0.1747080
units angstrom
no_reorient  #important for SAPT in psi4, default
symmetry c1  #important for SAPT in psi4, default
}

set PROPERTIES_ORIGIN ["COM"]
properties('MP2/aug-cc-pvtz', properties = ['dipole'])
--------------------------------------------------------------------------

    Molecular point group: c1
  Charge       = 0
  Multiplicity = 1
  Basis Set: AUG-CC-PVTZ
    Blend: AUG-CC-PVTZ
  Basis Set: (AUG-CC-PVTZ AUX)
    Blend: AUG-CC-PVTZ-JKFIT

    Orbital Energies [Eh]
    ---------------------

    Doubly Occupied:

       1A    -20.520003     2A    -15.592090     3A    -11.351028
       4A    -11.294411     5A    -11.252290     6A    -11.248426
       7A    -11.247707     8A    -11.246136     9A    -11.245440
      10A    -11.242790    11A    -11.241785    12A    -11.240571
      13A     -1.374189    14A     -1.239395    15A     -1.157834
      16A     -1.100712    17A     -1.046732    18A     -1.011126
      19A     -0.962139    20A     -0.874249    21A     -0.852245
      22A     -0.806058    23A     -0.759966    24A     -0.716137
      25A     -0.679808    26A     -0.673170    27A     -0.644231
      28A     -0.632020    29A     -0.610043    30A     -0.600279
      31A     -0.596972    32A     -0.579937    33A     -0.563595
      34A     -0.540202    35A     -0.523024    36A     -0.510905
      37A     -0.499438    38A     -0.492045    39A     -0.479576
      40A     -0.429060    41A     -0.420007    42A     -0.346275
      43A     -0.323660

  @DF-RHF Final Energy:  -514.58233682209800

   => Energetics <=

    Nuclear Repulsion Energy =            675.6045590794378768
    One-Electron Energy =               -2038.8383784889394974
    Two-Electron Energy =                 848.6514825874036205
    Total Energy =                       -514.5823368220980001
  Basis Set: (AUG-CC-PVTZ AUX)
    Blend: AUG-CC-PVTZ-RI
    Molecular point group: c1

    Geometry (in Angstrom), charge = 0, multiplicity = 1:

       Center              X                  Y                   Z               Mass
    ------------   -----------------  -----------------  -----------------  -----------------
         O            2.992026919869    -1.516092386456     0.077577562579    15.994914619570
         N            0.823243919869    -1.082070386456    -0.419434437421    14.003074004430
         C            0.187500919869     1.983663613544    -0.237374437421    12.000000000000
         C            1.677266919869     1.678105613544    -0.348728437421    12.000000000000
         C           -0.775974080131     0.818410613544    -0.100373437421    12.000000000000
         C            2.139681919869     0.658298613544     0.699278562579    12.000000000000
         C           -0.489969680131    -0.457255786456    -0.171493437421    12.000000000000
         C            2.042521919869    -0.735427386456     0.138238562579    12.000000000000
         C           -2.118888080131     1.165394613544     0.127118562579    12.000000000000
         C           -1.500479080131    -1.506519386456    -0.083120437421    12.000000000000
         C           -3.139845080131     0.225265613544     0.217063562579    12.000000000000
         C           -2.823517080131    -1.130025386456     0.109068562579    12.000000000000
         H           -0.122697080131     2.583718613544    -1.102986437421     1.007825032230
         H            0.039504919869     2.628333613544     0.639412562579     1.007825032230
         H            1.922310919869     1.307820613544    -1.349920437421     1.007825032230
         H            2.227432919869     2.617394613544    -0.223212437421     1.007825032230
         H            1.528568919869     0.743643613544     1.607887562579     1.007825032230
         H            3.184951919869     0.798188613544     0.983475562579     1.007825032230
         H            0.837640919869    -2.046552386456    -0.743731437421     1.007825032230
         H           -2.364304080131     2.224251613544     0.202937562579     1.007825032230
         H           -1.241074080131    -2.562589386456    -0.138834437421     1.007825032230
         H           -4.165668080131     0.544665613544     0.381140562579     1.007825032230
         H           -3.597709080131    -1.890098386456     0.176836562579     1.007825032230

  Basis Set: AUG-CC-PVTZ
    Blend: AUG-CC-PVTZ
  Basis Set: (AUG-CC-PVTZ AUX)
    Blend: AUG-CC-PVTZ-JKFIT
	 Reference Energy          =    -514.5823368220980001 [Eh]
	 Singles Energy            =      -0.0000000000000000 [Eh]
	 Same-Spin Energy          =      -0.5569042006039977 [Eh]
	 Opposite-Spin Energy      =      -1.7428291110491312 [Eh]
	 Correlation Energy        =      -2.2997333116531289 [Eh]
	 Total Energy              =    -516.8820701337510855 [Eh]

	 ================> DF-SCS-MP2 Energies <==================
	-----------------------------------------------------------
	 SCS Same-Spin Scale       =       0.3333333333333333 [-]
	 SCS Opposite-Spin Scale   =       1.2000000000000000 [-]
	 SCS Same-Spin Energy      =      -0.1856347335346659 [Eh]
	 SCS Opposite-Spin Energy  =      -2.0913949332589574 [Eh]
	 SCS Correlation Energy    =      -2.2770296667936232 [Eh]
	 SCS Total Energy          =    -516.8593664888916237 [Eh]
	-----------------------------------------------------------

  Dipole Moment: [D]
     X:    -3.1024      Y:     2.1496      Z:     0.0415     Total:     3.7746

*** Psi4 exiting successfully. Buy a developer a beer!
