                               Psi4 1.3.2 release

  ==> Input File <==

--------------------------------------------------------------------------
#psi4
#
memory 32 gb

molecule  {
0 1
  O        3.0005300    -1.5493530     0.0754490
  N        0.8317470    -1.1153310    -0.4215630
  C        0.1960040     1.9504030    -0.2395030
  C        1.6857700     1.6448450    -0.3508570
  C       -0.7674710     0.7851500    -0.1025020
  C        2.1481850     0.6250380     0.6971500
  C       -0.4761576    -0.5700370    -0.1760565
  C        2.0510250    -0.7686880     0.1361100
  C       -2.1103850     1.1321340     0.1249900
  C       -1.4919760    -1.5397800    -0.0852490
  C       -3.1313420     0.1920050     0.2149350
  C       -2.8150140    -1.1632860     0.1069400
  H       -0.1141940     2.5504580    -1.1051150
  H        0.0480080     2.5950730     0.6372840
  H        1.9308140     1.2745600    -1.3520490
  H        2.2359360     2.5841340    -0.2253410
  H        1.5370720     0.7103830     1.6057590
  H        3.1934550     0.7649280     0.9813470
  H        0.8461440    -2.0798130    -0.7458600
  H       -2.3558010     2.1909910     0.2008090
  H       -1.2325710    -2.5958500    -0.1409630
  H       -4.1571650     0.5114050     0.3790120
  H       -3.5892060    -1.9233590     0.1747080
units angstrom
no_reorient  #important for SAPT in psi4, default
symmetry c1  #important for SAPT in psi4, default
}

set PROPERTIES_ORIGIN ["COM"]
properties('MP2/aug-cc-pvtz', properties = ['dipole'])
--------------------------------------------------------------------------

    Molecular point group: c1
  Charge       = 0
  Multiplicity = 1
  Basis Set: AUG-CC-PVTZ
    Blend: AUG-CC-PVTZ
  Basis Set: (AUG-CC-PVTZ AUX)
    Blend: AUG-CC-PVTZ-JKFIT

    Orbital Energies [Eh]
    ---------------------

    Doubly Occupied:

       1A    -20.523685     2A    -15.594322     3A    -11.355056
       4A    -11.296436     5A    -11.253925     6A    -11.247168
       7A    -11.245907     8A    -11.245657     9A    -11.245448
      10A    -11.242315    11A    -11.241710    12A    -11.240798
      13A     -1.377910    14A     -1.247323    15A     -1.153468
      16A     -1.101624    17A     -1.040362    18A     -1.016393
      19A     -0.958340    20A     -0.878710    21A     -0.844448
      22A     -0.808010    23A     -0.764510    24A     -0.719406
      25A     -0.680621    26A     -0.670521    27A     -0.645671
      28A     -0.630143    29A     -0.610869    30A     -0.602916
      31A     -0.600304    32A     -0.578789    33A     -0.564040
      34A     -0.541574    35A     -0.518078    36A     -0.511205
      37A     -0.498654    38A     -0.492851    39A     -0.482900
      40A     -0.433085    41A     -0.424002    42A     -0.341392
      43A     -0.319432

  @DF-RHF Final Energy:  -514.59408360047166

   => Energetics <=

    Nuclear Repulsion Energy =            675.1271562660018617
    One-Electron Energy =               -2037.8625163553649600
    Two-Electron Energy =                 848.1412764888913216
    Total Energy =                       -514.5940836004716630
  Basis Set: (AUG-CC-PVTZ AUX)
    Blend: AUG-CC-PVTZ-RI
    Molecular point group: c1

    Geometry (in Angstrom), charge = 0, multiplicity = 1:

       Center              X                  Y                   Z               Mass
    ------------   -----------------  -----------------  -----------------  -----------------
         O            2.991631424508    -1.510168478302     0.077758921301    15.994914619570
         N            0.822848424508    -1.076146478302    -0.419253078699    14.003074004430
         C            0.187105424508     1.989587521698    -0.237193078699    12.000000000000
         C            1.676871424508     1.684029521698    -0.348547078699    12.000000000000
         C           -0.776369575492     0.824334521698    -0.100192078699    12.000000000000
         C            2.139286424508     0.664222521698     0.699459921301    12.000000000000
         C           -0.485056175492    -0.530852478302    -0.173746578699    12.000000000000
         C            2.042126424508    -0.729503478302     0.138419921301    12.000000000000
         C           -2.119283575492     1.171318521698     0.127299921301    12.000000000000
         C           -1.500874575492    -1.500595478302    -0.082939078699    12.000000000000
         C           -3.140240575492     0.231189521698     0.217244921301    12.000000000000
         C           -2.823912575492    -1.124101478302     0.109249921301    12.000000000000
         H           -0.123092575492     2.589642521698    -1.102805078699     1.007825032230
         H            0.039109424508     2.634257521698     0.639593921301     1.007825032230
         H            1.921915424508     1.313744521698    -1.349739078699     1.007825032230
         H            2.227037424508     2.623318521698    -0.223031078699     1.007825032230
         H            1.528173424508     0.749567521698     1.608068921301     1.007825032230
         H            3.184556424508     0.804112521698     0.983656921301     1.007825032230
         H            0.837245424508    -2.040628478302    -0.743550078699     1.007825032230
         H           -2.364699575492     2.230175521698     0.203118921301     1.007825032230
         H           -1.241469575492    -2.556665478302    -0.138653078699     1.007825032230
         H           -4.166063575492     0.550589521698     0.381321921301     1.007825032230
         H           -3.598104575492    -1.884174478302     0.177017921301     1.007825032230

  Basis Set: AUG-CC-PVTZ
    Blend: AUG-CC-PVTZ
  Basis Set: (AUG-CC-PVTZ AUX)
    Blend: AUG-CC-PVTZ-JKFIT
	 Reference Energy          =    -514.5940836004716630 [Eh]
	 Singles Energy            =      -0.0000000000000000 [Eh]
	 Same-Spin Energy          =      -0.5576383628499213 [Eh]
	 Opposite-Spin Energy      =      -1.7428197995682608 [Eh]
	 Correlation Energy        =      -2.3004581624181819 [Eh]
	 Total Energy              =    -516.8945417628898440 [Eh]

	 ================> DF-SCS-MP2 Energies <==================
	-----------------------------------------------------------
	 SCS Same-Spin Scale       =       0.3333333333333333 [-]
	 SCS Opposite-Spin Scale   =       1.2000000000000000 [-]
	 SCS Same-Spin Energy      =      -0.1858794542833071 [Eh]
	 SCS Opposite-Spin Energy  =      -2.0913837594819129 [Eh]
	 SCS Correlation Energy    =      -2.2772632137652202 [Eh]
	 SCS Total Energy          =    -516.8713468142368583 [Eh]
	-----------------------------------------------------------

  Dipole Moment: [D]
     X:    -2.8737      Y:     2.0950      Z:     0.0422     Total:     3.5566

*** Psi4 exiting successfully. Buy a developer a beer!
