                               Psi4 1.3.2 release

  ==> Input File <==

--------------------------------------------------------------------------
#psi4
#
memory 32 gb

molecule  {
0 1
  O        3.0005300    -1.5493530     0.0754490
  N        0.8405825    -1.1372219    -0.4267499
  C        0.1960040     1.9504030    -0.2395030
  C        1.6857700     1.6448450    -0.3508570
  C       -0.7674710     0.7851500    -0.1025020
  C        2.1481850     0.6250380     0.6971500
  C       -0.4596220    -0.5879500    -0.1790540
  C        2.0510250    -0.7686880     0.1361100
  C       -2.1103850     1.1321340     0.1249900
  C       -1.4919760    -1.5397800    -0.0852490
  C       -3.1313420     0.1920050     0.2149350
  C       -2.8150140    -1.1632860     0.1069400
  H       -0.1141940     2.5504580    -1.1051150
  H        0.0480080     2.5950730     0.6372840
  H        1.9308140     1.2745600    -1.3520490
  H        2.2359360     2.5841340    -0.2253410
  H        1.5370720     0.7103830     1.6057590
  H        3.1934550     0.7649280     0.9813470
  H        0.8461440    -2.0798130    -0.7458600
  H       -2.3558010     2.1909910     0.2008090
  H       -1.2325710    -2.5958500    -0.1409630
  H       -4.1571650     0.5114050     0.3790120
  H       -3.5892060    -1.9233590     0.1747080
units angstrom
no_reorient  #important for SAPT in psi4, default
symmetry c1  #important for SAPT in psi4, default
}

set PROPERTIES_ORIGIN ["COM"]
properties('MP2/aug-cc-pvtz', properties = ['dipole'])
--------------------------------------------------------------------------

    Molecular point group: c1
  Charge       = 0
  Multiplicity = 1
  Basis Set: AUG-CC-PVTZ
    Blend: AUG-CC-PVTZ
  Basis Set: (AUG-CC-PVTZ AUX)
    Blend: AUG-CC-PVTZ-JKFIT

    Orbital Energies [Eh]
    ---------------------

    Doubly Occupied:

       1A    -20.523745     2A    -15.594032     3A    -11.355828
       4A    -11.298057     5A    -11.256293     6A    -11.246654
       7A    -11.245467     8A    -11.245267     9A    -11.244802
      10A    -11.243524    11A    -11.242472    12A    -11.240486
      13A     -1.379304    14A     -1.249547    15A     -1.152180
      16A     -1.102085    17A     -1.038857    18A     -1.016243
      19A     -0.958274    20A     -0.879333    21A     -0.842321
      22A     -0.808097    23A     -0.768845    24A     -0.721100
      25A     -0.681816    26A     -0.670793    27A     -0.646538
      28A     -0.628850    29A     -0.611513    30A     -0.602926
      31A     -0.601109    32A     -0.579122    33A     -0.565017
      34A     -0.541891    35A     -0.517531    36A     -0.510931
      37A     -0.498188    38A     -0.492712    39A     -0.482836
      40A     -0.433729    41A     -0.424830    42A     -0.340809
      43A     -0.317365

  @DF-RHF Final Energy:  -514.59459231518031

   => Energetics <=

    Nuclear Repulsion Energy =            674.6677906297441041
    One-Electron Energy =               -2036.9221347089003302
    Two-Electron Energy =                 847.6597517639759189
    Total Energy =                       -514.5945923151803072
  Basis Set: (AUG-CC-PVTZ AUX)
    Blend: AUG-CC-PVTZ-RI
    Molecular point group: c1

    Geometry (in Angstrom), charge = 0, multiplicity = 1:

       Center              X                  Y                   Z               Mass
    ------------   -----------------  -----------------  -----------------  -----------------
         O            2.989631528600    -1.506931063751     0.078433119244    15.994914619570
         N            0.829684028600    -1.094799963751    -0.423765780756    14.003074004430
         C            0.185105528600     1.992824936249    -0.236518880756    12.000000000000
         C            1.674871528600     1.687266936249    -0.347872880756    12.000000000000
         C           -0.778369471400     0.827571936249    -0.099517880756    12.000000000000
         C            2.137286528600     0.667459936249     0.700134119244    12.000000000000
         C           -0.470520471400    -0.545528063751    -0.176069880756    12.000000000000
         C            2.040126528600    -0.726266063751     0.139094119244    12.000000000000
         C           -2.121283471400     1.174555936249     0.127974119244    12.000000000000
         C           -1.502874471400    -1.497358063751    -0.082264880756    12.000000000000
         C           -3.142240471400     0.234426936249     0.217919119244    12.000000000000
         C           -2.825912471400    -1.120864063751     0.109924119244    12.000000000000
         H           -0.125092471400     2.592879936249    -1.102130880756     1.007825032230
         H            0.037109528600     2.637494936249     0.640268119244     1.007825032230
         H            1.919915528600     1.316981936249    -1.349064880756     1.007825032230
         H            2.225037528600     2.626555936249    -0.222356880756     1.007825032230
         H            1.526173528600     0.752804936249     1.608743119244     1.007825032230
         H            3.182556528600     0.807349936249     0.984331119244     1.007825032230
         H            0.835245528600    -2.037391063751    -0.742875880756     1.007825032230
         H           -2.366699471400     2.233412936249     0.203793119244     1.007825032230
         H           -1.243469471400    -2.553428063751    -0.137978880756     1.007825032230
         H           -4.168063471400     0.553826936249     0.381996119244     1.007825032230
         H           -3.600104471400    -1.880937063751     0.177692119244     1.007825032230

  Basis Set: AUG-CC-PVTZ
    Blend: AUG-CC-PVTZ
  Basis Set: (AUG-CC-PVTZ AUX)
    Blend: AUG-CC-PVTZ-JKFIT
	 Reference Energy          =    -514.5945923151803072 [Eh]
	 Singles Energy            =      -0.0000000000000000 [Eh]
	 Same-Spin Energy          =      -0.5574615938686728 [Eh]
	 Opposite-Spin Energy      =      -1.7424833742804950 [Eh]
	 Correlation Energy        =      -2.2999449681491679 [Eh]
	 Total Energy              =    -516.8945372833294414 [Eh]

	 ================> DF-SCS-MP2 Energies <==================
	-----------------------------------------------------------
	 SCS Same-Spin Scale       =       0.3333333333333333 [-]
	 SCS Opposite-Spin Scale   =       1.2000000000000000 [-]
	 SCS Same-Spin Energy      =      -0.1858205312895576 [Eh]
	 SCS Opposite-Spin Energy  =      -2.0909800491365940 [Eh]
	 SCS Correlation Energy    =      -2.2768005804261517 [Eh]
	 SCS Total Energy          =    -516.8713928956065047 [Eh]
	-----------------------------------------------------------

  Dipole Moment: [D]
     X:    -2.7917      Y:     2.1030      Z:     0.0441     Total:     3.4955

*** Psi4 exiting successfully. Buy a developer a beer!
