                               Psi4 1.3.2 release

  ==> Input File <==

--------------------------------------------------------------------------
#psi4
#
memory 32 gb

molecule  {
0 1
  O        3.0005300    -1.5493530     0.0754490
  N        0.8317470    -1.1153310    -0.4215630
  C        0.1960040     1.9504030    -0.2395030
  C        1.6857700     1.6448450    -0.3508570
  C       -0.7674710     0.7851500    -0.1025020
  C        2.1481850     0.6250380     0.6971500
  C       -0.4596220    -0.5879500    -0.1790540
  C        2.0510250    -0.7686880     0.1361100
  C       -2.1103850     1.1321340     0.1249900
  C       -1.4919760    -1.5397800    -0.0852490
  C       -3.1313420     0.1920050     0.2149350
  C       -2.8150140    -1.1632860     0.1069400
  H       -0.1141940     2.5504580    -1.1051150
  H        0.0480080     2.5950730     0.6372840
  H        1.9308140     1.2745600    -1.3520490
  H        2.2359360     2.5841340    -0.2253410
  H        1.5370720     0.7103830     1.6057590
  H        3.1934550     0.7649280     0.9813470
  H        0.8433145    -1.8902612    -0.6821252
  H       -2.3558010     2.1909910     0.2008090
  H       -1.2325710    -2.5958500    -0.1409630
  H       -4.1571650     0.5114050     0.3790120
  H       -3.5892060    -1.9233590     0.1747080
units angstrom
no_reorient  #important for SAPT in psi4, default
symmetry c1  #important for SAPT in psi4, default
}

set PROPERTIES_ORIGIN ["COM"]
properties('MP2/aug-cc-pvtz', properties = ['dipole'])
--------------------------------------------------------------------------

    Molecular point group: c1
  Charge       = 0
  Multiplicity = 1
  Basis Set: AUG-CC-PVTZ
    Blend: AUG-CC-PVTZ
  Basis Set: (AUG-CC-PVTZ AUX)
    Blend: AUG-CC-PVTZ-JKFIT

    Orbital Energies [Eh]
    ---------------------

    Doubly Occupied:

       1A    -20.527709     2A    -15.575952     3A    -11.358091
       4A    -11.297701     5A    -11.255823     6A    -11.247131
       7A    -11.245550     8A    -11.245497     9A    -11.245353
      10A    -11.243131    11A    -11.242527    12A    -11.240660
      13A     -1.386372    14A     -1.278301    15A     -1.157441
      16A     -1.103969    17A     -1.039588    18A     -1.019718
      19A     -0.964895    20A     -0.883511    21A     -0.851128
      22A     -0.811584    23A     -0.791132    24A     -0.733198
      25A     -0.685631    26A     -0.672781    27A     -0.649454
      28A     -0.631256    29A     -0.613291    30A     -0.604346
      31A     -0.603555    32A     -0.583203    33A     -0.568709
      34A     -0.543231    35A     -0.518400    36A     -0.511707
      37A     -0.498851    38A     -0.493426    39A     -0.483537
      40A     -0.438204    41A     -0.427014    42A     -0.341135
      43A     -0.317986

  @DF-RHF Final Energy:  -514.55197722648722

   => Energetics <=

    Nuclear Repulsion Energy =            676.5488147334381210
    One-Electron Energy =               -2040.3382284769363650
    Two-Electron Energy =                 849.2374365170110195
    Total Energy =                       -514.5519772264872245
  Basis Set: (AUG-CC-PVTZ AUX)
    Blend: AUG-CC-PVTZ-RI
    Molecular point group: c1

    Geometry (in Angstrom), charge = 0, multiplicity = 1:

       Center              X                  Y                   Z               Mass
    ------------   -----------------  -----------------  -----------------  -----------------
         O            2.990417303419    -1.510019978504     0.077583463058    15.994914619570
         N            0.821634303419    -1.075997978504    -0.419428536942    14.003074004430
         C            0.185891303419     1.989736021496    -0.237368536942    12.000000000000
         C            1.675657303419     1.684178021496    -0.348722536942    12.000000000000
         C           -0.777583696581     0.824483021496    -0.100367536942    12.000000000000
         C            2.138072303419     0.664371021496     0.699284463058    12.000000000000
         C           -0.469734696581    -0.548616978504    -0.176919536942    12.000000000000
         C            2.040912303419    -0.729354978504     0.138244463058    12.000000000000
         C           -2.120497696581     1.171467021496     0.127124463058    12.000000000000
         C           -1.502088696581    -1.500446978504    -0.083114536942    12.000000000000
         C           -3.141454696581     0.231338021496     0.217069463058    12.000000000000
         C           -2.825126696581    -1.123952978504     0.109074463058    12.000000000000
         H           -0.124306696581     2.589791021496    -1.102980536942     1.007825032230
         H            0.037895303419     2.634406021496     0.639418463058     1.007825032230
         H            1.920701303419     1.313893021496    -1.349914536942     1.007825032230
         H            2.225823303419     2.623467021496    -0.223206536942     1.007825032230
         H            1.526959303419     0.749716021496     1.607893463058     1.007825032230
         H            3.183342303419     0.804261021496     0.983481463058     1.007825032230
         H            0.833201803419    -1.850928178504    -0.679990736942     1.007825032230
         H           -2.365913696581     2.230324021496     0.202943463058     1.007825032230
         H           -1.242683696581    -2.556516978504    -0.138828536942     1.007825032230
         H           -4.167277696581     0.550738021496     0.381146463058     1.007825032230
         H           -3.599318696581    -1.884025978504     0.176842463058     1.007825032230

  Basis Set: AUG-CC-PVTZ
    Blend: AUG-CC-PVTZ
  Basis Set: (AUG-CC-PVTZ AUX)
    Blend: AUG-CC-PVTZ-JKFIT
	 Reference Energy          =    -514.5519772264872245 [Eh]
	 Singles Energy            =      -0.0000000000000000 [Eh]
	 Same-Spin Energy          =      -0.5562641108823689 [Eh]
	 Opposite-Spin Energy      =      -1.7399222825397418 [Eh]
	 Correlation Energy        =      -2.2961863934221105 [Eh]
	 Total Energy              =    -516.8481636199093145 [Eh]

	 ================> DF-SCS-MP2 Energies <==================
	-----------------------------------------------------------
	 SCS Same-Spin Scale       =       0.3333333333333333 [-]
	 SCS Opposite-Spin Scale   =       1.2000000000000000 [-]
	 SCS Same-Spin Energy      =      -0.1854213702941230 [Eh]
	 SCS Opposite-Spin Energy  =      -2.0879067390476900 [Eh]
	 SCS Correlation Energy    =      -2.2733281093418132 [Eh]
	 SCS Total Energy          =    -516.8253053358290572 [Eh]
	-----------------------------------------------------------

  Dipole Moment: [D]
     X:    -2.7525      Y:     2.2099      Z:     0.0999     Total:     3.5313

*** Psi4 exiting successfully. Buy a developer a beer!
