                               Psi4 1.3.2 release

  ==> Input File <==

--------------------------------------------------------------------------
#psi4
#
memory 32 gb

molecule  {
0 1
  O        3.0005300    -1.5493530     0.0754490
  N        0.8317470    -1.1153310    -0.4215630
  C        0.1960040     1.9504030    -0.2395030
  C        1.6857700     1.6448450    -0.3508570
  C       -0.7674710     0.7851500    -0.1025020
  C        2.1481850     0.6250380     0.6971500
  C       -0.4596220    -0.5879500    -0.1790540
  C        2.0670731    -0.8132927     0.1266537
  C       -2.1103850     1.1321340     0.1249900
  C       -1.4919760    -1.5397800    -0.0852490
  C       -3.1313420     0.1920050     0.2149350
  C       -2.8150140    -1.1632860     0.1069400
  H       -0.1141940     2.5504580    -1.1051150
  H        0.0480080     2.5950730     0.6372840
  H        1.9308140     1.2745600    -1.3520490
  H        2.2359360     2.5841340    -0.2253410
  H        1.5370720     0.7103830     1.6057590
  H        3.1934550     0.7649280     0.9813470
  H        0.8461440    -2.0798130    -0.7458600
  H       -2.3558010     2.1909910     0.2008090
  H       -1.2325710    -2.5958500    -0.1409630
  H       -4.1571650     0.5114050     0.3790120
  H       -3.5892060    -1.9233590     0.1747080
units angstrom
no_reorient  #important for SAPT in psi4, default
symmetry c1  #important for SAPT in psi4, default
}

set PROPERTIES_ORIGIN ["COM"]
properties('MP2/aug-cc-pvtz', properties = ['dipole'])
--------------------------------------------------------------------------

    Molecular point group: c1
  Charge       = 0
  Multiplicity = 1
  Basis Set: AUG-CC-PVTZ
    Blend: AUG-CC-PVTZ
  Basis Set: (AUG-CC-PVTZ AUX)
    Blend: AUG-CC-PVTZ-JKFIT

    Orbital Energies [Eh]
    ---------------------

    Doubly Occupied:

       1A    -20.531230     2A    -15.593276     3A    -11.353966
       4A    -11.297221     5A    -11.254222     6A    -11.245689
       7A    -11.244061     8A    -11.243820     9A    -11.243113
      10A    -11.240124    11A    -11.239220    12A    -11.239144
      13A     -1.406320    14A     -1.255297    15A     -1.151156
      16A     -1.097059    17A     -1.034404    18A     -1.015835
      19A     -0.951137    20A     -0.877757    21A     -0.842216
      22A     -0.806396    23A     -0.762528    24A     -0.721238
      25A     -0.681253    26A     -0.670673    27A     -0.646931
      28A     -0.632673    29A     -0.612510    30A     -0.603835
      31A     -0.599313    32A     -0.579135    33A     -0.567872
      34A     -0.541188    35A     -0.517764    36A     -0.512985
      37A     -0.498730    38A     -0.489048    39A     -0.482851
      40A     -0.439873    41A     -0.422396    42A     -0.339617
      43A     -0.315680

  @DF-RHF Final Energy:  -514.59446834285382

   => Energetics <=

    Nuclear Repulsion Energy =            674.9452008524499433
    One-Electron Energy =               -2037.4778267929243611
    Two-Electron Energy =                 847.9381575976206022
    Total Energy =                       -514.5944683428538156
  Basis Set: (AUG-CC-PVTZ AUX)
    Blend: AUG-CC-PVTZ-RI
    Molecular point group: c1

    Geometry (in Angstrom), charge = 0, multiplicity = 1:

       Center              X                  Y                   Z               Mass
    ------------   -----------------  -----------------  -----------------  -----------------
         O            2.989204093148    -1.505511205687     0.078686670430    15.994914619570
         N            0.820421093148    -1.071489205687    -0.418325329570    14.003074004430
         C            0.184678093148     1.994244794313    -0.236265329570    12.000000000000
         C            1.674444093148     1.688686794313    -0.347619329570    12.000000000000
         C           -0.778796906852     0.828991794313    -0.099264329570    12.000000000000
         C            2.136859093148     0.668879794313     0.700387670430    12.000000000000
         C           -0.470947906852    -0.544108205687    -0.175816329570    12.000000000000
         C            2.055747193148    -0.769450905687     0.129891370430    12.000000000000
         C           -2.121710906852     1.175975794313     0.128227670430    12.000000000000
         C           -1.503301906852    -1.495938205687    -0.082011329570    12.000000000000
         C           -3.142667906852     0.235846794313     0.218172670430    12.000000000000
         C           -2.826339906852    -1.119444205687     0.110177670430    12.000000000000
         H           -0.125519906852     2.594299794313    -1.101877329570     1.007825032230
         H            0.036682093148     2.638914794313     0.640521670430     1.007825032230
         H            1.919488093148     1.318401794313    -1.348811329570     1.007825032230
         H            2.224610093148     2.627975794313    -0.222103329570     1.007825032230
         H            1.525746093148     0.754224794313     1.608996670430     1.007825032230
         H            3.182129093148     0.808769794313     0.984584670430     1.007825032230
         H            0.834818093148    -2.035971205687    -0.742622329570     1.007825032230
         H           -2.367126906852     2.234832794313     0.204046670430     1.007825032230
         H           -1.243896906852    -2.552008205687    -0.137725329570     1.007825032230
         H           -4.168490906852     0.555246794313     0.382249670430     1.007825032230
         H           -3.600531906852    -1.879517205687     0.177945670430     1.007825032230

  Basis Set: AUG-CC-PVTZ
    Blend: AUG-CC-PVTZ
  Basis Set: (AUG-CC-PVTZ AUX)
    Blend: AUG-CC-PVTZ-JKFIT
	 Reference Energy          =    -514.5944683428538156 [Eh]
	 Singles Energy            =      -0.0000000000000000 [Eh]
	 Same-Spin Energy          =      -0.5568518453699297 [Eh]
	 Opposite-Spin Energy      =      -1.7411374174756564 [Eh]
	 Correlation Energy        =      -2.2979892628455860 [Eh]
	 Total Energy              =    -516.8924576056994056 [Eh]

	 ================> DF-SCS-MP2 Energies <==================
	-----------------------------------------------------------
	 SCS Same-Spin Scale       =       0.3333333333333333 [-]
	 SCS Opposite-Spin Scale   =       1.2000000000000000 [-]
	 SCS Same-Spin Energy      =      -0.1856172817899766 [Eh]
	 SCS Opposite-Spin Energy  =      -2.0893649009707875 [Eh]
	 SCS Correlation Energy    =      -2.2749821827607639 [Eh]
	 SCS Total Energy          =    -516.8694505256145248 [Eh]
	-----------------------------------------------------------

  Dipole Moment: [D]
     X:    -2.5741      Y:     1.8296      Z:     0.0090     Total:     3.1581

*** Psi4 exiting successfully. Buy a developer a beer!
