                               Psi4 1.3.2 release

  ==> Input File <==

--------------------------------------------------------------------------
#psi4
#
memory 32 gb

molecule  {
0 1
  O        3.0005300    -1.5493530     0.0754490
  N        0.8317470    -1.1153310    -0.4215630
  C        0.1960040     1.9504030    -0.2395030
  C        1.6857700     1.6448450    -0.3508570
  C       -0.7674710     0.7851500    -0.1025020
  C        2.1481850     0.6250380     0.6971500
  C       -0.5033112    -0.3930828    -0.1681899
  C        2.0510250    -0.7686880     0.1361100
  C       -2.1103850     1.1321340     0.1249900
  C       -1.4919760    -1.5397800    -0.0852490
  C       -3.1313420     0.1920050     0.2149350
  C       -2.8150140    -1.1632860     0.1069400
  H       -0.1141940     2.5504580    -1.1051150
  H        0.0480080     2.5950730     0.6372840
  H        1.9308140     1.2745600    -1.3520490
  H        2.2359360     2.5841340    -0.2253410
  H        1.5370720     0.7103830     1.6057590
  H        3.1934550     0.7649280     0.9813470
  H        0.8461440    -2.0798130    -0.7458600
  H       -2.3558010     2.1909910     0.2008090
  H       -1.2325710    -2.5958500    -0.1409630
  H       -4.1571650     0.5114050     0.3790120
  H       -3.5892060    -1.9233590     0.1747080
units angstrom
no_reorient  #important for SAPT in psi4, default
symmetry c1  #important for SAPT in psi4, default
}

set PROPERTIES_ORIGIN ["COM"]
properties('MP2/aug-cc-pvtz', properties = ['dipole'])
--------------------------------------------------------------------------

    Molecular point group: c1
  Charge       = 0
  Multiplicity = 1
  Basis Set: AUG-CC-PVTZ
    Blend: AUG-CC-PVTZ
  Basis Set: (AUG-CC-PVTZ AUX)
    Blend: AUG-CC-PVTZ-JKFIT

    Orbital Energies [Eh]
    ---------------------

    Doubly Occupied:

       1A    -20.514755     2A    -15.587383     3A    -11.345393
       4A    -11.289876     5A    -11.258796     6A    -11.251528
       7A    -11.248968     8A    -11.247589     9A    -11.245902
      10A    -11.241417    11A    -11.238770    12A    -11.233842
      13A     -1.368756    14A     -1.231372    15A     -1.164275
      16A     -1.100611    17A     -1.056693    18A     -1.006619
      19A     -0.967031    20A     -0.868919    21A     -0.861378
      22A     -0.800890    23A     -0.755379    24A     -0.712259
      25A     -0.681325    26A     -0.673096    27A     -0.642929
      28A     -0.634149    29A     -0.609350    30A     -0.598412
      31A     -0.592487    32A     -0.578610    33A     -0.563461
      34A     -0.539554    35A     -0.528736    36A     -0.510003
      37A     -0.499775    38A     -0.491280    39A     -0.472454
      40A     -0.423498    41A     -0.413489    42A     -0.360575
      43A     -0.325073

  @DF-RHF Final Energy:  -514.53682039206058

   => Energetics <=

    Nuclear Repulsion Energy =            676.3264229080874657
    One-Electron Energy =               -2040.2531715106870251
    Two-Electron Energy =                 849.3899282105390967
    Total Energy =                       -514.5368203920605765
  Basis Set: (AUG-CC-PVTZ AUX)
    Blend: AUG-CC-PVTZ-RI
    Molecular point group: c1

    Geometry (in Angstrom), charge = 0, multiplicity = 1:

       Center              X                  Y                   Z               Mass
    ------------   -----------------  -----------------  -----------------  -----------------
         O            2.993654239130    -1.523350728288     0.077172896851    15.994914619570
         N            0.824871239130    -1.089328728288    -0.419839103149    14.003074004430
         C            0.189128239130     1.976405271712    -0.237779103149    12.000000000000
         C            1.678894239130     1.670847271712    -0.349133103149    12.000000000000
         C           -0.774346760870     0.811152271712    -0.100778103149    12.000000000000
         C            2.141309239130     0.651040271712     0.698873896851    12.000000000000
         C           -0.510186960870    -0.367080528288    -0.166466003149    12.000000000000
         C            2.044149239130    -0.742685728288     0.137833896851    12.000000000000
         C           -2.117260760870     1.158136271712     0.126713896851    12.000000000000
         C           -1.498851760870    -1.513777728288    -0.083525103149    12.000000000000
         C           -3.138217760870     0.218007271712     0.216658896851    12.000000000000
         C           -2.821889760870    -1.137283728288     0.108663896851    12.000000000000
         H           -0.121069760870     2.576460271712    -1.103391103149     1.007825032230
         H            0.041132239130     2.621075271712     0.639007896851     1.007825032230
         H            1.923938239130     1.300562271712    -1.350325103149     1.007825032230
         H            2.229060239130     2.610136271712    -0.223617103149     1.007825032230
         H            1.530196239130     0.736385271712     1.607482896851     1.007825032230
         H            3.186579239130     0.790930271712     0.983070896851     1.007825032230
         H            0.839268239130    -2.053810728288    -0.744136103149     1.007825032230
         H           -2.362676760870     2.216993271712     0.202532896851     1.007825032230
         H           -1.239446760870    -2.569847728288    -0.139239103149     1.007825032230
         H           -4.164040760870     0.537407271712     0.380735896851     1.007825032230
         H           -3.596081760870    -1.897356728288     0.176431896851     1.007825032230

  Basis Set: AUG-CC-PVTZ
    Blend: AUG-CC-PVTZ
  Basis Set: (AUG-CC-PVTZ AUX)
    Blend: AUG-CC-PVTZ-JKFIT
	 Reference Energy          =    -514.5368203920605765 [Eh]
	 Singles Energy            =      -0.0000000000000000 [Eh]
	 Same-Spin Energy          =      -0.5558680325315941 [Eh]
	 Opposite-Spin Energy      =      -1.7436818314354214 [Eh]
	 Correlation Energy        =      -2.2995498639670156 [Eh]
	 Total Energy              =    -516.8363702560276352 [Eh]

	 ================> DF-SCS-MP2 Energies <==================
	-----------------------------------------------------------
	 SCS Same-Spin Scale       =       0.3333333333333333 [-]
	 SCS Opposite-Spin Scale   =       1.2000000000000000 [-]
	 SCS Same-Spin Energy      =      -0.1852893441771980 [Eh]
	 SCS Opposite-Spin Energy  =      -2.0924181977225058 [Eh]
	 SCS Correlation Energy    =      -2.2777075418997037 [Eh]
	 SCS Total Energy          =    -516.8145279339603348 [Eh]
	-----------------------------------------------------------

  Dipole Moment: [D]
     X:    -3.4463      Y:     2.2637      Z:     0.0514     Total:     4.1236

*** Psi4 exiting successfully. Buy a developer a beer!
