                               Psi4 1.3.2 release

  ==> Input File <==

--------------------------------------------------------------------------
#psi4
#
memory 32 gb

molecule  {
0 1
  O        3.0005300    -1.5493530     0.0754490
  N        0.8317470    -1.1153310    -0.4215630
  C        0.1960040     1.9504030    -0.2395030
  C        1.6906101     1.6645865    -0.3334405
  C       -0.7674710     0.7851500    -0.1025020
  C        2.1481850     0.6250380     0.6971500
  C       -0.4596220    -0.5879500    -0.1790540
  C        2.0510250    -0.7686880     0.1361100
  C       -2.1103850     1.1321340     0.1249900
  C       -1.4919760    -1.5397800    -0.0852490
  C       -3.1313420     0.1920050     0.2149350
  C       -2.8150140    -1.1632860     0.1069400
  H       -0.1141940     2.5504580    -1.1051150
  H        0.0480080     2.5950730     0.6372840
  H        1.9308140     1.2745600    -1.3520490
  H        2.2359360     2.5841340    -0.2253410
  H        1.5370720     0.7103830     1.6057590
  H        3.1934550     0.7649280     0.9813470
  H        0.8461440    -2.0798130    -0.7458600
  H       -2.3558010     2.1909910     0.2008090
  H       -1.2325710    -2.5958500    -0.1409630
  H       -4.1571650     0.5114050     0.3790120
  H       -3.5892060    -1.9233590     0.1747080
units angstrom
no_reorient  #important for SAPT in psi4, default
symmetry c1  #important for SAPT in psi4, default
}

set PROPERTIES_ORIGIN ["COM"]
properties('MP2/aug-cc-pvtz', properties = ['dipole'])
--------------------------------------------------------------------------

    Molecular point group: c1
  Charge       = 0
  Multiplicity = 1
  Basis Set: AUG-CC-PVTZ
    Blend: AUG-CC-PVTZ
  Basis Set: (AUG-CC-PVTZ AUX)
    Blend: AUG-CC-PVTZ-JKFIT

    Orbital Energies [Eh]
    ---------------------

    Doubly Occupied:

       1A    -20.525927     2A    -15.596254     3A    -11.357400
       4A    -11.297405     5A    -11.255654     6A    -11.246568
       7A    -11.245212     8A    -11.244822     9A    -11.244522
      10A    -11.242898    11A    -11.242214    12A    -11.239966
      13A     -1.380247    14A     -1.253038    15A     -1.151626
      16A     -1.101668    17A     -1.038903    18A     -1.016252
      19A     -0.957382    20A     -0.881120    21A     -0.842957
      22A     -0.808124    23A     -0.766067    24A     -0.721402
      25A     -0.681018    26A     -0.671182    27A     -0.647510
      28A     -0.628826    29A     -0.611854    30A     -0.603540
      31A     -0.600685    32A     -0.579432    33A     -0.564839
      34A     -0.543342    35A     -0.517669    36A     -0.508868
      37A     -0.494521    38A     -0.490696    39A     -0.486058
      40A     -0.435343    41A     -0.426562    42A     -0.340648
      43A     -0.316084

  @DF-RHF Final Energy:  -514.59359158118207

   => Energetics <=

    Nuclear Repulsion Energy =            674.8477189196834161
    One-Electron Energy =               -2037.2700128538733679
    Two-Electron Energy =                 847.8287023530077704
    Total Energy =                       -514.5935915811820678
  Basis Set: (AUG-CC-PVTZ AUX)
    Blend: AUG-CC-PVTZ-RI
    Molecular point group: c1

    Geometry (in Angstrom), charge = 0, multiplicity = 1:

       Center              X                  Y                   Z               Mass
    ------------   -----------------  -----------------  -----------------  -----------------
         O            2.990039036076    -1.510304692894     0.076684774078    15.994914619570
         N            0.821256036076    -1.076282692894    -0.420327225922    14.003074004430
         C            0.185513036076     1.989451307106    -0.238267225922    12.000000000000
         C            1.680119136076     1.703634807106    -0.332204725922    12.000000000000
         C           -0.777961963924     0.824198307106    -0.101266225922    12.000000000000
         C            2.137694036076     0.664086307106     0.698385774078    12.000000000000
         C           -0.470112963924    -0.548901692894    -0.177818225922    12.000000000000
         C            2.040534036076    -0.729639692894     0.137345774078    12.000000000000
         C           -2.120875963924     1.171182307106     0.126225774078    12.000000000000
         C           -1.502466963924    -1.500731692894    -0.084013225922    12.000000000000
         C           -3.141832963924     0.231053307106     0.216170774078    12.000000000000
         C           -2.825504963924    -1.124237692894     0.108175774078    12.000000000000
         H           -0.124684963924     2.589506307106    -1.103879225922     1.007825032230
         H            0.037517036076     2.634121307106     0.638519774078     1.007825032230
         H            1.920323036076     1.313608307106    -1.350813225922     1.007825032230
         H            2.225445036076     2.623182307106    -0.224105225922     1.007825032230
         H            1.526581036076     0.749431307106     1.606994774078     1.007825032230
         H            3.182964036076     0.803976307106     0.982582774078     1.007825032230
         H            0.835653036076    -2.040764692894    -0.744624225922     1.007825032230
         H           -2.366291963924     2.230039307106     0.202044774078     1.007825032230
         H           -1.243061963924    -2.556801692894    -0.139727225922     1.007825032230
         H           -4.167655963924     0.550453307106     0.380247774078     1.007825032230
         H           -3.599696963924    -1.884310692894     0.175943774078     1.007825032230

  Basis Set: AUG-CC-PVTZ
    Blend: AUG-CC-PVTZ
  Basis Set: (AUG-CC-PVTZ AUX)
    Blend: AUG-CC-PVTZ-JKFIT
	 Reference Energy          =    -514.5935915811820678 [Eh]
	 Singles Energy            =      -0.0000000000000000 [Eh]
	 Same-Spin Energy          =      -0.5578645773600754 [Eh]
	 Opposite-Spin Energy      =      -1.7430827788552272 [Eh]
	 Correlation Energy        =      -2.3009473562153024 [Eh]
	 Total Energy              =    -516.8945389373973285 [Eh]

	 ================> DF-SCS-MP2 Energies <==================
	-----------------------------------------------------------
	 SCS Same-Spin Scale       =       0.3333333333333333 [-]
	 SCS Opposite-Spin Scale   =       1.2000000000000000 [-]
	 SCS Same-Spin Energy      =      -0.1859548591200251 [Eh]
	 SCS Opposite-Spin Energy  =      -2.0916993346262727 [Eh]
	 SCS Correlation Energy    =      -2.2776541937462977 [Eh]
	 SCS Total Energy          =    -516.8712457749284113 [Eh]
	-----------------------------------------------------------

  Dipole Moment: [D]
     X:    -2.7455      Y:     2.0635      Z:     0.0414     Total:     3.4347

*** Psi4 exiting successfully. Buy a developer a beer!
