                               Psi4 1.3.2 release

  ==> Input File <==

--------------------------------------------------------------------------
#psi4
#
memory 32 gb

molecule  {
0 1
  O        3.0005300    -1.5493530     0.0754490
  N        0.8317470    -1.1153310    -0.4215630
  C        0.1960040     1.9504030    -0.2395030
  C        1.6597360     1.5200895    -0.4484734
  C       -0.7674710     0.7851500    -0.1025020
  C        2.1481850     0.6250380     0.6971500
  C       -0.4596220    -0.5879500    -0.1790540
  C        2.0510250    -0.7686880     0.1361100
  C       -2.1103850     1.1321340     0.1249900
  C       -1.4919760    -1.5397800    -0.0852490
  C       -3.1313420     0.1920050     0.2149350
  C       -2.8150140    -1.1632860     0.1069400
  H       -0.1141940     2.5504580    -1.1051150
  H        0.0480080     2.5950730     0.6372840
  H        1.9308140     1.2745600    -1.3520490
  H        2.2359360     2.5841340    -0.2253410
  H        1.5370720     0.7103830     1.6057590
  H        3.1934550     0.7649280     0.9813470
  H        0.8461440    -2.0798130    -0.7458600
  H       -2.3558010     2.1909910     0.2008090
  H       -1.2325710    -2.5958500    -0.1409630
  H       -4.1571650     0.5114050     0.3790120
  H       -3.5892060    -1.9233590     0.1747080
units angstrom
no_reorient  #important for SAPT in psi4, default
symmetry c1  #important for SAPT in psi4, default
}

set PROPERTIES_ORIGIN ["COM"]
properties('MP2/aug-cc-pvtz', properties = ['dipole'])
--------------------------------------------------------------------------

    Molecular point group: c1
  Charge       = 0
  Multiplicity = 1
  Basis Set: AUG-CC-PVTZ
    Blend: AUG-CC-PVTZ
  Basis Set: (AUG-CC-PVTZ AUX)
    Blend: AUG-CC-PVTZ-JKFIT

    Orbital Energies [Eh]
    ---------------------

    Doubly Occupied:

       1A    -20.524369     2A    -15.595843     3A    -11.355241
       4A    -11.297201     5A    -11.253087     6A    -11.248507
       7A    -11.246297     8A    -11.245894     9A    -11.244981
      10A    -11.244444    11A    -11.244338    12A    -11.239562
      13A     -1.379572    14A     -1.253494    15A     -1.151277
      16A     -1.103283    17A     -1.040191    18A     -1.015731
      19A     -0.956082    20A     -0.880512    21A     -0.842648
      22A     -0.818404    23A     -0.763315    24A     -0.724253
      25A     -0.686889    26A     -0.670009    27A     -0.639390
      28A     -0.629794    29A     -0.613506    30A     -0.607803
      31A     -0.595232    32A     -0.577158    33A     -0.567942
      34A     -0.537402    35A     -0.533898    36A     -0.515058
      37A     -0.503869    38A     -0.495671    39A     -0.456739
      40A     -0.434768    41A     -0.419632    42A     -0.340349
      43A     -0.315802

  @DF-RHF Final Energy:  -514.56489890435114

   => Energetics <=

    Nuclear Repulsion Energy =            676.3520279779853581
    One-Electron Energy =               -2040.2149822046326335
    Two-Electron Energy =                 849.2980553222960225
    Total Energy =                       -514.5648989043511392
  Basis Set: (AUG-CC-PVTZ AUX)
    Blend: AUG-CC-PVTZ-RI
    Molecular point group: c1

    Geometry (in Angstrom), charge = 0, multiplicity = 1:

       Center              X                  Y                   Z               Mass
    ------------   -----------------  -----------------  -----------------  -----------------
         O            2.992339010331    -1.499540350617     0.085254180423    15.994914619570
         N            0.823556010331    -1.065518350617    -0.411757819577    14.003074004430
         C            0.187813010331     2.000215649383    -0.229697819577    12.000000000000
         C            1.651545010331     1.569902149383    -0.438668219577    12.000000000000
         C           -0.775661989669     0.834962649383    -0.092696819577    12.000000000000
         C            2.139994010331     0.674850649383     0.706955180423    12.000000000000
         C           -0.467812989669    -0.538137350617    -0.169248819577    12.000000000000
         C            2.042834010331    -0.718875350617     0.145915180423    12.000000000000
         C           -2.118575989669     1.181946649383     0.134795180423    12.000000000000
         C           -1.500166989669    -1.489967350617    -0.075443819577    12.000000000000
         C           -3.139532989669     0.241817649383     0.224740180423    12.000000000000
         C           -2.823204989669    -1.113473350617     0.116745180423    12.000000000000
         H           -0.122384989669     2.600270649383    -1.095309819577     1.007825032230
         H            0.039817010331     2.644885649383     0.647089180423     1.007825032230
         H            1.922623010331     1.324372649383    -1.342243819577     1.007825032230
         H            2.227745010331     2.633946649383    -0.215535819577     1.007825032230
         H            1.528881010331     0.760195649383     1.615564180423     1.007825032230
         H            3.185264010331     0.814740649383     0.991152180423     1.007825032230
         H            0.837953010331    -2.030000350617    -0.736054819577     1.007825032230
         H           -2.363991989669     2.240803649383     0.210614180423     1.007825032230
         H           -1.240761989669    -2.546037350617    -0.131157819577     1.007825032230
         H           -4.165355989669     0.561217649383     0.388817180423     1.007825032230
         H           -3.597396989669    -1.873546350617     0.184513180423     1.007825032230

  Basis Set: AUG-CC-PVTZ
    Blend: AUG-CC-PVTZ
  Basis Set: (AUG-CC-PVTZ AUX)
    Blend: AUG-CC-PVTZ-JKFIT
	 Reference Energy          =    -514.5648989043511392 [Eh]
	 Singles Energy            =      -0.0000000000000000 [Eh]
	 Same-Spin Energy          =      -0.5585414605888827 [Eh]
	 Opposite-Spin Energy      =      -1.7446047983080599 [Eh]
	 Correlation Energy        =      -2.3031462588969425 [Eh]
	 Total Energy              =    -516.8680451632480981 [Eh]

	 ================> DF-SCS-MP2 Energies <==================
	-----------------------------------------------------------
	 SCS Same-Spin Scale       =       0.3333333333333333 [-]
	 SCS Opposite-Spin Scale   =       1.2000000000000000 [-]
	 SCS Same-Spin Energy      =      -0.1861804868629609 [Eh]
	 SCS Opposite-Spin Energy  =      -2.0935257579696720 [Eh]
	 SCS Correlation Energy    =      -2.2797062448326328 [Eh]
	 SCS Total Energy          =    -516.8446051491837352 [Eh]
	-----------------------------------------------------------

  Dipole Moment: [D]
     X:    -2.7594      Y:     2.0113      Z:     0.0367     Total:     3.4149

*** Psi4 exiting successfully. Buy a developer a beer!
