                               Psi4 1.4a3.dev225

  ==> Input File <==

--------------------------------------------------------------------------
#psi4
#
memory 32 gb

molecule  {
0 1
  O        3.0005300    -1.5493530     0.0754490
  N        0.8317470    -1.1153310    -0.4215630
  C        0.1960040     1.9504030    -0.2395030
  C        1.6857700     1.6448450    -0.3508570
  C       -0.7674710     0.7851500    -0.1025020
  C        2.1481850     0.6250380     0.6971500
  C       -0.4596220    -0.5879500    -0.1790540
  C        2.0510250    -0.7686880     0.1361100
  C       -2.0626131     1.1197906     0.1168974
  C       -1.4919760    -1.5397800    -0.0852490
  C       -3.1313420     0.1920050     0.2149350
  C       -2.8150140    -1.1632860     0.1069400
  H       -0.1141940     2.5504580    -1.1051150
  H        0.0480080     2.5950730     0.6372840
  H        1.9308140     1.2745600    -1.3520490
  H        2.2359360     2.5841340    -0.2253410
  H        1.5370720     0.7103830     1.6057590
  H        3.1934550     0.7649280     0.9813470
  H        0.8461440    -2.0798130    -0.7458600
  H       -2.3558010     2.1909910     0.2008090
  H       -1.2325710    -2.5958500    -0.1409630
  H       -4.1571650     0.5114050     0.3790120
  H       -3.5892060    -1.9233590     0.1747080
units angstrom
no_reorient  #important for SAPT in psi4, default
symmetry c1  #important for SAPT in psi4, default
}

set PROPERTIES_ORIGIN ["COM"]
properties('MP2/aug-cc-pvtz', properties = ['dipole'])
--------------------------------------------------------------------------

    Molecular point group: c1
  Charge       = 0
  Multiplicity = 1
  Basis Set: AUG-CC-PVTZ
    Blend: AUG-CC-PVTZ
  Basis Set: (AUG-CC-PVTZ AUX)
    Blend: AUG-CC-PVTZ-JKFIT

    Orbital Energies [Eh]
    ---------------------

    Doubly Occupied:

       1A    -20.526031     2A    -15.596652     3A    -11.357291
       4A    -11.298433     5A    -11.250348     6A    -11.246120
       7A    -11.244683     8A    -11.244487     9A    -11.243314
      10A    -11.243103    11A    -11.242133    12A    -11.241915
      13A     -1.380432    14A     -1.253790    15A     -1.154668
      16A     -1.102266    17A     -1.042510    18A     -1.012351
      19A     -0.958813    20A     -0.879344    21A     -0.842658
      22A     -0.810194    23A     -0.767008    24A     -0.720326
      25A     -0.682145    26A     -0.670999    27A     -0.645409
      28A     -0.630438    29A     -0.611495    30A     -0.602777
      31A     -0.597663    32A     -0.579919    33A     -0.565073
      34A     -0.542985    35A     -0.518147    36A     -0.510501
      37A     -0.499419    38A     -0.491841    39A     -0.480040
      40A     -0.434447    41A     -0.426264    42A     -0.345693
      43A     -0.313598

  @DF-RHF Final Energy:  -514.59109925106566

   => Energetics <=

    Nuclear Repulsion Energy =            675.8553852280973615
    One-Electron Energy =               -2039.2775186084379584
    Two-Electron Energy =                 848.8310341292750536
    Total Energy =                       -514.5910992510656570
  Basis Set: (AUG-CC-PVTZ AUX)
    Blend: AUG-CC-PVTZ-RI
    Molecular point group: c1

    Geometry (in Angstrom), charge = 0, multiplicity = 1:

       Center              X                  Y                   Z               Mass
    ------------   -----------------  -----------------  -----------------  -----------------
         O            2.986840820267    -1.507914519773     0.078585081237    15.994914619570
         N            0.818057820267    -1.073892519773    -0.418426918763    14.003074004430
         C            0.182314820267     1.991841480227    -0.236366918763    12.000000000000
         C            1.672080820267     1.686283480227    -0.347720918763    12.000000000000
         C           -0.781160179733     0.826588480227    -0.099365918763    12.000000000000
         C            2.134495820267     0.666476480227     0.700286081237    12.000000000000
         C           -0.473311179733    -0.546511519773    -0.175917918763    12.000000000000
         C            2.037335820267    -0.727249519773     0.139246081237    12.000000000000
         C           -2.076302279733     1.161229080227     0.120033481237    12.000000000000
         C           -1.505665179733    -1.498341519773    -0.082112918763    12.000000000000
         C           -3.145031179733     0.233443480227     0.218071081237    12.000000000000
         C           -2.828703179733    -1.121847519773     0.110076081237    12.000000000000
         H           -0.127883179733     2.591896480227    -1.101978918763     1.007825032230
         H            0.034318820267     2.636511480227     0.640420081237     1.007825032230
         H            1.917124820267     1.315998480227    -1.348912918763     1.007825032230
         H            2.222246820267     2.625572480227    -0.222204918763     1.007825032230
         H            1.523382820267     0.751821480227     1.608895081237     1.007825032230
         H            3.179765820267     0.806366480227     0.984483081237     1.007825032230
         H            0.832454820267    -2.038374519773    -0.742723918763     1.007825032230
         H           -2.369490179733     2.232429480227     0.203945081237     1.007825032230
         H           -1.246260179733    -2.554411519773    -0.137826918763     1.007825032230
         H           -4.170854179733     0.552843480227     0.382148081237     1.007825032230
         H           -3.602895179733    -1.881920519773     0.177844081237     1.007825032230

  Basis Set: AUG-CC-PVTZ
    Blend: AUG-CC-PVTZ
  Basis Set: (AUG-CC-PVTZ AUX)
    Blend: AUG-CC-PVTZ-JKFIT
	 Reference Energy          =    -514.5910992510656570 [Eh]
	 Singles Energy            =      -0.0000000000000000 [Eh]
	 Same-Spin Energy          =      -0.5580148552185857 [Eh]
	 Opposite-Spin Energy      =      -1.7432498002376713 [Eh]
	 Correlation Energy        =      -2.3012646554562570 [Eh]
	 Total Energy              =    -516.8923639065219504 [Eh]

	 ================> DF-SCS-MP2 Energies <==================
	-----------------------------------------------------------
	 SCS Same-Spin Scale       =       0.3333333333333333 [-]
	 SCS Opposite-Spin Scale   =       1.2000000000000000 [-]
	 SCS Same-Spin Energy      =      -0.1860049517395286 [Eh]
	 SCS Opposite-Spin Energy  =      -2.0918997602852056 [Eh]
	 SCS Correlation Energy    =      -2.2779047120247342 [Eh]
	 SCS Total Energy          =    -516.8690039630903357 [Eh]
	-----------------------------------------------------------

  Dipole Moment: [D]
     X:    -2.7337      Y:     2.0412      Z:     0.0351     Total:     3.4119

*** Psi4 exiting successfully. Buy a developer a beer!
