                               Psi4 1.3.2 release

  ==> Input File <==

--------------------------------------------------------------------------
#psi4
#
memory 32 gb

molecule  {
0 1
  O        3.0254396    -1.5192631     0.0933239
  N        0.8317470    -1.1153310    -0.4215630
  C        0.1960040     1.9504030    -0.2395030
  C        1.6857700     1.6448450    -0.3508570
  C       -0.7674710     0.7851500    -0.1025020
  C        2.1481850     0.6250380     0.6971500
  C       -0.4596220    -0.5879500    -0.1790540
  C        2.0510250    -0.7686880     0.1361100
  C       -2.1103850     1.1321340     0.1249900
  C       -1.4919760    -1.5397800    -0.0852490
  C       -3.1313420     0.1920050     0.2149350
  C       -2.8150140    -1.1632860     0.1069400
  H       -0.1141940     2.5504580    -1.1051150
  H        0.0480080     2.5950730     0.6372840
  H        1.9308140     1.2745600    -1.3520490
  H        2.2359360     2.5841340    -0.2253410
  H        1.5370720     0.7103830     1.6057590
  H        3.1934550     0.7649280     0.9813470
  H        0.8461440    -2.0798130    -0.7458600
  H       -2.3558010     2.1909910     0.2008090
  H       -1.2325710    -2.5958500    -0.1409630
  H       -4.1571650     0.5114050     0.3790120
  H       -3.5892060    -1.9233590     0.1747080
units angstrom
no_reorient  #important for SAPT in psi4, default
symmetry c1  #important for SAPT in psi4, default
}

set PROPERTIES_ORIGIN ["COM"]
properties('MP2/aug-cc-pvtz', properties = ['dipole'])
--------------------------------------------------------------------------

    Molecular point group: c1
  Charge       = 0
  Multiplicity = 1
  Basis Set: AUG-CC-PVTZ
    Blend: AUG-CC-PVTZ
  Basis Set: (AUG-CC-PVTZ AUX)
    Blend: AUG-CC-PVTZ-JKFIT

    Orbital Energies [Eh]
    ---------------------

    Doubly Occupied:

       1A    -20.525902     2A    -15.598214     3A    -11.356801
       4A    -11.298219     5A    -11.255731     6A    -11.246926
       7A    -11.245361     8A    -11.245116     9A    -11.244694
      10A    -11.241397    11A    -11.240380    12A    -11.240358
      13A     -1.379384    14A     -1.255052    15A     -1.152256
      16A     -1.101039    17A     -1.038552    18A     -1.016844
      19A     -0.956534    20A     -0.880583    21A     -0.843431
      22A     -0.808762    23A     -0.765845    24A     -0.722266
      25A     -0.681564    26A     -0.671373    27A     -0.646090
      28A     -0.629300    29A     -0.611341    30A     -0.603197
      31A     -0.600643    32A     -0.578612    33A     -0.564775
      34A     -0.541837    35A     -0.518047    36A     -0.510333
      37A     -0.498135    38A     -0.491591    39A     -0.482360
      40A     -0.436382    41A     -0.424462    42A     -0.340920
      43A     -0.316933

  @DF-RHF Final Energy:  -514.59402460938168

   => Energetics <=

    Nuclear Repulsion Energy =            674.9781074072712954
    One-Electron Energy =               -2037.5291760570219139
    Two-Electron Energy =                 847.9570440403688281
    Total Energy =                       -514.5940246093816768
  Basis Set: (AUG-CC-PVTZ AUX)
    Blend: AUG-CC-PVTZ-RI
    Molecular point group: c1

    Geometry (in Angstrom), charge = 0, multiplicity = 1:

       Center              X                  Y                   Z               Mass
    ------------   -----------------  -----------------  -----------------  -----------------
         O            3.012835790666    -1.481731934785     0.094082224618    15.994914619570
         N            0.819143190666    -1.077799834785    -0.420804675382    14.003074004430
         C            0.183400190666     1.987934165215    -0.238744675382    12.000000000000
         C            1.673166190666     1.682376165215    -0.350098675382    12.000000000000
         C           -0.780074809334     0.822681165215    -0.101743675382    12.000000000000
         C            2.135581190666     0.662569165215     0.697908324618    12.000000000000
         C           -0.472225809334    -0.550418834785    -0.178295675382    12.000000000000
         C            2.038421190666    -0.731156834785     0.136868324618    12.000000000000
         C           -2.122988809334     1.169665165215     0.125748324618    12.000000000000
         C           -1.504579809334    -1.502248834785    -0.084490675382    12.000000000000
         C           -3.143945809334     0.229536165215     0.215693324618    12.000000000000
         C           -2.827617809334    -1.125754834785     0.107698324618    12.000000000000
         H           -0.126797809334     2.587989165215    -1.104356675382     1.007825032230
         H            0.035404190666     2.632604165215     0.638042324618     1.007825032230
         H            1.918210190666     1.312091165215    -1.351290675382     1.007825032230
         H            2.223332190666     2.621665165215    -0.224582675382     1.007825032230
         H            1.524468190666     0.747914165215     1.606517324618     1.007825032230
         H            3.180851190666     0.802459165215     0.982105324618     1.007825032230
         H            0.833540190666    -2.042281834785    -0.745101675382     1.007825032230
         H           -2.368404809334     2.228522165215     0.201567324618     1.007825032230
         H           -1.245174809334    -2.558318834785    -0.140204675382     1.007825032230
         H           -4.169768809334     0.548936165215     0.379770324618     1.007825032230
         H           -3.601809809334    -1.885827834785     0.175466324618     1.007825032230

  Basis Set: AUG-CC-PVTZ
    Blend: AUG-CC-PVTZ
  Basis Set: (AUG-CC-PVTZ AUX)
    Blend: AUG-CC-PVTZ-JKFIT
	 Reference Energy          =    -514.5940246093816768 [Eh]
	 Singles Energy            =      -0.0000000000000000 [Eh]
	 Same-Spin Energy          =      -0.5578789744474048 [Eh]
	 Opposite-Spin Energy      =      -1.7431135673250844 [Eh]
	 Correlation Energy        =      -2.3009925417724890 [Eh]
	 Total Energy              =    -516.8950171511542067 [Eh]

	 ================> DF-SCS-MP2 Energies <==================
	-----------------------------------------------------------
	 SCS Same-Spin Scale       =       0.3333333333333333 [-]
	 SCS Opposite-Spin Scale   =       1.2000000000000000 [-]
	 SCS Same-Spin Energy      =      -0.1859596581491349 [Eh]
	 SCS Opposite-Spin Energy  =      -2.0917362807901010 [Eh]
	 SCS Correlation Energy    =      -2.2776959389392357 [Eh]
	 SCS Total Energy          =    -516.8717205483209227 [Eh]
	-----------------------------------------------------------

  Dipole Moment: [D]
     X:    -2.8255      Y:     1.9826      Z:    -0.0065     Total:     3.4517

*** Psi4 exiting successfully. Buy a developer a beer!
