                               Psi4 1.3.2 release

  ==> Input File <==

--------------------------------------------------------------------------
#psi4
#
memory 32 gb

molecule  {
0 1
  O        3.0005300    -1.5493530     0.0754490
  N        0.8317470    -1.1153310    -0.4215630
  C        0.1960040     1.9504030    -0.2395030
  C        1.6857700     1.6448450    -0.3508570
  C       -0.7674710     0.7851500    -0.1025020
  C        2.1481850     0.6250380     0.6971500
  C       -0.4596220    -0.5879500    -0.1790540
  C        2.0424426    -0.7465406     0.1405840
  C       -2.1103850     1.1321340     0.1249900
  C       -1.4919760    -1.5397800    -0.0852490
  C       -3.1313420     0.1920050     0.2149350
  C       -2.8150140    -1.1632860     0.1069400
  H       -0.1141940     2.5504580    -1.1051150
  H        0.0480080     2.5950730     0.6372840
  H        1.9308140     1.2745600    -1.3520490
  H        2.2359360     2.5841340    -0.2253410
  H        1.5370720     0.7103830     1.6057590
  H        3.1934550     0.7649280     0.9813470
  H        0.8461440    -2.0798130    -0.7458600
  H       -2.3558010     2.1909910     0.2008090
  H       -1.2325710    -2.5958500    -0.1409630
  H       -4.1571650     0.5114050     0.3790120
  H       -3.5892060    -1.9233590     0.1747080
units angstrom
no_reorient  #important for SAPT in psi4, default
symmetry c1  #important for SAPT in psi4, default
}

set PROPERTIES_ORIGIN ["COM"]
properties('MP2/aug-cc-pvtz', properties = ['dipole'])
--------------------------------------------------------------------------

    Molecular point group: c1
  Charge       = 0
  Multiplicity = 1
  Basis Set: AUG-CC-PVTZ
    Blend: AUG-CC-PVTZ
  Basis Set: (AUG-CC-PVTZ AUX)
    Blend: AUG-CC-PVTZ-JKFIT

    Orbital Energies [Eh]
    ---------------------

    Doubly Occupied:

       1A    -20.522798     2A    -15.597718     3A    -11.358533
       4A    -11.297396     5A    -11.255734     6A    -11.246891
       7A    -11.245907     8A    -11.245540     9A    -11.244799
      10A    -11.244068    11A    -11.243478    12A    -11.240243
      13A     -1.368140    14A     -1.251321    15A     -1.151702
      16A     -1.104444    17A     -1.041279    18A     -1.016299
      19A     -0.960170    20A     -0.881777    21A     -0.843191
      22A     -0.809992    23A     -0.767219    24A     -0.722057
      25A     -0.682745    26A     -0.671199    27A     -0.646159
      28A     -0.627974    29A     -0.610063    30A     -0.603258
      31A     -0.601897    32A     -0.578549    33A     -0.563092
      34A     -0.542673    35A     -0.517482    36A     -0.510306
      37A     -0.498027    38A     -0.493182    39A     -0.482211
      40A     -0.432464    41A     -0.426131    42A     -0.341046
      43A     -0.316168

  @DF-RHF Final Energy:  -514.59150092771938

   => Energetics <=

    Nuclear Repulsion Energy =            675.1443221719648591
    One-Electron Energy =               -2037.8610049421574786
    Two-Electron Energy =                 848.1251818424732392
    Total Energy =                       -514.5915009277193803
  Basis Set: (AUG-CC-PVTZ AUX)
    Blend: AUG-CC-PVTZ-RI
    Molecular point group: c1

    Geometry (in Angstrom), charge = 0, multiplicity = 1:

       Center              X                  Y                   Z               Mass
    ------------   -----------------  -----------------  -----------------  -----------------
         O            2.991038948768    -1.510483921052     0.077648929042    15.994914619570
         N            0.822255948768    -1.076461921052    -0.419363070958    14.003074004430
         C            0.186512948768     1.989272078948    -0.237303070958    12.000000000000
         C            1.676278948768     1.683714078948    -0.348657070958    12.000000000000
         C           -0.776962051232     0.824019078948    -0.100302070958    12.000000000000
         C            2.138693948768     0.663907078948     0.699349929042    12.000000000000
         C           -0.469113051232    -0.549080921052    -0.176854070958    12.000000000000
         C            2.032951548768    -0.707671521052     0.142783929042    12.000000000000
         C           -2.119876051232     1.171003078948     0.127189929042    12.000000000000
         C           -1.501467051232    -1.500910921052    -0.083049070958    12.000000000000
         C           -3.140833051232     0.230874078948     0.217134929042    12.000000000000
         C           -2.824505051232    -1.124416921052     0.109139929042    12.000000000000
         H           -0.123685051232     2.589327078948    -1.102915070958     1.007825032230
         H            0.038516948768     2.633942078948     0.639483929042     1.007825032230
         H            1.921322948768     1.313429078948    -1.349849070958     1.007825032230
         H            2.226444948768     2.623003078948    -0.223141070958     1.007825032230
         H            1.527580948768     0.749252078948     1.607958929042     1.007825032230
         H            3.183963948768     0.803797078948     0.983546929042     1.007825032230
         H            0.836652948768    -2.040943921052    -0.743660070958     1.007825032230
         H           -2.365292051232     2.229860078948     0.203008929042     1.007825032230
         H           -1.242062051232    -2.556980921052    -0.138763070958     1.007825032230
         H           -4.166656051232     0.550274078948     0.381211929042     1.007825032230
         H           -3.598697051232    -1.884489921052     0.176907929042     1.007825032230

  Basis Set: AUG-CC-PVTZ
    Blend: AUG-CC-PVTZ
  Basis Set: (AUG-CC-PVTZ AUX)
    Blend: AUG-CC-PVTZ-JKFIT
	 Reference Energy          =    -514.5915009277193803 [Eh]
	 Singles Energy            =      -0.0000000000000000 [Eh]
	 Same-Spin Energy          =      -0.5584769348779868 [Eh]
	 Opposite-Spin Energy      =      -1.7441549023593643 [Eh]
	 Correlation Energy        =      -2.3026318372373513 [Eh]
	 Total Energy              =    -516.8941327649566801 [Eh]

	 ================> DF-SCS-MP2 Energies <==================
	-----------------------------------------------------------
	 SCS Same-Spin Scale       =       0.3333333333333333 [-]
	 SCS Opposite-Spin Scale   =       1.2000000000000000 [-]
	 SCS Same-Spin Energy      =      -0.1861589782926623 [Eh]
	 SCS Opposite-Spin Energy  =      -2.0929858828312371 [Eh]
	 SCS Correlation Energy    =      -2.2791448611238994 [Eh]
	 SCS Total Energy          =    -516.8706457888432624 [Eh]
	-----------------------------------------------------------

  Dipole Moment: [D]
     X:    -2.8243      Y:     2.1702      Z:     0.0448     Total:     3.5621

*** Psi4 exiting successfully. Buy a developer a beer!
