                               Psi4 1.3.2 release

  ==> Input File <==

--------------------------------------------------------------------------
#psi4
#
memory 32 gb

molecule  {
0 1
  O        2.9754307    -1.5770539     0.0542808
  N        0.8317470    -1.1153310    -0.4215630
  C        0.1960040     1.9504030    -0.2395030
  C        1.6857700     1.6448450    -0.3508570
  C       -0.7674710     0.7851500    -0.1025020
  C        2.1481850     0.6250380     0.6971500
  C       -0.4596220    -0.5879500    -0.1790540
  C        2.0510250    -0.7686880     0.1361100
  C       -2.1103850     1.1321340     0.1249900
  C       -1.4919760    -1.5397800    -0.0852490
  C       -3.1313420     0.1920050     0.2149350
  C       -2.8150140    -1.1632860     0.1069400
  H       -0.1141940     2.5504580    -1.1051150
  H        0.0480080     2.5950730     0.6372840
  H        1.9308140     1.2745600    -1.3520490
  H        2.2359360     2.5841340    -0.2253410
  H        1.5370720     0.7103830     1.6057590
  H        3.1934550     0.7649280     0.9813470
  H        0.8461440    -2.0798130    -0.7458600
  H       -2.3558010     2.1909910     0.2008090
  H       -1.2325710    -2.5958500    -0.1409630
  H       -4.1571650     0.5114050     0.3790120
  H       -3.5892060    -1.9233590     0.1747080
units angstrom
no_reorient  #important for SAPT in psi4, default
symmetry c1  #important for SAPT in psi4, default
}

set PROPERTIES_ORIGIN ["COM"]
properties('MP2/aug-cc-pvtz', properties = ['dipole'])
--------------------------------------------------------------------------

    Molecular point group: c1
  Charge       = 0
  Multiplicity = 1
  Basis Set: AUG-CC-PVTZ
    Blend: AUG-CC-PVTZ
  Basis Set: (AUG-CC-PVTZ AUX)
    Blend: AUG-CC-PVTZ-JKFIT

    Orbital Energies [Eh]
    ---------------------

    Doubly Occupied:

       1A    -20.525289     2A    -15.594004     3A    -11.357162
       4A    -11.296345     5A    -11.254663     6A    -11.246012
       7A    -11.245242     8A    -11.245044     9A    -11.244688
      10A    -11.243759    11A    -11.243230    12A    -11.239320
      13A     -1.380897    14A     -1.250900    15A     -1.150742
      16A     -1.102564    17A     -1.039263    18A     -1.015366
      19A     -0.957759    20A     -0.880340    21A     -0.842217
      22A     -0.808743    23A     -0.765430    24A     -0.721292
      25A     -0.681729    26A     -0.670532    27A     -0.646113
      28A     -0.628678    29A     -0.611312    30A     -0.603087
      31A     -0.601055    32A     -0.579126    33A     -0.564335
      34A     -0.542317    35A     -0.517303    36A     -0.511274
      37A     -0.498262    38A     -0.492140    39A     -0.483189
      40A     -0.434189    41A     -0.427057    42A     -0.340176
      43A     -0.315037

  @DF-RHF Final Energy:  -514.59401658749073

   => Energetics <=

    Nuclear Repulsion Energy =            675.1792828074931094
    One-Electron Energy =               -2037.9522363083622167
    Two-Electron Energy =                 848.1789369133783794
    Total Energy =                       -514.5940165874907279
  Basis Set: (AUG-CC-PVTZ AUX)
    Blend: AUG-CC-PVTZ-RI
    Molecular point group: c1

    Geometry (in Angstrom), charge = 0, multiplicity = 1:

       Center              X                  Y                   Z               Mass
    ------------   -----------------  -----------------  -----------------  -----------------
         O            2.967792546895    -1.533784371294     0.058915926802    15.994914619570
         N            0.824108846895    -1.072061471294    -0.416927873198    14.003074004430
         C            0.188365846895     1.993672528706    -0.234867873198    12.000000000000
         C            1.678131846895     1.688114528706    -0.346221873198    12.000000000000
         C           -0.775109153105     0.828419528706    -0.097866873198    12.000000000000
         C            2.140546846895     0.668307528706     0.701785126802    12.000000000000
         C           -0.467260153105    -0.544680471294    -0.174418873198    12.000000000000
         C            2.043386846895    -0.725418471294     0.140745126802    12.000000000000
         C           -2.118023153105     1.175403528706     0.129625126802    12.000000000000
         C           -1.499614153105    -1.496510471294    -0.080613873198    12.000000000000
         C           -3.138980153105     0.235274528706     0.219570126802    12.000000000000
         C           -2.822652153105    -1.120016471294     0.111575126802    12.000000000000
         H           -0.121832153105     2.593727528706    -1.100479873198     1.007825032230
         H            0.040369846895     2.638342528706     0.641919126802     1.007825032230
         H            1.923175846895     1.317829528706    -1.347413873198     1.007825032230
         H            2.228297846895     2.627403528706    -0.220705873198     1.007825032230
         H            1.529433846895     0.753652528706     1.610394126802     1.007825032230
         H            3.185816846895     0.808197528706     0.985982126802     1.007825032230
         H            0.838505846895    -2.036543471294    -0.741224873198     1.007825032230
         H           -2.363439153105     2.234260528706     0.205444126802     1.007825032230
         H           -1.240209153105    -2.552580471294    -0.136327873198     1.007825032230
         H           -4.164803153105     0.554674528706     0.383647126802     1.007825032230
         H           -3.596844153105    -1.880089471294     0.179343126802     1.007825032230

  Basis Set: AUG-CC-PVTZ
    Blend: AUG-CC-PVTZ
  Basis Set: (AUG-CC-PVTZ AUX)
    Blend: AUG-CC-PVTZ-JKFIT
	 Reference Energy          =    -514.5940165874907279 [Eh]
	 Singles Energy            =      -0.0000000000000000 [Eh]
	 Same-Spin Energy          =      -0.5578987033200591 [Eh]
	 Opposite-Spin Energy      =      -1.7430317338935439 [Eh]
	 Correlation Energy        =      -2.3009304372136032 [Eh]
	 Total Energy              =    -516.8949470247043791 [Eh]

	 ================> DF-SCS-MP2 Energies <==================
	-----------------------------------------------------------
	 SCS Same-Spin Scale       =       0.3333333333333333 [-]
	 SCS Opposite-Spin Scale   =       1.2000000000000000 [-]
	 SCS Same-Spin Energy      =      -0.1859662344400197 [Eh]
	 SCS Opposite-Spin Energy  =      -2.0916380806722525 [Eh]
	 SCS Correlation Energy    =      -2.2776043151122725 [Eh]
	 SCS Total Energy          =    -516.8716209026030128 [Eh]
	-----------------------------------------------------------

  Dipole Moment: [D]
     X:    -2.6546      Y:     2.1361      Z:     0.0812     Total:     3.4083

*** Psi4 exiting successfully. Buy a developer a beer!
