                               Psi4 1.3.2 release

  ==> Input File <==

--------------------------------------------------------------------------
#psi4
#
memory 32 gb

molecule  {
0 1
  O        3.0005300    -1.5493530     0.0754490
  N        0.7911435    -1.2054278    -0.4217102
  C        0.1960040     1.9504030    -0.2395030
  C        1.6857700     1.6448450    -0.3508570
  C       -0.7674710     0.7851500    -0.1025020
  C        2.1481850     0.6250380     0.6971500
  C       -0.4596220    -0.5879500    -0.1790540
  C        2.0510250    -0.7686880     0.1361100
  C       -2.1103850     1.1321340     0.1249900
  C       -1.4919760    -1.5397800    -0.0852490
  C       -3.1313420     0.1920050     0.2149350
  C       -2.8150140    -1.1632860     0.1069400
  H       -0.1141940     2.5504580    -1.1051150
  H        0.0480080     2.5950730     0.6372840
  H        1.9308140     1.2745600    -1.3520490
  H        2.2359360     2.5841340    -0.2253410
  H        1.5370720     0.7103830     1.6057590
  H        3.1934550     0.7649280     0.9813470
  H        0.8461440    -2.0798130    -0.7458600
  H       -2.3558010     2.1909910     0.2008090
  H       -1.2325710    -2.5958500    -0.1409630
  H       -4.1571650     0.5114050     0.3790120
  H       -3.5892060    -1.9233590     0.1747080
units angstrom
no_reorient  #important for SAPT in psi4, default
symmetry c1  #important for SAPT in psi4, default
}

set PROPERTIES_ORIGIN ["COM"]
properties('MP2/aug-cc-pvtz', properties = ['dipole'])
--------------------------------------------------------------------------

    Molecular point group: c1
  Charge       = 0
  Multiplicity = 1
  Basis Set: AUG-CC-PVTZ
    Blend: AUG-CC-PVTZ
  Basis Set: (AUG-CC-PVTZ AUX)
    Blend: AUG-CC-PVTZ-JKFIT

    Orbital Energies [Eh]
    ---------------------

    Doubly Occupied:

       1A    -20.532170     2A    -15.586918     3A    -11.364007
       4A    -11.294947     5A    -11.254623     6A    -11.248099
       7A    -11.245026     8A    -11.244195     9A    -11.244050
      10A    -11.243427    11A    -11.239532    12A    -11.237139
      13A     -1.381258    14A     -1.249810    15A     -1.148933
      16A     -1.103512    17A     -1.037759    18A     -1.011419
      19A     -0.960653    20A     -0.875995    21A     -0.841987
      22A     -0.805393    23A     -0.772562    24A     -0.724455
      25A     -0.684399    26A     -0.671100    27A     -0.647015
      28A     -0.627546    29A     -0.611591    30A     -0.601540
      31A     -0.600481    32A     -0.584494    33A     -0.564264
      34A     -0.541745    35A     -0.516725    36A     -0.510133
      37A     -0.498802    38A     -0.493035    39A     -0.482115
      40A     -0.435243    41A     -0.427822    42A     -0.338472
      43A     -0.312083

  @DF-RHF Final Energy:  -514.58377046706164

   => Energetics <=

    Nuclear Repulsion Energy =            673.8421927265378599
    One-Electron Energy =               -2035.2589835536687133
    Two-Electron Energy =                 846.8330203600692130
    Total Energy =                       -514.5837704670616404
  Basis Set: (AUG-CC-PVTZ AUX)
    Blend: AUG-CC-PVTZ-RI
    Molecular point group: c1

    Geometry (in Angstrom), charge = 0, multiplicity = 1:

       Center              X                  Y                   Z               Mass
    ------------   -----------------  -----------------  -----------------  -----------------
         O            2.993929272018    -1.501001909484     0.077995016986    15.994914619570
         N            0.784542772018    -1.157076709484    -0.419164183014    14.003074004430
         C            0.189403272018     1.998754090516    -0.236956983014    12.000000000000
         C            1.679169272018     1.693196090516    -0.348310983014    12.000000000000
         C           -0.774071727982     0.833501090516    -0.099955983014    12.000000000000
         C            2.141584272018     0.673389090516     0.699696016986    12.000000000000
         C           -0.466222727982    -0.539598909484    -0.176507983014    12.000000000000
         C            2.044424272018    -0.720336909484     0.138656016986    12.000000000000
         C           -2.116985727982     1.180485090516     0.127536016986    12.000000000000
         C           -1.498576727982    -1.491428909484    -0.082702983014    12.000000000000
         C           -3.137942727982     0.240356090516     0.217481016986    12.000000000000
         C           -2.821614727982    -1.114934909484     0.109486016986    12.000000000000
         H           -0.120794727982     2.598809090516    -1.102568983014     1.007825032230
         H            0.041407272018     2.643424090516     0.639830016986     1.007825032230
         H            1.924213272018     1.322911090516    -1.349502983014     1.007825032230
         H            2.229335272018     2.632485090516    -0.222794983014     1.007825032230
         H            1.530471272018     0.758734090516     1.608305016986     1.007825032230
         H            3.186854272018     0.813279090516     0.983893016986     1.007825032230
         H            0.839543272018    -2.031461909484    -0.743313983014     1.007825032230
         H           -2.362401727982     2.239342090516     0.203355016986     1.007825032230
         H           -1.239171727982    -2.547498909484    -0.138416983014     1.007825032230
         H           -4.163765727982     0.559756090516     0.381558016986     1.007825032230
         H           -3.595806727982    -1.875007909484     0.177254016986     1.007825032230

  Basis Set: AUG-CC-PVTZ
    Blend: AUG-CC-PVTZ
  Basis Set: (AUG-CC-PVTZ AUX)
    Blend: AUG-CC-PVTZ-JKFIT
	 Reference Energy          =    -514.5837704670616404 [Eh]
	 Singles Energy            =      -0.0000000000000000 [Eh]
	 Same-Spin Energy          =      -0.5572645169955934 [Eh]
	 Opposite-Spin Energy      =      -1.7425832946539017 [Eh]
	 Correlation Energy        =      -2.2998478116494949 [Eh]
	 Total Energy              =    -516.8836182787110829 [Eh]

	 ================> DF-SCS-MP2 Energies <==================
	-----------------------------------------------------------
	 SCS Same-Spin Scale       =       0.3333333333333333 [-]
	 SCS Opposite-Spin Scale   =       1.2000000000000000 [-]
	 SCS Same-Spin Energy      =      -0.1857548389985311 [Eh]
	 SCS Opposite-Spin Energy  =      -2.0910999535846821 [Eh]
	 SCS Correlation Energy    =      -2.2768547925832134 [Eh]
	 SCS Total Energy          =    -516.8606252596448485 [Eh]
	-----------------------------------------------------------

  Dipole Moment: [D]
     X:    -2.3358      Y:     2.1366      Z:     0.0678     Total:     3.1663

*** Psi4 exiting successfully. Buy a developer a beer!
