                               Psi4 1.3.2 release

  ==> Input File <==

--------------------------------------------------------------------------
#psi4
#
memory 32 gb

molecule  {
0 1
  O        3.0005300    -1.5493530     0.0754490
  N        0.8317470    -1.1153310    -0.4215630
  C        0.1960040     1.9504030    -0.2395030
  C        1.6857700     1.6448450    -0.3508570
  C       -0.7674710     0.7851500    -0.1025020
  C        2.1481850     0.6250380     0.6971500
  C       -0.4124832    -0.5760805    -0.1865857
  C        2.0510250    -0.7686880     0.1361100
  C       -2.1103850     1.1321340     0.1249900
  C       -1.4919760    -1.5397800    -0.0852490
  C       -3.1313420     0.1920050     0.2149350
  C       -2.8150140    -1.1632860     0.1069400
  H       -0.1141940     2.5504580    -1.1051150
  H        0.0480080     2.5950730     0.6372840
  H        1.9308140     1.2745600    -1.3520490
  H        2.2359360     2.5841340    -0.2253410
  H        1.5370720     0.7103830     1.6057590
  H        3.1934550     0.7649280     0.9813470
  H        0.8461440    -2.0798130    -0.7458600
  H       -2.3558010     2.1909910     0.2008090
  H       -1.2325710    -2.5958500    -0.1409630
  H       -4.1571650     0.5114050     0.3790120
  H       -3.5892060    -1.9233590     0.1747080
units angstrom
no_reorient  #important for SAPT in psi4, default
symmetry c1  #important for SAPT in psi4, default
}

set PROPERTIES_ORIGIN ["COM"]
properties('MP2/aug-cc-pvtz', properties = ['dipole'])
--------------------------------------------------------------------------

    Molecular point group: c1
  Charge       = 0
  Multiplicity = 1
  Basis Set: AUG-CC-PVTZ
    Blend: AUG-CC-PVTZ
  Basis Set: (AUG-CC-PVTZ AUX)
    Blend: AUG-CC-PVTZ-JKFIT

    Orbital Energies [Eh]
    ---------------------

    Doubly Occupied:

       1A    -20.528624     2A    -15.599932     3A    -11.359488
       4A    -11.299323     5A    -11.253418     6A    -11.247203
       7A    -11.244976     8A    -11.244397     9A    -11.244133
      10A    -11.243076    11A    -11.242451    12A    -11.238307
      13A     -1.383809    14A     -1.264400    15A     -1.148560
      16A     -1.101500    17A     -1.038915    18A     -1.010748
      19A     -0.956493    20A     -0.882770    21A     -0.844150
      22A     -0.810661    23A     -0.764491    24A     -0.727321
      25A     -0.683665    26A     -0.673543    27A     -0.646539
      28A     -0.627594    29A     -0.612144    30A     -0.603423
      31A     -0.598458    32A     -0.580416    33A     -0.565637
      34A     -0.542625    35A     -0.519365    36A     -0.510038
      37A     -0.497737    38A     -0.489919    39A     -0.479447
      40A     -0.438547    41A     -0.428633    42A     -0.338913
      43A     -0.310583

  @DF-RHF Final Energy:  -514.59083278699370

   => Energetics <=

    Nuclear Repulsion Energy =            675.2536780556092708
    One-Electron Energy =               -2038.0362800930599860
    Two-Electron Energy =                 848.1917692504570141
    Total Energy =                       -514.5908327869937011
  Basis Set: (AUG-CC-PVTZ AUX)
    Blend: AUG-CC-PVTZ-RI
    Molecular point group: c1

    Geometry (in Angstrom), charge = 0, multiplicity = 1:

       Center              X                  Y                   Z               Mass
    ------------   -----------------  -----------------  -----------------  -----------------
         O            2.986887983219    -1.509718266170     0.078543296843    15.994914619570
         N            0.818104983219    -1.075696266170    -0.418468703157    14.003074004430
         C            0.182361983219     1.990037733830    -0.236408703157    12.000000000000
         C            1.672127983219     1.684479733830    -0.347762703157    12.000000000000
         C           -0.781113016781     0.824784733830    -0.099407703157    12.000000000000
         C            2.134542983219     0.664672733830     0.700244296843    12.000000000000
         C           -0.426125216781    -0.536445766170    -0.183491403157    12.000000000000
         C            2.037382983219    -0.729053266170     0.139204296843    12.000000000000
         C           -2.124027016781     1.171768733830     0.128084296843    12.000000000000
         C           -1.505618016781    -1.500145266170    -0.082154703157    12.000000000000
         C           -3.144984016781     0.231639733830     0.218029296843    12.000000000000
         C           -2.828656016781    -1.123651266170     0.110034296843    12.000000000000
         H           -0.127836016781     2.590092733830    -1.102020703157     1.007825032230
         H            0.034365983219     2.634707733830     0.640378296843     1.007825032230
         H            1.917171983219     1.314194733830    -1.348954703157     1.007825032230
         H            2.222293983219     2.623768733830    -0.222246703157     1.007825032230
         H            1.523429983219     0.750017733830     1.608853296843     1.007825032230
         H            3.179812983219     0.804562733830     0.984441296843     1.007825032230
         H            0.832501983219    -2.040178266170    -0.742765703157     1.007825032230
         H           -2.369443016781     2.230625733830     0.203903296843     1.007825032230
         H           -1.246213016781    -2.556215266170    -0.137868703157     1.007825032230
         H           -4.170807016781     0.551039733830     0.382106296843     1.007825032230
         H           -3.602848016781    -1.883724266170     0.177802296843     1.007825032230

  Basis Set: AUG-CC-PVTZ
    Blend: AUG-CC-PVTZ
  Basis Set: (AUG-CC-PVTZ AUX)
    Blend: AUG-CC-PVTZ-JKFIT
	 Reference Energy          =    -514.5908327869937011 [Eh]
	 Singles Energy            =      -0.0000000000000000 [Eh]
	 Same-Spin Energy          =      -0.5582668627426519 [Eh]
	 Opposite-Spin Energy      =      -1.7436821419862527 [Eh]
	 Correlation Energy        =      -2.3019490047289048 [Eh]
	 Total Energy              =    -516.8927817917226548 [Eh]

	 ================> DF-SCS-MP2 Energies <==================
	-----------------------------------------------------------
	 SCS Same-Spin Scale       =       0.3333333333333333 [-]
	 SCS Opposite-Spin Scale   =       1.2000000000000000 [-]
	 SCS Same-Spin Energy      =      -0.1860889542475506 [Eh]
	 SCS Opposite-Spin Energy  =      -2.0924185703835030 [Eh]
	 SCS Correlation Energy    =      -2.2785075246310535 [Eh]
	 SCS Total Energy          =    -516.8693403116247964 [Eh]
	-----------------------------------------------------------

  Dipole Moment: [D]
     X:    -2.5159      Y:     1.9970      Z:     0.0078     Total:     3.2121

*** Psi4 exiting successfully. Buy a developer a beer!
