                               Psi4 1.4a3.dev225

  ==> Input File <==

--------------------------------------------------------------------------
#psi4
#
memory 32 gb

molecule  {
0 1
  O        3.0005300    -1.5493530     0.0754490
  N        0.8317470    -1.1153310    -0.4215630
  C        0.1960040     1.9504030    -0.2395030
  C        1.6857700     1.6448450    -0.3508570
  C       -0.7674710     0.7851500    -0.1025020
  C        2.1481850     0.6250380     0.6971500
  C       -0.4596220    -0.5879500    -0.1790540
  C        2.0686339    -0.7636818     0.1441639
  C       -2.1103850     1.1321340     0.1249900
  C       -1.4919760    -1.5397800    -0.0852490
  C       -3.1313420     0.1920050     0.2149350
  C       -2.8150140    -1.1632860     0.1069400
  H       -0.1141940     2.5504580    -1.1051150
  H        0.0480080     2.5950730     0.6372840
  H        1.9308140     1.2745600    -1.3520490
  H        2.2359360     2.5841340    -0.2253410
  H        1.5370720     0.7103830     1.6057590
  H        3.1934550     0.7649280     0.9813470
  H        0.8461440    -2.0798130    -0.7458600
  H       -2.3558010     2.1909910     0.2008090
  H       -1.2325710    -2.5958500    -0.1409630
  H       -4.1571650     0.5114050     0.3790120
  H       -3.5892060    -1.9233590     0.1747080
units angstrom
no_reorient  #important for SAPT in psi4, default
symmetry c1  #important for SAPT in psi4, default
}

set PROPERTIES_ORIGIN ["COM"]
properties('MP2/aug-cc-pvtz', properties = ['dipole'])
--------------------------------------------------------------------------

    Molecular point group: c1
  Charge       = 0
  Multiplicity = 1
  Basis Set: AUG-CC-PVTZ
    Blend: AUG-CC-PVTZ
  Basis Set: (AUG-CC-PVTZ AUX)
    Blend: AUG-CC-PVTZ-JKFIT

    Orbital Energies [Eh]
    ---------------------

    Doubly Occupied:

       1A    -20.529608     2A    -15.592921     3A    -11.358319
       4A    -11.295724     5A    -11.253702     6A    -11.245305
       7A    -11.244649     8A    -11.244003     9A    -11.243463
      10A    -11.242851    11A    -11.242726    12A    -11.238458
      13A     -1.386944    14A     -1.248875    15A     -1.149248
      16A     -1.102259    17A     -1.039115    18A     -1.013670
      19A     -0.957731    20A     -0.879014    21A     -0.841160
      22A     -0.807221    23A     -0.763858    24A     -0.719571
      25A     -0.683230    26A     -0.669609    27A     -0.646323
      28A     -0.629561    29A     -0.610967    30A     -0.602961
      31A     -0.600398    32A     -0.580678    33A     -0.565002
      34A     -0.541393    35A     -0.517132    36A     -0.510901
      37A     -0.498701    38A     -0.491191    39A     -0.483052
      40A     -0.435938    41A     -0.429053    42A     -0.339469
      43A     -0.313920

  @DF-RHF Final Energy:  -514.59420660524836

   => Energetics <=

    Nuclear Repulsion Energy =            674.9145885902159989
    One-Electron Energy =               -2037.4378348483717218
    Two-Electron Energy =                 847.9290396529073632
    Total Energy =                       -514.5942066052483597
  Basis Set: (AUG-CC-PVTZ AUX)
    Blend: AUG-CC-PVTZ-RI
    Molecular point group: c1

    Geometry (in Angstrom), charge = 0, multiplicity = 1:

       Center              X                  Y                   Z               Mass
    ------------   -----------------  -----------------  -----------------  -----------------
         O            2.989087820939    -1.509206982819     0.077382243444    15.994914619570
         N            0.820304820939    -1.075184982819    -0.419629756556    14.003074004430
         C            0.184561820939     1.990549017181    -0.237569756556    12.000000000000
         C            1.674327820939     1.684991017181    -0.348923756556    12.000000000000
         C           -0.778913179061     0.825296017181    -0.100568756556    12.000000000000
         C            2.136742820939     0.665184017181     0.699083243444    12.000000000000
         C           -0.471064179061    -0.547803982819    -0.177120756556    12.000000000000
         C            2.057191720939    -0.723535782819     0.146097143444    12.000000000000
         C           -2.121827179061     1.172280017181     0.126923243444    12.000000000000
         C           -1.503418179061    -1.499633982819    -0.083315756556    12.000000000000
         C           -3.142784179061     0.232151017181     0.216868243444    12.000000000000
         C           -2.826456179061    -1.123139982819     0.108873243444    12.000000000000
         H           -0.125636179061     2.590604017181    -1.103181756556     1.007825032230
         H            0.036565820939     2.635219017181     0.639217243444     1.007825032230
         H            1.919371820939     1.314706017181    -1.350115756556     1.007825032230
         H            2.224493820939     2.624280017181    -0.223407756556     1.007825032230
         H            1.525629820939     0.750529017181     1.607692243444     1.007825032230
         H            3.182012820939     0.805074017181     0.983280243444     1.007825032230
         H            0.834701820939    -2.039666982819    -0.743926756556     1.007825032230
         H           -2.367243179061     2.231137017181     0.202742243444     1.007825032230
         H           -1.244013179061    -2.555703982819    -0.139029756556     1.007825032230
         H           -4.168607179061     0.551551017181     0.380945243444     1.007825032230
         H           -3.600648179061    -1.883212982819     0.176641243444     1.007825032230

  Basis Set: AUG-CC-PVTZ
    Blend: AUG-CC-PVTZ
  Basis Set: (AUG-CC-PVTZ AUX)
    Blend: AUG-CC-PVTZ-JKFIT
	 Reference Energy          =    -514.5942066052483597 [Eh]
	 Singles Energy            =      -0.0000000000000000 [Eh]
	 Same-Spin Energy          =      -0.5577903836602955 [Eh]
	 Opposite-Spin Energy      =      -1.7428679116510009 [Eh]
	 Correlation Energy        =      -2.3006582953112966 [Eh]
	 Total Energy              =    -516.8948649005596963 [Eh]

	 ================> DF-SCS-MP2 Energies <==================
	-----------------------------------------------------------
	 SCS Same-Spin Scale       =       0.3333333333333333 [-]
	 SCS Opposite-Spin Scale   =       1.2000000000000000 [-]
	 SCS Same-Spin Energy      =      -0.1859301278867652 [Eh]
	 SCS Opposite-Spin Energy  =      -2.0914414939812009 [Eh]
	 SCS Correlation Energy    =      -2.2773716218679660 [Eh]
	 SCS Total Energy          =    -516.8715782271162880 [Eh]
	-----------------------------------------------------------

  Dipole Moment: [D]
     X:    -2.5272      Y:     2.0526      Z:     0.0770     Total:     3.2567

*** Psi4 exiting successfully. Buy a developer a beer!
