                               Psi4 1.4a3.dev225

  ==> Input File <==

--------------------------------------------------------------------------
#psi4
#
memory 32 gb

molecule  {
0 1
  O        3.0005300    -1.5493530     0.0754490
  N        0.8317470    -1.1153310    -0.4215630
  C        0.1960040     1.9504030    -0.2395030
  C        1.6857700     1.6448450    -0.3508570
  C       -0.7674710     0.7851500    -0.1025020
  C        2.1481850     0.6250380     0.6971500
  C       -0.4486997    -0.6366668    -0.1817700
  C        2.0510250    -0.7686880     0.1361100
  C       -2.1103850     1.1321340     0.1249900
  C       -1.4919760    -1.5397800    -0.0852490
  C       -3.1313420     0.1920050     0.2149350
  C       -2.8150140    -1.1632860     0.1069400
  H       -0.1141940     2.5504580    -1.1051150
  H        0.0480080     2.5950730     0.6372840
  H        1.9308140     1.2745600    -1.3520490
  H        2.2359360     2.5841340    -0.2253410
  H        1.5370720     0.7103830     1.6057590
  H        3.1934550     0.7649280     0.9813470
  H        0.8461440    -2.0798130    -0.7458600
  H       -2.3558010     2.1909910     0.2008090
  H       -1.2325710    -2.5958500    -0.1409630
  H       -4.1571650     0.5114050     0.3790120
  H       -3.5892060    -1.9233590     0.1747080
units angstrom
no_reorient  #important for SAPT in psi4, default
symmetry c1  #important for SAPT in psi4, default
}

set PROPERTIES_ORIGIN ["COM"]
properties('MP2/aug-cc-pvtz', properties = ['dipole'])
--------------------------------------------------------------------------

    Molecular point group: c1
  Charge       = 0
  Multiplicity = 1
  Basis Set: AUG-CC-PVTZ
    Blend: AUG-CC-PVTZ
  Basis Set: (AUG-CC-PVTZ AUX)
    Blend: AUG-CC-PVTZ-JKFIT

    Orbital Energies [Eh]
    ---------------------

    Doubly Occupied:

       1A    -20.528588     2A    -15.598004     3A    -11.360064
       4A    -11.298171     5A    -11.258801     6A    -11.245493
       7A    -11.244618     8A    -11.243917     9A    -11.243373
      10A    -11.242585    11A    -11.240650    12A    -11.238518
      13A     -1.383192    14A     -1.260970    15A     -1.148795
      16A     -1.102590    17A     -1.036103    18A     -1.018685
      19A     -0.954916    20A     -0.883643    21A     -0.839427
      22A     -0.808854    23A     -0.769010    24A     -0.724556
      25A     -0.683231    26A     -0.670239    27A     -0.647071
      28A     -0.627604    29A     -0.611970    30A     -0.604533
      31A     -0.601968    32A     -0.577679    33A     -0.565059
      34A     -0.543228    35A     -0.516361    36A     -0.510156
      37A     -0.498170    38A     -0.489474    39A     -0.483097
      40A     -0.438220    41A     -0.428757    42A     -0.340605
      43A     -0.310595

  @DF-RHF Final Energy:  -514.59067187978712

   => Energetics <=

    Nuclear Repulsion Energy =            674.8434759711615243
    One-Electron Energy =               -2037.2252140952755326
    Two-Electron Energy =                 847.7910662443268848
    Total Energy =                       -514.5906718797871235
  Basis Set: (AUG-CC-PVTZ AUX)
    Blend: AUG-CC-PVTZ-RI
    Molecular point group: c1

    Geometry (in Angstrom), charge = 0, multiplicity = 1:

       Center              X                  Y                   Z               Mass
    ------------   -----------------  -----------------  -----------------  -----------------
         O            2.989585940977    -1.505204873708     0.078184549996    15.994914619570
         N            0.820802940977    -1.071182873708    -0.418827450004    14.003074004430
         C            0.185059940977     1.994551126292    -0.236767450004    12.000000000000
         C            1.674825940977     1.688993126292    -0.348121450004    12.000000000000
         C           -0.778415059023     0.829298126292    -0.099766450004    12.000000000000
         C            2.137240940977     0.669186126292     0.699885549996    12.000000000000
         C           -0.459643759023    -0.592518673708    -0.179034450004    12.000000000000
         C            2.040080940977    -0.724539873708     0.138845549996    12.000000000000
         C           -2.121329059023     1.176282126292     0.127725549996    12.000000000000
         C           -1.502920059023    -1.495631873708    -0.082513450004    12.000000000000
         C           -3.142286059023     0.236153126292     0.217670549996    12.000000000000
         C           -2.825958059023    -1.119137873708     0.109675549996    12.000000000000
         H           -0.125138059023     2.594606126292    -1.102379450004     1.007825032230
         H            0.037063940977     2.639221126292     0.640019549996     1.007825032230
         H            1.919869940977     1.318708126292    -1.349313450004     1.007825032230
         H            2.224991940977     2.628282126292    -0.222605450004     1.007825032230
         H            1.526127940977     0.754531126292     1.608494549996     1.007825032230
         H            3.182510940977     0.809076126292     0.984082549996     1.007825032230
         H            0.835199940977    -2.035664873708    -0.743124450004     1.007825032230
         H           -2.366745059023     2.235139126292     0.203544549996     1.007825032230
         H           -1.243515059023    -2.551701873708    -0.138227450004     1.007825032230
         H           -4.168109059023     0.555553126292     0.381747549996     1.007825032230
         H           -3.600150059023    -1.879210873708     0.177443549996     1.007825032230

  Basis Set: AUG-CC-PVTZ
    Blend: AUG-CC-PVTZ
  Basis Set: (AUG-CC-PVTZ AUX)
    Blend: AUG-CC-PVTZ-JKFIT
	 Reference Energy          =    -514.5906718797871235 [Eh]
	 Singles Energy            =      -0.0000000000000000 [Eh]
	 Same-Spin Energy          =      -0.5582352730810367 [Eh]
	 Opposite-Spin Energy      =      -1.7435404262299308 [Eh]
	 Correlation Energy        =      -2.3017756993109675 [Eh]
	 Total Energy              =    -516.8924475790980750 [Eh]

	 ================> DF-SCS-MP2 Energies <==================
	-----------------------------------------------------------
	 SCS Same-Spin Scale       =       0.3333333333333333 [-]
	 SCS Opposite-Spin Scale   =       1.2000000000000000 [-]
	 SCS Same-Spin Energy      =      -0.1860784243603456 [Eh]
	 SCS Opposite-Spin Energy  =      -2.0922485114759168 [Eh]
	 SCS Correlation Energy    =      -2.2783269358362626 [Eh]
	 SCS Total Energy          =    -516.8689988156233994 [Eh]
	-----------------------------------------------------------

  Dipole Moment: [D]
     X:    -2.5574      Y:     2.0221      Z:     0.0327     Total:     3.2604

*** Psi4 exiting successfully. Buy a developer a beer!
