                               Psi4 1.3.2 release

  ==> Input File <==

--------------------------------------------------------------------------
#psi4
#
memory 32 gb

molecule  {
0 1
  O        3.0005300    -1.5493530     0.0754490
  N        0.8317470    -1.1153310    -0.4215630
  C        0.1960040     1.9504030    -0.2395030
  C        1.6857700     1.6448450    -0.3508570
  C       -0.7435962     0.7904307    -0.1051619
  C        2.1481850     0.6250380     0.6971500
  C       -0.4596220    -0.5879500    -0.1790540
  C        2.0510250    -0.7686880     0.1361100
  C       -2.1103850     1.1321340     0.1249900
  C       -1.4919760    -1.5397800    -0.0852490
  C       -3.1313420     0.1920050     0.2149350
  C       -2.8150140    -1.1632860     0.1069400
  H       -0.1141940     2.5504580    -1.1051150
  H        0.0480080     2.5950730     0.6372840
  H        1.9308140     1.2745600    -1.3520490
  H        2.2359360     2.5841340    -0.2253410
  H        1.5370720     0.7103830     1.6057590
  H        3.1934550     0.7649280     0.9813470
  H        0.8461440    -2.0798130    -0.7458600
  H       -2.3558010     2.1909910     0.2008090
  H       -1.2325710    -2.5958500    -0.1409630
  H       -4.1571650     0.5114050     0.3790120
  H       -3.5892060    -1.9233590     0.1747080
units angstrom
no_reorient  #important for SAPT in psi4, default
symmetry c1  #important for SAPT in psi4, default
}

set PROPERTIES_ORIGIN ["COM"]
properties('MP2/aug-cc-pvtz', properties = ['dipole'])
--------------------------------------------------------------------------

    Molecular point group: c1
  Charge       = 0
  Multiplicity = 1
  Basis Set: AUG-CC-PVTZ
    Blend: AUG-CC-PVTZ
  Basis Set: (AUG-CC-PVTZ AUX)
    Blend: AUG-CC-PVTZ-JKFIT

    Orbital Energies [Eh]
    ---------------------

    Doubly Occupied:

       1A    -20.525316     2A    -15.595218     3A    -11.356714
       4A    -11.297437     5A    -11.256458     6A    -11.247299
       7A    -11.246901     8A    -11.244734     9A    -11.244599
      10A    -11.242861    11A    -11.242096    12A    -11.240009
      13A     -1.379773    14A     -1.252813    15A     -1.149752
      16A     -1.103355    17A     -1.039313    18A     -1.015129
      19A     -0.957155    20A     -0.881499    21A     -0.842607
      22A     -0.808454    23A     -0.764603    24A     -0.721055
      25A     -0.681760    26A     -0.671824    27A     -0.646884
      28A     -0.628444    29A     -0.611978    30A     -0.602461
      31A     -0.600824    32A     -0.579872    33A     -0.564238
      34A     -0.541661    35A     -0.517034    36A     -0.511105
      37A     -0.497305    38A     -0.492966    39A     -0.484195
      40A     -0.435027    41A     -0.425634    42A     -0.338151
      43A     -0.316301

  @DF-RHF Final Energy:  -514.59306821179837

   => Energetics <=

    Nuclear Repulsion Energy =            675.0855289482519765
    One-Electron Energy =               -2037.7515706910610334
    Two-Electron Energy =                 848.0729735310106889
    Total Energy =                       -514.5930682117983679
  Basis Set: (AUG-CC-PVTZ AUX)
    Blend: AUG-CC-PVTZ-RI
    Molecular point group: c1

    Geometry (in Angstrom), charge = 0, multiplicity = 1:

       Center              X                  Y                   Z               Mass
    ------------   -----------------  -----------------  -----------------  -----------------
         O            2.988621041059    -1.509227431769     0.078180370812    15.994914619570
         N            0.819838041059    -1.075205431769    -0.418831629188    14.003074004430
         C            0.184095041059     1.990528568231    -0.236771629188    12.000000000000
         C            1.673861041059     1.684970568231    -0.348125629188    12.000000000000
         C           -0.755505158941     0.830556268231    -0.102430529188    12.000000000000
         C            2.136276041059     0.665163568231     0.699881370812    12.000000000000
         C           -0.471530958941    -0.547824431769    -0.176322629188    12.000000000000
         C            2.039116041059    -0.728562431769     0.138841370812    12.000000000000
         C           -2.122293958941     1.172259568231     0.127721370812    12.000000000000
         C           -1.503884958941    -1.499654431769    -0.082517629188    12.000000000000
         C           -3.143250958941     0.232130568231     0.217666370812    12.000000000000
         C           -2.826922958941    -1.123160431769     0.109671370812    12.000000000000
         H           -0.126102958941     2.590583568231    -1.102383629188     1.007825032230
         H            0.036099041059     2.635198568231     0.640015370812     1.007825032230
         H            1.918905041059     1.314685568231    -1.349317629188     1.007825032230
         H            2.224027041059     2.624259568231    -0.222609629188     1.007825032230
         H            1.525163041059     0.750508568231     1.608490370812     1.007825032230
         H            3.181546041059     0.805053568231     0.984078370812     1.007825032230
         H            0.834235041059    -2.039687431769    -0.743128629188     1.007825032230
         H           -2.367709958941     2.231116568231     0.203540370812     1.007825032230
         H           -1.244479958941    -2.555724431769    -0.138231629188     1.007825032230
         H           -4.169073958941     0.551530568231     0.381743370812     1.007825032230
         H           -3.601114958941    -1.883233431769     0.177439370812     1.007825032230

  Basis Set: AUG-CC-PVTZ
    Blend: AUG-CC-PVTZ
  Basis Set: (AUG-CC-PVTZ AUX)
    Blend: AUG-CC-PVTZ-JKFIT
	 Reference Energy          =    -514.5930682117983679 [Eh]
	 Singles Energy            =      -0.0000000000000000 [Eh]
	 Same-Spin Energy          =      -0.5580607273264027 [Eh]
	 Opposite-Spin Energy      =      -1.7434338469175790 [Eh]
	 Correlation Energy        =      -2.3014945742439816 [Eh]
	 Total Energy              =    -516.8945627860423429 [Eh]

	 ================> DF-SCS-MP2 Energies <==================
	-----------------------------------------------------------
	 SCS Same-Spin Scale       =       0.3333333333333333 [-]
	 SCS Opposite-Spin Scale   =       1.2000000000000000 [-]
	 SCS Same-Spin Energy      =      -0.1860202424421342 [Eh]
	 SCS Opposite-Spin Energy  =      -2.0921206163010946 [Eh]
	 SCS Correlation Energy    =      -2.2781408587432290 [Eh]
	 SCS Total Energy          =    -516.8712090705415676 [Eh]
	-----------------------------------------------------------

  Dipole Moment: [D]
     X:    -2.7486      Y:     2.0785      Z:     0.0325     Total:     3.4462

*** Psi4 exiting successfully. Buy a developer a beer!
