                               Psi4 1.4a3.dev225

  ==> Input File <==

--------------------------------------------------------------------------
#psi4
#
memory 32 gb

molecule  {
0 1
  O        3.0005300    -1.5493530     0.0754490
  N        0.8317470    -1.1153310    -0.4215630
  C        0.1960040     1.9504030    -0.2395030
  C        1.6857700     1.6448450    -0.3508570
  C       -0.7674710     0.7851500    -0.1025020
  C        2.1481850     0.6250380     0.6971500
  C       -0.4596220    -0.5879500    -0.1790540
  C        2.0124499    -0.7369723     0.1385744
  C       -2.1103850     1.1321340     0.1249900
  C       -1.4919760    -1.5397800    -0.0852490
  C       -3.1313420     0.1920050     0.2149350
  C       -2.8150140    -1.1632860     0.1069400
  H       -0.1141940     2.5504580    -1.1051150
  H        0.0480080     2.5950730     0.6372840
  H        1.9308140     1.2745600    -1.3520490
  H        2.2359360     2.5841340    -0.2253410
  H        1.5370720     0.7103830     1.6057590
  H        3.1934550     0.7649280     0.9813470
  H        0.8461440    -2.0798130    -0.7458600
  H       -2.3558010     2.1909910     0.2008090
  H       -1.2325710    -2.5958500    -0.1409630
  H       -4.1571650     0.5114050     0.3790120
  H       -3.5892060    -1.9233590     0.1747080
units angstrom
no_reorient  #important for SAPT in psi4, default
symmetry c1  #important for SAPT in psi4, default
}

set PROPERTIES_ORIGIN ["COM"]
properties('MP2/aug-cc-pvtz', properties = ['dipole'])
--------------------------------------------------------------------------

    Molecular point group: c1
  Charge       = 0
  Multiplicity = 1
  Basis Set: AUG-CC-PVTZ
    Blend: AUG-CC-PVTZ
  Basis Set: (AUG-CC-PVTZ AUX)
    Blend: AUG-CC-PVTZ-JKFIT

    Orbital Energies [Eh]
    ---------------------

    Doubly Occupied:

       1A    -20.515546     2A    -15.602800     3A    -11.357824
       4A    -11.299280     5A    -11.258032     6A    -11.248676
       7A    -11.247222     8A    -11.247036     9A    -11.247007
      10A    -11.244455    11A    -11.243807    12A    -11.242302
      13A     -1.354147    14A     -1.252593    15A     -1.154520
      16A     -1.105854    17A     -1.042793    18A     -1.019436
      19A     -0.961847    20A     -0.884692    21A     -0.845552
      22A     -0.812952    23A     -0.770829    24A     -0.725026
      25A     -0.682175    26A     -0.673095    27A     -0.647335
      28A     -0.627210    29A     -0.609832    30A     -0.604521
      31A     -0.602530    32A     -0.576338    33A     -0.560463
      34A     -0.544272    35A     -0.517601    36A     -0.510252
      37A     -0.497957    38A     -0.494626    39A     -0.481555
      40A     -0.427674    41A     -0.421081    42A     -0.342769
      43A     -0.318823

  @DF-RHF Final Energy:  -514.58673904018985

   => Energetics <=

    Nuclear Repulsion Energy =            675.4116773987196893
    One-Electron Energy =               -2038.3481595306882355
    Two-Electron Energy =                 848.3497430917788051
    Total Energy =                       -514.5867390401898547
  Basis Set: (AUG-CC-PVTZ AUX)
    Blend: AUG-CC-PVTZ-RI
    Molecular point group: c1

    Geometry (in Angstrom), charge = 0, multiplicity = 1:

       Center              X                  Y                   Z               Mass
    ------------   -----------------  -----------------  -----------------  -----------------
         O            2.993273262896    -1.511196714094     0.077798634727    15.994914619570
         N            0.824490262896    -1.077174714094    -0.419213365273    14.003074004430
         C            0.188747262896     1.988559285906    -0.237153365273    12.000000000000
         C            1.678513262896     1.683001285906    -0.348507365273    12.000000000000
         C           -0.774727737104     0.823306285906    -0.100152365273    12.000000000000
         C            2.140928262896     0.663194285906     0.699499634727    12.000000000000
         C           -0.466878737104    -0.549793714094    -0.176704365273    12.000000000000
         C            2.005193162896    -0.698816014094     0.140924034727    12.000000000000
         C           -2.117641737104     1.170290285906     0.127339634727    12.000000000000
         C           -1.499232737104    -1.501623714094    -0.082899365273    12.000000000000
         C           -3.138598737104     0.230161285906     0.217284634727    12.000000000000
         C           -2.822270737104    -1.125129714094     0.109289634727    12.000000000000
         H           -0.121450737104     2.588614285906    -1.102765365273     1.007825032230
         H            0.040751262896     2.633229285906     0.639633634727     1.007825032230
         H            1.923557262896     1.312716285906    -1.349699365273     1.007825032230
         H            2.228679262896     2.622290285906    -0.222991365273     1.007825032230
         H            1.529815262896     0.748539285906     1.608108634727     1.007825032230
         H            3.186198262896     0.803084285906     0.983696634727     1.007825032230
         H            0.838887262896    -2.041656714094    -0.743510365273     1.007825032230
         H           -2.363057737104     2.229147285906     0.203158634727     1.007825032230
         H           -1.239827737104    -2.557693714094    -0.138613365273     1.007825032230
         H           -4.164421737104     0.549561285906     0.381361634727     1.007825032230
         H           -3.596462737104    -1.885202714094     0.177057634727     1.007825032230

  Basis Set: AUG-CC-PVTZ
    Blend: AUG-CC-PVTZ
  Basis Set: (AUG-CC-PVTZ AUX)
    Blend: AUG-CC-PVTZ-JKFIT
	 Reference Energy          =    -514.5867390401898547 [Eh]
	 Singles Energy            =      -0.0000000000000000 [Eh]
	 Same-Spin Energy          =      -0.5590780031269615 [Eh]
	 Opposite-Spin Energy      =      -1.7452829789627833 [Eh]
	 Correlation Energy        =      -2.3043609820897446 [Eh]
	 Total Energy              =    -516.8911000222796019 [Eh]

	 ================> DF-SCS-MP2 Energies <==================
	-----------------------------------------------------------
	 SCS Same-Spin Scale       =       0.3333333333333333 [-]
	 SCS Opposite-Spin Scale   =       1.2000000000000000 [-]
	 SCS Same-Spin Energy      =      -0.1863593343756538 [Eh]
	 SCS Opposite-Spin Energy  =      -2.0943395747553399 [Eh]
	 SCS Correlation Energy    =      -2.2806989091309937 [Eh]
	 SCS Total Energy          =    -516.8674379493209017 [Eh]
	-----------------------------------------------------------

  Dipole Moment: [D]
     X:    -3.1463      Y:     2.2637      Z:     0.0041     Total:     3.8760

*** Psi4 exiting successfully. Buy a developer a beer!
