                               Psi4 1.3.2 release

  ==> Input File <==

--------------------------------------------------------------------------
#psi4
#
memory 32 gb

molecule  {
0 1
  O        3.0005300    -1.5493530     0.0754490
  N        0.7700653    -1.2497689    -0.4123779
  C        0.1960040     1.9504030    -0.2395030
  C        1.6857700     1.6448450    -0.3508570
  C       -0.7674710     0.7851500    -0.1025020
  C        2.1481850     0.6250380     0.6971500
  C       -0.4596220    -0.5879500    -0.1790540
  C        2.0510250    -0.7686880     0.1361100
  C       -2.1103850     1.1321340     0.1249900
  C       -1.4919760    -1.5397800    -0.0852490
  C       -3.1313420     0.1920050     0.2149350
  C       -2.8150140    -1.1632860     0.1069400
  H       -0.1141940     2.5504580    -1.1051150
  H        0.0480080     2.5950730     0.6372840
  H        1.9308140     1.2745600    -1.3520490
  H        2.2359360     2.5841340    -0.2253410
  H        1.5370720     0.7103830     1.6057590
  H        3.1934550     0.7649280     0.9813470
  H        0.8461440    -2.0798130    -0.7458600
  H       -2.3558010     2.1909910     0.2008090
  H       -1.2325710    -2.5958500    -0.1409630
  H       -4.1571650     0.5114050     0.3790120
  H       -3.5892060    -1.9233590     0.1747080
units angstrom
no_reorient  #important for SAPT in psi4, default
symmetry c1  #important for SAPT in psi4, default
}

set PROPERTIES_ORIGIN ["COM"]
properties('MP2/aug-cc-pvtz', properties = ['dipole'])
--------------------------------------------------------------------------

    Molecular point group: c1
  Charge       = 0
  Multiplicity = 1
  Basis Set: AUG-CC-PVTZ
    Blend: AUG-CC-PVTZ
  Basis Set: (AUG-CC-PVTZ AUX)
    Blend: AUG-CC-PVTZ-JKFIT

    Orbital Energies [Eh]
    ---------------------

    Doubly Occupied:

       1A    -20.535012     2A    -15.582510     3A    -11.366885
       4A    -11.294372     5A    -11.254600     6A    -11.250411
       7A    -11.245479     8A    -11.244768     9A    -11.243672
      10A    -11.242053    11A    -11.237343    12A    -11.236024
      13A     -1.381886    14A     -1.249380    15A     -1.148335
      16A     -1.104225    17A     -1.037430    18A     -1.009924
      19A     -0.962443    20A     -0.874351    21A     -0.842467
      22A     -0.804206    23A     -0.776205    24A     -0.724923
      25A     -0.685433    26A     -0.671441    27A     -0.647376
      28A     -0.626839    29A     -0.611575    30A     -0.601527
      31A     -0.599422    32A     -0.586477    33A     -0.563428
      34A     -0.541478    35A     -0.516165    36A     -0.509916
      37A     -0.499146    38A     -0.493369    39A     -0.481567
      40A     -0.435463    41A     -0.427389    42A     -0.337614
      43A     -0.310449

  @DF-RHF Final Energy:  -514.56958678404749

   => Energetics <=

    Nuclear Repulsion Energy =            673.3273576076625204
    One-Electron Energy =               -2034.2039349407573354
    Two-Electron Energy =                 846.3069905490472138
    Total Energy =                       -514.5695867840474875
  Basis Set: (AUG-CC-PVTZ AUX)
    Blend: AUG-CC-PVTZ-RI
    Molecular point group: c1

    Geometry (in Angstrom), charge = 0, multiplicity = 1:

       Center              X                  Y                   Z               Mass
    ------------   -----------------  -----------------  -----------------  -----------------
         O            2.995761604697    -1.497147327663     0.077183758043    15.994914619570
         N            0.765296904697    -1.197563227663    -0.410643141957    14.003074004430
         C            0.191235604697     2.002608672337    -0.237768241957    12.000000000000
         C            1.681001604697     1.697050672337    -0.349122241957    12.000000000000
         C           -0.772239395303     0.837355672337    -0.100767241957    12.000000000000
         C            2.143416604697     0.677243672337     0.698884758043    12.000000000000
         C           -0.464390395303    -0.535744327663    -0.177319241957    12.000000000000
         C            2.046256604697    -0.716482327663     0.137844758043    12.000000000000
         C           -2.115153395303     1.184339672337     0.126724758043    12.000000000000
         C           -1.496744395303    -1.487574327663    -0.083514241957    12.000000000000
         C           -3.136110395303     0.244210672337     0.216669758043    12.000000000000
         C           -2.819782395303    -1.111080327663     0.108674758043    12.000000000000
         H           -0.118962395303     2.602663672337    -1.103380241957     1.007825032230
         H            0.043239604697     2.647278672337     0.639018758043     1.007825032230
         H            1.926045604697     1.326765672337    -1.350314241957     1.007825032230
         H            2.231167604697     2.636339672337    -0.223606241957     1.007825032230
         H            1.532303604697     0.762588672337     1.607493758043     1.007825032230
         H            3.188686604697     0.817133672337     0.983081758043     1.007825032230
         H            0.841375604697    -2.027607327663    -0.744125241957     1.007825032230
         H           -2.360569395303     2.243196672337     0.202543758043     1.007825032230
         H           -1.237339395303    -2.543644327663    -0.139228241957     1.007825032230
         H           -4.161933395303     0.563610672337     0.380746758043     1.007825032230
         H           -3.593974395303    -1.871153327663     0.176442758043     1.007825032230

  Basis Set: AUG-CC-PVTZ
    Blend: AUG-CC-PVTZ
  Basis Set: (AUG-CC-PVTZ AUX)
    Blend: AUG-CC-PVTZ-JKFIT
	 Reference Energy          =    -514.5695867840474875 [Eh]
	 Singles Energy            =      -0.0000000000000000 [Eh]
	 Same-Spin Energy          =      -0.5571899888098857 [Eh]
	 Opposite-Spin Energy      =      -1.7429240810094768 [Eh]
	 Correlation Energy        =      -2.3001140698193625 [Eh]
	 Total Energy              =    -516.8697008538669024 [Eh]

	 ================> DF-SCS-MP2 Energies <==================
	-----------------------------------------------------------
	 SCS Same-Spin Scale       =       0.3333333333333333 [-]
	 SCS Opposite-Spin Scale   =       1.2000000000000000 [-]
	 SCS Same-Spin Energy      =      -0.1857299962699619 [Eh]
	 SCS Opposite-Spin Energy  =      -2.0915088972113720 [Eh]
	 SCS Correlation Energy    =      -2.2772388934813339 [Eh]
	 SCS Total Energy          =    -516.8468256775288410 [Eh]
	-----------------------------------------------------------

  Dipole Moment: [D]
     X:    -2.1567      Y:     2.1858      Z:     0.0681     Total:     3.0714

*** Psi4 exiting successfully. Buy a developer a beer!
