                               Psi4 1.3.2 release

  ==> Input File <==

--------------------------------------------------------------------------
#psi4
#
memory 32 gb

molecule  {
0 1
  O        3.0005300    -1.5493530     0.0754490
  N        0.8317470    -1.1153310    -0.4215630
  C        0.1960040     1.9504030    -0.2395030
  C        1.6857700     1.6448450    -0.3508570
  C       -0.7951657     0.6910420    -0.1012941
  C        2.1481850     0.6250380     0.6971500
  C       -0.4596220    -0.5879500    -0.1790540
  C        2.0510250    -0.7686880     0.1361100
  C       -2.1103850     1.1321340     0.1249900
  C       -1.4919760    -1.5397800    -0.0852490
  C       -3.1313420     0.1920050     0.2149350
  C       -2.8150140    -1.1632860     0.1069400
  H       -0.1141940     2.5504580    -1.1051150
  H        0.0480080     2.5950730     0.6372840
  H        1.9308140     1.2745600    -1.3520490
  H        2.2359360     2.5841340    -0.2253410
  H        1.5370720     0.7103830     1.6057590
  H        3.1934550     0.7649280     0.9813470
  H        0.8461440    -2.0798130    -0.7458600
  H       -2.3558010     2.1909910     0.2008090
  H       -1.2325710    -2.5958500    -0.1409630
  H       -4.1571650     0.5114050     0.3790120
  H       -3.5892060    -1.9233590     0.1747080
units angstrom
no_reorient  #important for SAPT in psi4, default
symmetry c1  #important for SAPT in psi4, default
}

set PROPERTIES_ORIGIN ["COM"]
properties('MP2/aug-cc-pvtz', properties = ['dipole'])
--------------------------------------------------------------------------

    Molecular point group: c1
  Charge       = 0
  Multiplicity = 1
  Basis Set: AUG-CC-PVTZ
    Blend: AUG-CC-PVTZ
  Basis Set: (AUG-CC-PVTZ AUX)
    Blend: AUG-CC-PVTZ-JKFIT

    Orbital Energies [Eh]
    ---------------------

    Doubly Occupied:

       1A    -20.525143     2A    -15.595889     3A    -11.356569
       4A    -11.287097     5A    -11.248822     6A    -11.247715
       7A    -11.246494     8A    -11.245989     9A    -11.245221
      10A    -11.241619    11A    -11.240663    12A    -11.239920
      13A     -1.379671    14A     -1.255411    15A     -1.156754
      16A     -1.095473    17A     -1.038399    18A     -1.018893
      19A     -0.958673    20A     -0.873566    21A     -0.851136
      22A     -0.808918    23A     -0.764073    24A     -0.724890
      25A     -0.680484    26A     -0.670110    27A     -0.642443
      28A     -0.634475    29A     -0.611427    30A     -0.603384
      31A     -0.598538    32A     -0.575803    33A     -0.563898
      34A     -0.542173    35A     -0.522885    36A     -0.509570
      37A     -0.500213    38A     -0.492257    39A     -0.463899
      40A     -0.435312    41A     -0.425459    42A     -0.341894
      43A     -0.324872

  @DF-RHF Final Energy:  -514.58506526434883

   => Energetics <=

    Nuclear Repulsion Energy =            675.8417766437636374
    One-Electron Energy =               -2039.2814950576359934
    Two-Electron Energy =                 848.8546531495236422
    Total Energy =                       -514.5850652643488274
  Basis Set: (AUG-CC-PVTZ AUX)
    Blend: AUG-CC-PVTZ-RI
    Molecular point group: c1

    Geometry (in Angstrom), charge = 0, multiplicity = 1:

       Center              X                  Y                   Z               Mass
    ------------   -----------------  -----------------  -----------------  -----------------
         O            2.992462724617    -1.501823444245     0.077892238027    15.994914619570
         N            0.823679724617    -1.067801444245    -0.419119761973    14.003074004430
         C            0.187936724617     1.997932555755    -0.237059761973    12.000000000000
         C            1.677702724617     1.692374555755    -0.348413761973    12.000000000000
         C           -0.803232975383     0.738571555755    -0.098850861973    12.000000000000
         C            2.140117724617     0.672567555755     0.699593238027    12.000000000000
         C           -0.467689275383    -0.540420444245    -0.176610761973    12.000000000000
         C            2.042957724617    -0.721158444245     0.138553238027    12.000000000000
         C           -2.118452275383     1.179663555755     0.127433238027    12.000000000000
         C           -1.500043275383    -1.492250444245    -0.082805761973    12.000000000000
         C           -3.139409275383     0.239534555755     0.217378238027    12.000000000000
         C           -2.823081275383    -1.115756444245     0.109383238027    12.000000000000
         H           -0.122261275383     2.597987555755    -1.102671761973     1.007825032230
         H            0.039940724617     2.642602555755     0.639727238027     1.007825032230
         H            1.922746724617     1.322089555755    -1.349605761973     1.007825032230
         H            2.227868724617     2.631663555755    -0.222897761973     1.007825032230
         H            1.529004724617     0.757912555755     1.608202238027     1.007825032230
         H            3.185387724617     0.812457555755     0.983790238027     1.007825032230
         H            0.838076724617    -2.032283444245    -0.743416761973     1.007825032230
         H           -2.363868275383     2.238520555755     0.203252238027     1.007825032230
         H           -1.240638275383    -2.548320444245    -0.138519761973     1.007825032230
         H           -4.165232275383     0.558934555755     0.381455238027     1.007825032230
         H           -3.597273275383    -1.875829444245     0.177151238027     1.007825032230

  Basis Set: AUG-CC-PVTZ
    Blend: AUG-CC-PVTZ
  Basis Set: (AUG-CC-PVTZ AUX)
    Blend: AUG-CC-PVTZ-JKFIT
	 Reference Energy          =    -514.5850652643488274 [Eh]
	 Singles Energy            =      -0.0000000000000000 [Eh]
	 Same-Spin Energy          =      -0.5570771232335996 [Eh]
	 Opposite-Spin Energy      =      -1.7423822601159888 [Eh]
	 Correlation Energy        =      -2.2994593833495882 [Eh]
	 Total Energy              =    -516.8845246476984130 [Eh]

	 ================> DF-SCS-MP2 Energies <==================
	-----------------------------------------------------------
	 SCS Same-Spin Scale       =       0.3333333333333333 [-]
	 SCS Opposite-Spin Scale   =       1.2000000000000000 [-]
	 SCS Same-Spin Energy      =      -0.1856923744111998 [Eh]
	 SCS Opposite-Spin Energy  =      -2.0908587121391866 [Eh]
	 SCS Correlation Energy    =      -2.2765510865503864 [Eh]
	 SCS Total Energy          =    -516.8616163508992258 [Eh]
	-----------------------------------------------------------

  Dipole Moment: [D]
     X:    -2.8723      Y:     2.0293      Z:     0.0565     Total:     3.5173

*** Psi4 exiting successfully. Buy a developer a beer!
