                               Psi4 1.3.2 release

  ==> Input File <==

--------------------------------------------------------------------------
#psi4
#
memory 32 gb

molecule  {
0 1
  O        3.0005300    -1.5493530     0.0754490
  N        0.8317470    -1.1153310    -0.4215630
  C        0.1960040     1.9504030    -0.2395030
  C        1.6857700     1.6448450    -0.3508570
  C       -0.7674710     0.7851500    -0.1025020
  C        2.1481850     0.6250380     0.6971500
  C       -0.3684127    -0.6251989    -0.1961824
  C        2.0510250    -0.7686880     0.1361100
  C       -2.1103850     1.1321340     0.1249900
  C       -1.4919760    -1.5397800    -0.0852490
  C       -3.1313420     0.1920050     0.2149350
  C       -2.8150140    -1.1632860     0.1069400
  H       -0.1141940     2.5504580    -1.1051150
  H        0.0480080     2.5950730     0.6372840
  H        1.9308140     1.2745600    -1.3520490
  H        2.2359360     2.5841340    -0.2253410
  H        1.5370720     0.7103830     1.6057590
  H        3.1934550     0.7649280     0.9813470
  H        0.8461440    -2.0798130    -0.7458600
  H       -2.3558010     2.1909910     0.2008090
  H       -1.2325710    -2.5958500    -0.1409630
  H       -4.1571650     0.5114050     0.3790120
  H       -3.5892060    -1.9233590     0.1747080
units angstrom
no_reorient  #important for SAPT in psi4, default
symmetry c1  #important for SAPT in psi4, default
}

set PROPERTIES_ORIGIN ["COM"]
properties('MP2/aug-cc-pvtz', properties = ['dipole'])
--------------------------------------------------------------------------

    Molecular point group: c1
  Charge       = 0
  Multiplicity = 1
  Basis Set: AUG-CC-PVTZ
    Blend: AUG-CC-PVTZ
  Basis Set: (AUG-CC-PVTZ AUX)
    Blend: AUG-CC-PVTZ-JKFIT

    Orbital Energies [Eh]
    ---------------------

    Doubly Occupied:

       1A    -20.534779     2A    -15.604816     3A    -11.365286
       4A    -11.302700     5A    -11.256235     6A    -11.246531
       7A    -11.244513     8A    -11.243581     9A    -11.243120
      10A    -11.242144    11A    -11.241023    12A    -11.234833
      13A     -1.391150    14A     -1.284968    15A     -1.142712
      16A     -1.102390    17A     -1.035583    18A     -1.009782
      19A     -0.953292    20A     -0.889787    21A     -0.843128
      22A     -0.811635    23A     -0.766504    24A     -0.735295
      25A     -0.687488    26A     -0.672570    27A     -0.648860
      28A     -0.626237    29A     -0.613938    30A     -0.605224
      31A     -0.598548    32A     -0.579224    33A     -0.567068
      34A     -0.544674    35A     -0.518250    36A     -0.509452
      37A     -0.497655    38A     -0.488026    39A     -0.475263
      40A     -0.442882    41A     -0.434272    42A     -0.336575
      43A     -0.300361

  @DF-RHF Final Energy:  -514.57879121938663

   => Energetics <=

    Nuclear Repulsion Energy =            675.1735076904008110
    One-Electron Energy =               -2037.7598852444900785
    Two-Electron Energy =                 848.0075863347026370
    Total Energy =                       -514.5787912193866305
  Basis Set: (AUG-CC-PVTZ AUX)
    Blend: AUG-CC-PVTZ-RI
    Molecular point group: c1

    Geometry (in Angstrom), charge = 0, multiplicity = 1:

       Center              X                  Y                   Z               Mass
    ------------   -----------------  -----------------  -----------------  -----------------
         O            2.983604939652    -1.506059177955     0.079258205551    15.994914619570
         N            0.814821939652    -1.072037177955    -0.417753794449    14.003074004430
         C            0.179078939652     1.993696822045    -0.235693794449    12.000000000000
         C            1.668844939652     1.688138822045    -0.347047794449    12.000000000000
         C           -0.784396060348     0.828443822045    -0.098692794449    12.000000000000
         C            2.131259939652     0.668331822045     0.700959205551    12.000000000000
         C           -0.385337760348    -0.581905077955    -0.192373194449    12.000000000000
         C            2.034099939652    -0.725394177955     0.139919205551    12.000000000000
         C           -2.127310060348     1.175427822045     0.128799205551    12.000000000000
         C           -1.508901060348    -1.496486177955    -0.081439794449    12.000000000000
         C           -3.148267060348     0.235298822045     0.218744205551    12.000000000000
         C           -2.831939060348    -1.119992177955     0.110749205551    12.000000000000
         H           -0.131119060348     2.593751822045    -1.101305794449     1.007825032230
         H            0.031082939652     2.638366822045     0.641093205551     1.007825032230
         H            1.913888939652     1.317853822045    -1.348239794449     1.007825032230
         H            2.219010939652     2.627427822045    -0.221531794449     1.007825032230
         H            1.520146939652     0.753676822045     1.609568205551     1.007825032230
         H            3.176529939652     0.808221822045     0.985156205551     1.007825032230
         H            0.829218939652    -2.036519177955    -0.742050794449     1.007825032230
         H           -2.372726060348     2.234284822045     0.204618205551     1.007825032230
         H           -1.249496060348    -2.552556177955    -0.137153794449     1.007825032230
         H           -4.174090060348     0.554698822045     0.382821205551     1.007825032230
         H           -3.606131060348    -1.880065177955     0.178517205551     1.007825032230

  Basis Set: AUG-CC-PVTZ
    Blend: AUG-CC-PVTZ
  Basis Set: (AUG-CC-PVTZ AUX)
    Blend: AUG-CC-PVTZ-JKFIT
	 Reference Energy          =    -514.5787912193866305 [Eh]
	 Singles Energy            =      -0.0000000000000000 [Eh]
	 Same-Spin Energy          =      -0.5593632604350849 [Eh]
	 Opposite-Spin Energy      =      -1.7450662253313893 [Eh]
	 Correlation Energy        =      -2.3044294857664740 [Eh]
	 Total Energy              =    -516.8832207051531213 [Eh]

	 ================> DF-SCS-MP2 Energies <==================
	-----------------------------------------------------------
	 SCS Same-Spin Scale       =       0.3333333333333333 [-]
	 SCS Opposite-Spin Scale   =       1.2000000000000000 [-]
	 SCS Same-Spin Energy      =      -0.1864544201450283 [Eh]
	 SCS Opposite-Spin Energy  =      -2.0940794703976673 [Eh]
	 SCS Correlation Energy    =      -2.2805338905426957 [Eh]
	 SCS Total Energy          =    -516.8593251099292729 [Eh]
	-----------------------------------------------------------

  Dipole Moment: [D]
     X:    -2.1153      Y:     1.9054      Z:    -0.0163     Total:     2.8470

*** Psi4 exiting successfully. Buy a developer a beer!
