                               Psi4 1.3.2 release

  ==> Input File <==

--------------------------------------------------------------------------
#psi4
#
memory 32 gb

molecule  {
0 1
  O        3.0005300    -1.5493530     0.0754490
  N        0.8317470    -1.1153310    -0.4215630
  C        0.1960040     1.9504030    -0.2395030
  C        1.6955896     1.6840113    -0.3157100
  C       -0.7674710     0.7851500    -0.1025020
  C        2.1481850     0.6250380     0.6971500
  C       -0.4596220    -0.5879500    -0.1790540
  C        2.0510250    -0.7686880     0.1361100
  C       -2.1103850     1.1321340     0.1249900
  C       -1.4919760    -1.5397800    -0.0852490
  C       -3.1313420     0.1920050     0.2149350
  C       -2.8150140    -1.1632860     0.1069400
  H       -0.1141940     2.5504580    -1.1051150
  H        0.0480080     2.5950730     0.6372840
  H        1.9308140     1.2745600    -1.3520490
  H        2.2359360     2.5841340    -0.2253410
  H        1.5370720     0.7103830     1.6057590
  H        3.1934550     0.7649280     0.9813470
  H        0.8461440    -2.0798130    -0.7458600
  H       -2.3558010     2.1909910     0.2008090
  H       -1.2325710    -2.5958500    -0.1409630
  H       -4.1571650     0.5114050     0.3790120
  H       -3.5892060    -1.9233590     0.1747080
units angstrom
no_reorient  #important for SAPT in psi4, default
symmetry c1  #important for SAPT in psi4, default
}

set PROPERTIES_ORIGIN ["COM"]
properties('MP2/aug-cc-pvtz', properties = ['dipole'])
--------------------------------------------------------------------------

    Molecular point group: c1
  Charge       = 0
  Multiplicity = 1
  Basis Set: AUG-CC-PVTZ
    Blend: AUG-CC-PVTZ
  Basis Set: (AUG-CC-PVTZ AUX)
    Blend: AUG-CC-PVTZ-JKFIT

    Orbital Energies [Eh]
    ---------------------

    Doubly Occupied:

       1A    -20.526243     2A    -15.596403     3A    -11.357862
       4A    -11.297514     5A    -11.256118     6A    -11.246676
       7A    -11.245404     8A    -11.244799     9A    -11.244603
      10A    -11.243048    11A    -11.242432    12A    -11.240087
      13A     -1.380450    14A     -1.253089    15A     -1.151748
      16A     -1.101552    17A     -1.038930    18A     -1.016398
      19A     -0.957603    20A     -0.881936    21A     -0.843097
      22A     -0.807794    23A     -0.766505    24A     -0.721064
      25A     -0.680542    26A     -0.671390    27A     -0.648942
      28A     -0.628640    29A     -0.612586    30A     -0.604476
      31A     -0.599936    32A     -0.580008    33A     -0.565350
      34A     -0.544500    35A     -0.517831    36A     -0.507815
      37A     -0.491974    38A     -0.489384    39A     -0.486704
      40A     -0.435362    41A     -0.427091    42A     -0.340748
      43A     -0.316177

  @DF-RHF Final Energy:  -514.59117696724513

   => Energetics <=

    Nuclear Repulsion Energy =            674.6308199206040399
    One-Electron Energy =               -2036.8223674797118292
    Two-Electron Energy =                 847.6003705918625428
    Total Energy =                       -514.5911769672451328
  Basis Set: (AUG-CC-PVTZ AUX)
    Blend: AUG-CC-PVTZ-RI
    Molecular point group: c1

    Geometry (in Angstrom), charge = 0, multiplicity = 1:

       Center              X                  Y                   Z               Mass
    ------------   -----------------  -----------------  -----------------  -----------------
         O            2.989668086905    -1.511751748514     0.075363935785    15.994914619570
         N            0.820885086905    -1.077729748514    -0.421648064215    14.003074004430
         C            0.185142086905     1.988004251486    -0.239588064215    12.000000000000
         C            1.684727686905     1.721612551486    -0.315795064215    12.000000000000
         C           -0.778332913095     0.822751251486    -0.102587064215    12.000000000000
         C            2.137323086905     0.662639251486     0.697064935785    12.000000000000
         C           -0.470483913095    -0.550348748514    -0.179139064215    12.000000000000
         C            2.040163086905    -0.731086748514     0.136024935785    12.000000000000
         C           -2.121246913095     1.169735251486     0.124904935785    12.000000000000
         C           -1.502837913095    -1.502178748514    -0.085334064215    12.000000000000
         C           -3.142203913095     0.229606251486     0.214849935785    12.000000000000
         C           -2.825875913095    -1.125684748514     0.106854935785    12.000000000000
         H           -0.125055913095     2.588059251486    -1.105200064215     1.007825032230
         H            0.037146086905     2.632674251486     0.637198935785     1.007825032230
         H            1.919952086905     1.312161251486    -1.352134064215     1.007825032230
         H            2.225074086905     2.621735251486    -0.225426064215     1.007825032230
         H            1.526210086905     0.747984251486     1.605673935785     1.007825032230
         H            3.182593086905     0.802529251486     0.981261935785     1.007825032230
         H            0.835282086905    -2.042211748514    -0.745945064215     1.007825032230
         H           -2.366662913095     2.228592251486     0.200723935785     1.007825032230
         H           -1.243432913095    -2.558248748514    -0.141048064215     1.007825032230
         H           -4.168026913095     0.549006251486     0.378926935785     1.007825032230
         H           -3.600067913095    -1.885757748514     0.174622935785     1.007825032230

  Basis Set: AUG-CC-PVTZ
    Blend: AUG-CC-PVTZ
  Basis Set: (AUG-CC-PVTZ AUX)
    Blend: AUG-CC-PVTZ-JKFIT
	 Reference Energy          =    -514.5911769672451328 [Eh]
	 Singles Energy            =      -0.0000000000000000 [Eh]
	 Same-Spin Energy          =      -0.5578817359867232 [Eh]
	 Opposite-Spin Energy      =      -1.7432008607869227 [Eh]
	 Correlation Energy        =      -2.3010825967736457 [Eh]
	 Total Energy              =    -516.8922595640187865 [Eh]

	 ================> DF-SCS-MP2 Energies <==================
	-----------------------------------------------------------
	 SCS Same-Spin Scale       =       0.3333333333333333 [-]
	 SCS Opposite-Spin Scale   =       1.2000000000000000 [-]
	 SCS Same-Spin Energy      =      -0.1859605786622411 [Eh]
	 SCS Opposite-Spin Energy  =      -2.0918410329443073 [Eh]
	 SCS Correlation Energy    =      -2.2778016116065483 [Eh]
	 SCS Total Energy          =    -516.8689785788516247 [Eh]
	-----------------------------------------------------------

  Dipole Moment: [D]
     X:    -2.7519      Y:     2.0632      Z:     0.0503     Total:     3.4398

*** Psi4 exiting successfully. Buy a developer a beer!
