                               Psi4 1.3.2 release

  ==> Input File <==

--------------------------------------------------------------------------
#psi4
#
memory 32 gb

molecule  {
0 1
  O        3.0005300    -1.5493530     0.0754490
  N        0.8317470    -1.1153310    -0.4215630
  C        0.1960040     1.9504030    -0.2395030
  C        1.6857700     1.6448450    -0.3508570
  C       -0.7956971     0.6912180    -0.1046996
  C        2.1481850     0.6250380     0.6971500
  C       -0.4596220    -0.5879500    -0.1790540
  C        2.0510250    -0.7686880     0.1361100
  C       -2.1103850     1.1321340     0.1249900
  C       -1.4919760    -1.5397800    -0.0852490
  C       -3.1313420     0.1920050     0.2149350
  C       -2.8150140    -1.1632860     0.1069400
  H       -0.1141940     2.5504580    -1.1051150
  H        0.0480080     2.5950730     0.6372840
  H        1.9308140     1.2745600    -1.3520490
  H        2.2359360     2.5841340    -0.2253410
  H        1.5370720     0.7103830     1.6057590
  H        3.1934550     0.7649280     0.9813470
  H        0.8461440    -2.0798130    -0.7458600
  H       -2.3558010     2.1909910     0.2008090
  H       -1.2325710    -2.5958500    -0.1409630
  H       -4.1571650     0.5114050     0.3790120
  H       -3.5892060    -1.9233590     0.1747080
units angstrom
no_reorient  #important for SAPT in psi4, default
symmetry c1  #important for SAPT in psi4, default
}

set PROPERTIES_ORIGIN ["COM"]
properties('MP2/aug-cc-pvtz', properties = ['dipole'])
--------------------------------------------------------------------------

    Molecular point group: c1
  Charge       = 0
  Multiplicity = 1
  Basis Set: AUG-CC-PVTZ
    Blend: AUG-CC-PVTZ
  Basis Set: (AUG-CC-PVTZ AUX)
    Blend: AUG-CC-PVTZ-JKFIT

    Orbital Energies [Eh]
    ---------------------

    Doubly Occupied:

       1A    -20.525136     2A    -15.595869     3A    -11.356560
       4A    -11.287090     5A    -11.248846     6A    -11.247710
       7A    -11.246493     8A    -11.245980     9A    -11.245221
      10A    -11.241618    11A    -11.240676    12A    -11.239929
      13A     -1.379663    14A     -1.255395    15A     -1.156751
      16A     -1.095472    17A     -1.038403    18A     -1.018895
      19A     -0.958666    20A     -0.873569    21A     -0.851119
      22A     -0.808911    23A     -0.764064    24A     -0.724886
      25A     -0.680472    26A     -0.670124    27A     -0.642468
      28A     -0.634486    29A     -0.611398    30A     -0.603383
      31A     -0.598513    32A     -0.575845    33A     -0.563868
      34A     -0.542193    35A     -0.522888    36A     -0.509535
      37A     -0.500248    38A     -0.492204    39A     -0.463916
      40A     -0.435298    41A     -0.425450    42A     -0.341884
      43A     -0.324900

  @DF-RHF Final Energy:  -514.58506807211018

   => Energetics <=

    Nuclear Repulsion Energy =            675.8349711092440657
    One-Electron Energy =               -2039.2680886462528633
    Two-Electron Energy =                 848.8480494648987360
    Total Energy =                       -514.5850680721101753
  Basis Set: (AUG-CC-PVTZ AUX)
    Blend: AUG-CC-PVTZ-RI
    Molecular point group: c1

    Geometry (in Angstrom), charge = 0, multiplicity = 1:

       Center              X                  Y                   Z               Mass
    ------------   -----------------  -----------------  -----------------  -----------------
         O            2.992502311401    -1.501836555412     0.078145931651    15.994914619570
         N            0.823719311401    -1.067814555412    -0.418866068349    14.003074004430
         C            0.187976311401     1.997919444588    -0.236806068349    12.000000000000
         C            1.677742311401     1.692361444588    -0.348160068349    12.000000000000
         C           -0.803724788599     0.738734444588    -0.102002668349    12.000000000000
         C            2.140157311401     0.672554444588     0.699846931651    12.000000000000
         C           -0.467649688599    -0.540433555412    -0.176357068349    12.000000000000
         C            2.042997311401    -0.721171555412     0.138806931651    12.000000000000
         C           -2.118412688599     1.179650444588     0.127686931651    12.000000000000
         C           -1.500003688599    -1.492263555412    -0.082552068349    12.000000000000
         C           -3.139369688599     0.239521444588     0.217631931651    12.000000000000
         C           -2.823041688599    -1.115769555412     0.109636931651    12.000000000000
         H           -0.122221688599     2.597974444588    -1.102418068349     1.007825032230
         H            0.039980311401     2.642589444588     0.639980931651     1.007825032230
         H            1.922786311401     1.322076444588    -1.349352068349     1.007825032230
         H            2.227908311401     2.631650444588    -0.222644068349     1.007825032230
         H            1.529044311401     0.757899444588     1.608455931651     1.007825032230
         H            3.185427311401     0.812444444588     0.984043931651     1.007825032230
         H            0.838116311401    -2.032296555412    -0.743163068349     1.007825032230
         H           -2.363828688599     2.238507444588     0.203505931651     1.007825032230
         H           -1.240598688599    -2.548333555412    -0.138266068349     1.007825032230
         H           -4.165192688599     0.558921444588     0.381708931651     1.007825032230
         H           -3.597233688599    -1.875842555412     0.177404931651     1.007825032230

  Basis Set: AUG-CC-PVTZ
    Blend: AUG-CC-PVTZ
  Basis Set: (AUG-CC-PVTZ AUX)
    Blend: AUG-CC-PVTZ-JKFIT
	 Reference Energy          =    -514.5850680721101753 [Eh]
	 Singles Energy            =      -0.0000000000000000 [Eh]
	 Same-Spin Energy          =      -0.5570745474010859 [Eh]
	 Opposite-Spin Energy      =      -1.7423762334970752 [Eh]
	 Correlation Energy        =      -2.2994507808981610 [Eh]
	 Total Energy              =    -516.8845188530083306 [Eh]

	 ================> DF-SCS-MP2 Energies <==================
	-----------------------------------------------------------
	 SCS Same-Spin Scale       =       0.3333333333333333 [-]
	 SCS Opposite-Spin Scale   =       1.2000000000000000 [-]
	 SCS Same-Spin Energy      =      -0.1856915158003619 [Eh]
	 SCS Opposite-Spin Energy  =      -2.0908514801964899 [Eh]
	 SCS Correlation Energy    =      -2.2765429959968517 [Eh]
	 SCS Total Energy          =    -516.8616110681069813 [Eh]
	-----------------------------------------------------------

  Dipole Moment: [D]
     X:    -2.8727      Y:     2.0297      Z:     0.0576     Total:     3.5179

*** Psi4 exiting successfully. Buy a developer a beer!
