                               Psi4 1.3.2 release

  ==> Input File <==

--------------------------------------------------------------------------
#psi4
#
memory 32 gb

molecule  {
0 1
  O        3.0005300    -1.5493530     0.0754490
  N        0.8317470    -1.1153310    -0.4215630
  C        0.1960040     1.9504030    -0.2395030
  C        1.6857700     1.6448450    -0.3508570
  C       -0.7674710     0.7851500    -0.1025020
  C        2.1481850     0.6250380     0.6971500
  C       -0.4689510    -0.6037704    -0.1955857
  C        2.0510250    -0.7686880     0.1361100
  C       -2.1103850     1.1321340     0.1249900
  C       -1.4919760    -1.5397800    -0.0852490
  C       -3.1313420     0.1920050     0.2149350
  C       -2.8150140    -1.1632860     0.1069400
  H       -0.1141940     2.5504580    -1.1051150
  H        0.0480080     2.5950730     0.6372840
  H        1.9308140     1.2745600    -1.3520490
  H        2.2359360     2.5841340    -0.2253410
  H        1.5370720     0.7103830     1.6057590
  H        3.1934550     0.7649280     0.9813470
  H        0.8461440    -2.0798130    -0.7458600
  H       -2.3558010     2.1909910     0.2008090
  H       -1.2325710    -2.5958500    -0.1409630
  H       -4.1571650     0.5114050     0.3790120
  H       -3.5892060    -1.9233590     0.1747080
units angstrom
no_reorient  #important for SAPT in psi4, default
symmetry c1  #important for SAPT in psi4, default
}

set PROPERTIES_ORIGIN ["COM"]
properties('MP2/aug-cc-pvtz', properties = ['dipole'])
--------------------------------------------------------------------------

    Molecular point group: c1
  Charge       = 0
  Multiplicity = 1
  Basis Set: AUG-CC-PVTZ
    Blend: AUG-CC-PVTZ
  Basis Set: (AUG-CC-PVTZ AUX)
    Blend: AUG-CC-PVTZ-JKFIT

    Orbital Energies [Eh]
    ---------------------

    Doubly Occupied:

       1A    -20.525775     2A    -15.595853     3A    -11.357520
       4A    -11.297293     5A    -11.256693     6A    -11.246402
       7A    -11.245303     8A    -11.244752     9A    -11.242914
      10A    -11.242851    11A    -11.242183    12A    -11.239796
      13A     -1.380136    14A     -1.252924    15A     -1.151380
      16A     -1.102130    17A     -1.038118    18A     -1.018123
      19A     -0.956589    20A     -0.881158    21A     -0.841459
      22A     -0.808721    23A     -0.766881    24A     -0.721499
      25A     -0.681611    26A     -0.670061    27A     -0.646186
      28A     -0.629000    29A     -0.611583    30A     -0.603968
      31A     -0.601277    32A     -0.578013    33A     -0.564547
      34A     -0.542209    35A     -0.516803    36A     -0.510863
      37A     -0.498318    38A     -0.491993    39A     -0.483446
      40A     -0.435262    41A     -0.426183    42A     -0.340969
      43A     -0.315489

  @DF-RHF Final Energy:  -514.59389805994192

   => Energetics <=

    Nuclear Repulsion Energy =            674.9319541276665859
    One-Electron Energy =               -2037.4432255551587332
    Two-Electron Energy =                 847.9173733675502262
    Total Energy =                       -514.5938980599419210
  Basis Set: (AUG-CC-PVTZ AUX)
    Blend: AUG-CC-PVTZ-RI
    Molecular point group: c1

    Geometry (in Angstrom), charge = 0, multiplicity = 1:

       Center              X                  Y                   Z               Mass
    ------------   -----------------  -----------------  -----------------  -----------------
         O            2.991094566933    -1.507655499737     0.079213754226    15.994914619570
         N            0.822311566933    -1.073633499737    -0.417798245774    14.003074004430
         C            0.186568566933     1.992100500263    -0.235738245774    12.000000000000
         C            1.676334566933     1.686542500263    -0.347092245774    12.000000000000
         C           -0.776906433067     0.826847500263    -0.098737245774    12.000000000000
         C            2.138749566933     0.666735500263     0.700914754226    12.000000000000
         C           -0.478386433067    -0.562072899737    -0.191820945774    12.000000000000
         C            2.041589566933    -0.726990499737     0.139874754226    12.000000000000
         C           -2.119820433067     1.173831500263     0.128754754226    12.000000000000
         C           -1.501411433067    -1.498082499737    -0.081484245774    12.000000000000
         C           -3.140777433067     0.233702500263     0.218699754226    12.000000000000
         C           -2.824449433067    -1.121588499737     0.110704754226    12.000000000000
         H           -0.123629433067     2.592155500263    -1.101350245774     1.007825032230
         H            0.038572566933     2.636770500263     0.641048754226     1.007825032230
         H            1.921378566933     1.316257500263    -1.348284245774     1.007825032230
         H            2.226500566933     2.625831500263    -0.221576245774     1.007825032230
         H            1.527636566933     0.752080500263     1.609523754226     1.007825032230
         H            3.184019566933     0.806625500263     0.985111754226     1.007825032230
         H            0.836708566933    -2.038115499737    -0.742095245774     1.007825032230
         H           -2.365236433067     2.232688500263     0.204573754226     1.007825032230
         H           -1.242006433067    -2.554152499737    -0.137198245774     1.007825032230
         H           -4.166600433067     0.553102500263     0.382776754226     1.007825032230
         H           -3.598641433067    -1.881661499737     0.178472754226     1.007825032230

  Basis Set: AUG-CC-PVTZ
    Blend: AUG-CC-PVTZ
  Basis Set: (AUG-CC-PVTZ AUX)
    Blend: AUG-CC-PVTZ-JKFIT
	 Reference Energy          =    -514.5938980599419210 [Eh]
	 Singles Energy            =      -0.0000000000000000 [Eh]
	 Same-Spin Energy          =      -0.5579223213376284 [Eh]
	 Opposite-Spin Energy      =      -1.7430849511351281 [Eh]
	 Correlation Energy        =      -2.3010072724727566 [Eh]
	 Total Energy              =    -516.8949053324146234 [Eh]

	 ================> DF-SCS-MP2 Energies <==================
	-----------------------------------------------------------
	 SCS Same-Spin Scale       =       0.3333333333333333 [-]
	 SCS Opposite-Spin Scale   =       1.2000000000000000 [-]
	 SCS Same-Spin Energy      =      -0.1859741071125428 [Eh]
	 SCS Opposite-Spin Energy  =      -2.0917019413621536 [Eh]
	 SCS Correlation Energy    =      -2.2776760484746963 [Eh]
	 SCS Total Energy          =    -516.8715741084166666 [Eh]
	-----------------------------------------------------------

  Dipole Moment: [D]
     X:    -2.7407      Y:     2.0664      Z:     0.0364     Total:     3.4326

*** Psi4 exiting successfully. Buy a developer a beer!
