                               Psi4 1.3.2 release

  ==> Input File <==

--------------------------------------------------------------------------
#psi4
#
memory 32 gb

molecule  {
0 1
  O        3.0005300    -1.5493530     0.0754490
  N        0.8317470    -1.1153310    -0.4215630
  C        0.1960040     1.9504030    -0.2395030
  C        1.7168703     1.7584273    -0.2417584
  C       -0.7674710     0.7851500    -0.1025020
  C        2.1481850     0.6250380     0.6971500
  C       -0.4596220    -0.5879500    -0.1790540
  C        2.0510250    -0.7686880     0.1361100
  C       -2.1103850     1.1321340     0.1249900
  C       -1.4919760    -1.5397800    -0.0852490
  C       -3.1313420     0.1920050     0.2149350
  C       -2.8150140    -1.1632860     0.1069400
  H       -0.1141940     2.5504580    -1.1051150
  H        0.0480080     2.5950730     0.6372840
  H        1.9308140     1.2745600    -1.3520490
  H        2.2359360     2.5841340    -0.2253410
  H        1.5370720     0.7103830     1.6057590
  H        3.1934550     0.7649280     0.9813470
  H        0.8461440    -2.0798130    -0.7458600
  H       -2.3558010     2.1909910     0.2008090
  H       -1.2325710    -2.5958500    -0.1409630
  H       -4.1571650     0.5114050     0.3790120
  H       -3.5892060    -1.9233590     0.1747080
units angstrom
no_reorient  #important for SAPT in psi4, default
symmetry c1  #important for SAPT in psi4, default
}

set PROPERTIES_ORIGIN ["COM"]
properties('MP2/aug-cc-pvtz', properties = ['dipole'])
--------------------------------------------------------------------------

    Molecular point group: c1
  Charge       = 0
  Multiplicity = 1
  Basis Set: AUG-CC-PVTZ
    Blend: AUG-CC-PVTZ
  Basis Set: (AUG-CC-PVTZ AUX)
    Blend: AUG-CC-PVTZ-JKFIT

    Orbital Energies [Eh]
    ---------------------

    Doubly Occupied:

       1A    -20.527707     2A    -15.597172     3A    -11.360035
       4A    -11.298119     5A    -11.258133     6A    -11.247249
       7A    -11.246310     8A    -11.246105     9A    -11.245517
      10A    -11.245070    11A    -11.244264    12A    -11.240695
      13A     -1.381485    14A     -1.253526    15A     -1.152382
      16A     -1.101351    17A     -1.039539    18A     -1.017128
      19A     -0.958572    20A     -0.886760    21A     -0.843835
      22A     -0.809463    23A     -0.768235    24A     -0.720335
      25A     -0.681515    26A     -0.671764    27A     -0.653868
      28A     -0.627870    29A     -0.617631    30A     -0.607549
      31A     -0.596692    32A     -0.582608    33A     -0.568719
      34A     -0.548080    35A     -0.519169    36A     -0.506699
      37A     -0.498531    38A     -0.486253    39A     -0.463813
      40A     -0.435475    41A     -0.426852    42A     -0.341231
      43A     -0.316632

  @DF-RHF Final Energy:  -514.56550331980600

   => Energetics <=

    Nuclear Repulsion Energy =            673.7557404686109521
    One-Electron Energy =               -2034.9626098580756661
    Two-Electron Energy =                 846.6413660696588295
    Total Energy =                       -514.5655033198059982
  Basis Set: (AUG-CC-PVTZ AUX)
    Blend: AUG-CC-PVTZ-RI
    Molecular point group: c1

    Geometry (in Angstrom), charge = 0, multiplicity = 1:

       Center              X                  Y                   Z               Mass
    ------------   -----------------  -----------------  -----------------  -----------------
         O            2.988082775524    -1.517295388139     0.069854891762    15.994914619570
         N            0.819299775524    -1.083273388139    -0.427157108238    14.003074004430
         C            0.183556775524     1.982460611861    -0.245097108238    12.000000000000
         C            1.704423075524     1.790484911861    -0.247352508238    12.000000000000
         C           -0.779918224476     0.817207611861    -0.108096108238    12.000000000000
         C            2.135737775524     0.657095611861     0.691555891762    12.000000000000
         C           -0.472069224476    -0.555892388139    -0.184648108238    12.000000000000
         C            2.038577775524    -0.736630388139     0.130515891762    12.000000000000
         C           -2.122832224476     1.164191611861     0.119395891762    12.000000000000
         C           -1.504423224476    -1.507722388139    -0.090843108238    12.000000000000
         C           -3.143789224476     0.224062611861     0.209340891762    12.000000000000
         C           -2.827461224476    -1.131228388139     0.101345891762    12.000000000000
         H           -0.126641224476     2.582515611861    -1.110709108238     1.007825032230
         H            0.035560775524     2.627130611861     0.631689891762     1.007825032230
         H            1.918366775524     1.306617611861    -1.357643108238     1.007825032230
         H            2.223488775524     2.616191611861    -0.230935108238     1.007825032230
         H            1.524624775524     0.742440611861     1.600164891762     1.007825032230
         H            3.181007775524     0.796985611861     0.975752891762     1.007825032230
         H            0.833696775524    -2.047755388139    -0.751454108238     1.007825032230
         H           -2.368248224476     2.223048611861     0.195214891762     1.007825032230
         H           -1.245018224476    -2.563792388139    -0.146557108238     1.007825032230
         H           -4.169612224476     0.543462611861     0.373417891762     1.007825032230
         H           -3.601653224476    -1.891301388139     0.169113891762     1.007825032230

  Basis Set: AUG-CC-PVTZ
    Blend: AUG-CC-PVTZ
  Basis Set: (AUG-CC-PVTZ AUX)
    Blend: AUG-CC-PVTZ-JKFIT
	 Reference Energy          =    -514.5655033198059982 [Eh]
	 Singles Energy            =      -0.0000000000000000 [Eh]
	 Same-Spin Energy          =      -0.5582260056817945 [Eh]
	 Opposite-Spin Energy      =      -1.7444876190174465 [Eh]
	 Correlation Energy        =      -2.3027136246992410 [Eh]
	 Total Energy              =    -516.8682169445052068 [Eh]

	 ================> DF-SCS-MP2 Energies <==================
	-----------------------------------------------------------
	 SCS Same-Spin Scale       =       0.3333333333333333 [-]
	 SCS Opposite-Spin Scale   =       1.2000000000000000 [-]
	 SCS Same-Spin Energy      =      -0.1860753352272648 [Eh]
	 SCS Opposite-Spin Energy  =      -2.0933851428209356 [Eh]
	 SCS Correlation Energy    =      -2.2794604780482004 [Eh]
	 SCS Total Energy          =    -516.8449637978542341 [Eh]
	-----------------------------------------------------------

  Dipole Moment: [D]
     X:    -2.7964      Y:     2.0439      Z:     0.1046     Total:     3.4653

*** Psi4 exiting successfully. Buy a developer a beer!
