                               Psi4 1.3.2 release

  ==> Input File <==

--------------------------------------------------------------------------
#psi4
#
memory 32 gb

molecule  {
0 1
  O        3.0005300    -1.5493530     0.0754490
  N        0.8317470    -1.1153310    -0.4215630
  C        0.1960040     1.9504030    -0.2395030
  C        1.6857700     1.6448450    -0.3508570
  C       -0.7674710     0.7851500    -0.1025020
  C        2.1481850     0.6250380     0.6971500
  C       -0.5508313    -0.5507011    -0.1619256
  C        2.0510250    -0.7686880     0.1361100
  C       -2.1103850     1.1321340     0.1249900
  C       -1.4919760    -1.5397800    -0.0852490
  C       -3.1313420     0.1920050     0.2149350
  C       -2.8150140    -1.1632860     0.1069400
  H       -0.1141940     2.5504580    -1.1051150
  H        0.0480080     2.5950730     0.6372840
  H        1.9308140     1.2745600    -1.3520490
  H        2.2359360     2.5841340    -0.2253410
  H        1.5370720     0.7103830     1.6057590
  H        3.1934550     0.7649280     0.9813470
  H        0.8461440    -2.0798130    -0.7458600
  H       -2.3558010     2.1909910     0.2008090
  H       -1.2325710    -2.5958500    -0.1409630
  H       -4.1571650     0.5114050     0.3790120
  H       -3.5892060    -1.9233590     0.1747080
units angstrom
no_reorient  #important for SAPT in psi4, default
symmetry c1  #important for SAPT in psi4, default
}

set PROPERTIES_ORIGIN ["COM"]
properties('MP2/aug-cc-pvtz', properties = ['dipole'])
--------------------------------------------------------------------------

    Molecular point group: c1
  Charge       = 0
  Multiplicity = 1
  Basis Set: AUG-CC-PVTZ
    Blend: AUG-CC-PVTZ
  Basis Set: (AUG-CC-PVTZ AUX)
    Blend: AUG-CC-PVTZ-JKFIT

    Orbital Energies [Eh]
    ---------------------

    Doubly Occupied:

       1A    -20.517802     2A    -15.586904     3A    -11.349380
       4A    -11.294334     5A    -11.253683     6A    -11.249356
       7A    -11.248926     8A    -11.248271     9A    -11.245038
      10A    -11.243369    11A    -11.241362    12A    -11.239392
      13A     -1.371325    14A     -1.231876    15A     -1.158511
      16A     -1.102058    17A     -1.043195    18A     -1.022072
      19A     -0.960813    20A     -0.875308    21A     -0.847696
      22A     -0.805275    23A     -0.762693    24A     -0.713865
      25A     -0.677761    26A     -0.664512    27A     -0.645589
      28A     -0.634338    29A     -0.609250    30A     -0.605329
      31A     -0.598071    32A     -0.575749    33A     -0.562377
      34A     -0.541373    35A     -0.518327    36A     -0.511322
      37A     -0.500874    38A     -0.494985    39A     -0.483111
      40A     -0.425175    41A     -0.417963    42A     -0.344879
      43A     -0.329259

  @DF-RHF Final Energy:  -514.58454581021545

   => Energetics <=

    Nuclear Repulsion Energy =            675.1450869364741720
    One-Electron Energy =               -2037.9537688645207254
    Two-Electron Energy =                 848.2241361178311081
    Total Energy =                       -514.5845458102154453
  Basis Set: (AUG-CC-PVTZ AUX)
    Blend: AUG-CC-PVTZ-RI
    Molecular point group: c1

    Geometry (in Angstrom), charge = 0, multiplicity = 1:

       Center              X                  Y                   Z               Mass
    ------------   -----------------  -----------------  -----------------  -----------------
         O            2.997194261562    -1.511608911293     0.076706236164    15.994914619570
         N            0.828411261562    -1.077586911293    -0.420305763836    14.003074004430
         C            0.192668261562     1.988147088707    -0.238245763836    12.000000000000
         C            1.682434261562     1.682589088707    -0.349599763836    12.000000000000
         C           -0.770806738438     0.822894088707    -0.101244763836    12.000000000000
         C            2.144849261562     0.662782088707     0.698407236164    12.000000000000
         C           -0.554167038438    -0.512957011293    -0.160668363836    12.000000000000
         C            2.047689261562    -0.730943911293     0.137367236164    12.000000000000
         C           -2.113720738438     1.169878088707     0.126247236164    12.000000000000
         C           -1.495311738438    -1.502035911293    -0.083991763836    12.000000000000
         C           -3.134677738438     0.229749088707     0.216192236164    12.000000000000
         C           -2.818349738438    -1.125541911293     0.108197236164    12.000000000000
         H           -0.117529738438     2.588202088707    -1.103857763836     1.007825032230
         H            0.044672261562     2.632817088707     0.638541236164     1.007825032230
         H            1.927478261562     1.312304088707    -1.350791763836     1.007825032230
         H            2.232600261562     2.621878088707    -0.224083763836     1.007825032230
         H            1.533736261562     0.748127088707     1.607016236164     1.007825032230
         H            3.190119261562     0.802672088707     0.982604236164     1.007825032230
         H            0.842808261562    -2.042068911293    -0.744602763836     1.007825032230
         H           -2.359136738438     2.228735088707     0.202066236164     1.007825032230
         H           -1.235906738438    -2.558105911293    -0.139705763836     1.007825032230
         H           -4.160500738438     0.549149088707     0.380269236164     1.007825032230
         H           -3.592541738438    -1.885614911293     0.175965236164     1.007825032230

  Basis Set: AUG-CC-PVTZ
    Blend: AUG-CC-PVTZ
  Basis Set: (AUG-CC-PVTZ AUX)
    Blend: AUG-CC-PVTZ-JKFIT
	 Reference Energy          =    -514.5845458102154453 [Eh]
	 Singles Energy            =      -0.0000000000000000 [Eh]
	 Same-Spin Energy          =      -0.5573797903306543 [Eh]
	 Opposite-Spin Energy      =      -1.7427350465349400 [Eh]
	 Correlation Energy        =      -2.3001148368655944 [Eh]
	 Total Energy              =    -516.8846606470810912 [Eh]

	 ================> DF-SCS-MP2 Energies <==================
	-----------------------------------------------------------
	 SCS Same-Spin Scale       =       0.3333333333333333 [-]
	 SCS Opposite-Spin Scale   =       1.2000000000000000 [-]
	 SCS Same-Spin Energy      =      -0.1857932634435514 [Eh]
	 SCS Opposite-Spin Energy  =      -2.0912820558419281 [Eh]
	 SCS Correlation Energy    =      -2.2770753192854793 [Eh]
	 SCS Total Energy          =    -516.8616211295009180 [Eh]
	-----------------------------------------------------------

  Dipole Moment: [D]
     X:    -3.2958      Y:     2.2107      Z:     0.0786     Total:     3.9693

*** Psi4 exiting successfully. Buy a developer a beer!
