                               Psi4 1.3.2 release

  ==> Input File <==

--------------------------------------------------------------------------
#psi4
#
memory 32 gb

molecule  {
0 1
  O        3.0005300    -1.5493530     0.0754490
  N        0.8808023    -0.9755090    -0.4191287
  C        0.1960040     1.9504030    -0.2395030
  C        1.6857700     1.6448450    -0.3508570
  C       -0.7674710     0.7851500    -0.1025020
  C        2.1481850     0.6250380     0.6971500
  C       -0.4596220    -0.5879500    -0.1790540
  C        2.0510250    -0.7686880     0.1361100
  C       -2.1103850     1.1321340     0.1249900
  C       -1.4919760    -1.5397800    -0.0852490
  C       -3.1313420     0.1920050     0.2149350
  C       -2.8150140    -1.1632860     0.1069400
  H       -0.1141940     2.5504580    -1.1051150
  H        0.0480080     2.5950730     0.6372840
  H        1.9308140     1.2745600    -1.3520490
  H        2.2359360     2.5841340    -0.2253410
  H        1.5370720     0.7103830     1.6057590
  H        3.1934550     0.7649280     0.9813470
  H        0.8461440    -2.0798130    -0.7458600
  H       -2.3558010     2.1909910     0.2008090
  H       -1.2325710    -2.5958500    -0.1409630
  H       -4.1571650     0.5114050     0.3790120
  H       -3.5892060    -1.9233590     0.1747080
units angstrom
no_reorient  #important for SAPT in psi4, default
symmetry c1  #important for SAPT in psi4, default
}

set PROPERTIES_ORIGIN ["COM"]
properties('MP2/aug-cc-pvtz', properties = ['dipole'])
--------------------------------------------------------------------------

    Molecular point group: c1
  Charge       = 0
  Multiplicity = 1
  Basis Set: AUG-CC-PVTZ
    Blend: AUG-CC-PVTZ
  Basis Set: (AUG-CC-PVTZ AUX)
    Blend: AUG-CC-PVTZ-JKFIT

    Orbital Energies [Eh]
    ---------------------

    Doubly Occupied:

       1A    -20.518744     2A    -15.608020     3A    -11.347942
       4A    -11.302852     5A    -11.256481     6A    -11.252481
       7A    -11.250172     8A    -11.246538     9A    -11.245220
      10A    -11.244014    11A    -11.239527    12A    -11.235091
      13A     -1.380091    14A     -1.261736    15A     -1.157222
      16A     -1.099140    17A     -1.042701    18A     -1.023281
      19A     -0.953057    20A     -0.887848    21A     -0.847791
      22A     -0.810313    23A     -0.762501    24A     -0.714163
      25A     -0.677740    26A     -0.672050    27A     -0.645182
      28A     -0.631118    29A     -0.611978    30A     -0.606420
      31A     -0.599431    32A     -0.576446    33A     -0.551499
      34A     -0.541921    35A     -0.517073    36A     -0.512417
      37A     -0.497617    38A     -0.488382    39A     -0.481371
      40A     -0.436058    41A     -0.421204    42A     -0.343889
      43A     -0.322053

  @DF-RHF Final Energy:  -514.56673479618803

   => Energetics <=

    Nuclear Repulsion Energy =            676.9669205452878487
    One-Electron Energy =               -2041.4257573094043892
    Two-Electron Energy =                 849.8921019679285109
    Total Energy =                       -514.5667347961880296
  Basis Set: (AUG-CC-PVTZ AUX)
    Blend: AUG-CC-PVTZ-RI
    Molecular point group: c1

    Geometry (in Angstrom), charge = 0, multiplicity = 1:

       Center              X                  Y                   Z               Mass
    ------------   -----------------  -----------------  -----------------  -----------------
         O            2.986135212317    -1.520988802613     0.077770606609    15.994914619570
         N            0.866407512317    -0.947144802613    -0.416807093391    14.003074004430
         C            0.181609212317     1.978767197387    -0.237181393391    12.000000000000
         C            1.671375212317     1.673209197387    -0.348535393391    12.000000000000
         C           -0.781865787683     0.813514197387    -0.100180393391    12.000000000000
         C            2.133790212317     0.653402197387     0.699471606609    12.000000000000
         C           -0.474016787683    -0.559585802613    -0.176732393391    12.000000000000
         C            2.036630212317    -0.740323802613     0.138431606609    12.000000000000
         C           -2.124779787683     1.160498197387     0.127311606609    12.000000000000
         C           -1.506370787683    -1.511415802613    -0.082927393391    12.000000000000
         C           -3.145736787683     0.220369197387     0.217256606609    12.000000000000
         C           -2.829408787683    -1.134921802613     0.109261606609    12.000000000000
         H           -0.128588787683     2.578822197387    -1.102793393391     1.007825032230
         H            0.033613212317     2.623437197387     0.639605606609     1.007825032230
         H            1.916419212317     1.302924197387    -1.349727393391     1.007825032230
         H            2.221541212317     2.612498197387    -0.223019393391     1.007825032230
         H            1.522677212317     0.738747197387     1.608080606609     1.007825032230
         H            3.179060212317     0.793292197387     0.983668606609     1.007825032230
         H            0.831749212317    -2.051448802613    -0.743538393391     1.007825032230
         H           -2.370195787683     2.219355197387     0.203130606609     1.007825032230
         H           -1.246965787683    -2.567485802613    -0.138641393391     1.007825032230
         H           -4.171559787683     0.539769197387     0.381333606609     1.007825032230
         H           -3.603600787683    -1.894994802613     0.177029606609     1.007825032230

  Basis Set: AUG-CC-PVTZ
    Blend: AUG-CC-PVTZ
  Basis Set: (AUG-CC-PVTZ AUX)
    Blend: AUG-CC-PVTZ-JKFIT
	 Reference Energy          =    -514.5667347961880296 [Eh]
	 Singles Energy            =      -0.0000000000000000 [Eh]
	 Same-Spin Energy          =      -0.5599135998725568 [Eh]
	 Opposite-Spin Energy      =      -1.7467764622063253 [Eh]
	 Correlation Energy        =      -2.3066900620788822 [Eh]
	 Total Energy              =    -516.8734248582669579 [Eh]

	 ================> DF-SCS-MP2 Energies <==================
	-----------------------------------------------------------
	 SCS Same-Spin Scale       =       0.3333333333333333 [-]
	 SCS Opposite-Spin Scale   =       1.2000000000000000 [-]
	 SCS Same-Spin Energy      =      -0.1866378666241856 [Eh]
	 SCS Opposite-Spin Energy  =      -2.0961317546475904 [Eh]
	 SCS Correlation Energy    =      -2.2827696212717759 [Eh]
	 SCS Total Energy          =    -516.8495044174597979 [Eh]
	-----------------------------------------------------------

  Dipole Moment: [D]
     X:    -3.2812      Y:     1.9990      Z:     0.0094     Total:     3.8422

*** Psi4 exiting successfully. Buy a developer a beer!
