                               Psi4 1.3.2 release

  ==> Input File <==

--------------------------------------------------------------------------
#psi4
#
memory 32 gb

molecule  {
0 1
  O        3.0005300    -1.5493530     0.0754490
  N        0.8317470    -1.1153310    -0.4215630
  C        0.1960040     1.9504030    -0.2395030
  C        1.6857700     1.6448450    -0.3508570
  C       -0.7674710     0.7851500    -0.1025020
  C        2.1481850     0.6250380     0.6971500
  C       -0.4596220    -0.5879500    -0.1790540
  C        2.1539159    -0.7793518     0.1546240
  C       -2.1103850     1.1321340     0.1249900
  C       -1.4919760    -1.5397800    -0.0852490
  C       -3.1313420     0.1920050     0.2149350
  C       -2.8150140    -1.1632860     0.1069400
  H       -0.1141940     2.5504580    -1.1051150
  H        0.0480080     2.5950730     0.6372840
  H        1.9308140     1.2745600    -1.3520490
  H        2.2359360     2.5841340    -0.2253410
  H        1.5370720     0.7103830     1.6057590
  H        3.1934550     0.7649280     0.9813470
  H        0.8461440    -2.0798130    -0.7458600
  H       -2.3558010     2.1909910     0.2008090
  H       -1.2325710    -2.5958500    -0.1409630
  H       -4.1571650     0.5114050     0.3790120
  H       -3.5892060    -1.9233590     0.1747080
units angstrom
no_reorient  #important for SAPT in psi4, default
symmetry c1  #important for SAPT in psi4, default
}

set PROPERTIES_ORIGIN ["COM"]
properties('MP2/aug-cc-pvtz', properties = ['dipole'])
--------------------------------------------------------------------------

    Molecular point group: c1
  Charge       = 0
  Multiplicity = 1
  Basis Set: AUG-CC-PVTZ
    Blend: AUG-CC-PVTZ
  Basis Set: (AUG-CC-PVTZ AUX)
    Blend: AUG-CC-PVTZ-JKFIT

    Orbital Energies [Eh]
    ---------------------

    Doubly Occupied:

       1A    -20.549474     2A    -15.576862     3A    -11.359993
       4A    -11.289304     5A    -11.246886     6A    -11.244732
       7A    -11.242583     8A    -11.241555     9A    -11.240084
      10A    -11.239099    11A    -11.235882    12A    -11.232240
      13A     -1.445057    14A     -1.232049    15A     -1.139783
      16A     -1.099502    17A     -1.035542    18A     -1.004230
      19A     -0.954367    20A     -0.871793    21A     -0.834180
      22A     -0.799861    23A     -0.756210    24A     -0.711979
      25A     -0.690307    26A     -0.666268    27A     -0.656006
      28A     -0.629648    29A     -0.610658    30A     -0.608676
      31A     -0.597103    32A     -0.586023    33A     -0.568835
      34A     -0.538870    35A     -0.517494    36A     -0.514214
      37A     -0.499226    38A     -0.486833    39A     -0.482817
      40A     -0.436456    41A     -0.432581    42A     -0.334360
      43A     -0.304792

  @DF-RHF Final Energy:  -514.58395269974176

   => Energetics <=

    Nuclear Repulsion Energy =            674.3573758408392678
    One-Electron Energy =               -2036.3938272746845541
    Two-Electron Energy =                 847.4524987341035285
    Total Energy =                       -514.5839526997417579
  Basis Set: (AUG-CC-PVTZ AUX)
    Blend: AUG-CC-PVTZ-RI
    Molecular point group: c1

    Geometry (in Angstrom), charge = 0, multiplicity = 1:

       Center              X                  Y                   Z               Mass
    ------------   -----------------  -----------------  -----------------  -----------------
         O            2.982734715767    -1.508039642020     0.076603015525    15.994914619570
         N            0.813951715767    -1.074017642020    -0.420408984475    14.003074004430
         C            0.178208715767     1.991716357980    -0.238348984475    12.000000000000
         C            1.667974715767     1.686158357980    -0.349702984475    12.000000000000
         C           -0.785266284233     0.826463357980    -0.101347984475    12.000000000000
         C            2.130389715767     0.666351357980     0.698304015525    12.000000000000
         C           -0.477417284233    -0.546636642020    -0.177899984475    12.000000000000
         C            2.136120615767    -0.738038442020     0.155778015525    12.000000000000
         C           -2.128180284233     1.173447357980     0.126144015525    12.000000000000
         C           -1.509771284233    -1.498466642020    -0.084094984475    12.000000000000
         C           -3.149137284233     0.233318357980     0.216089015525    12.000000000000
         C           -2.832809284233    -1.121972642020     0.108094015525    12.000000000000
         H           -0.131989284233     2.591771357980    -1.103960984475     1.007825032230
         H            0.030212715767     2.636386357980     0.638438015525     1.007825032230
         H            1.913018715767     1.315873357980    -1.350894984475     1.007825032230
         H            2.218140715767     2.625447357980    -0.224186984475     1.007825032230
         H            1.519276715767     0.751696357980     1.606913015525     1.007825032230
         H            3.175659715767     0.806241357980     0.982501015525     1.007825032230
         H            0.828348715767    -2.038499642020    -0.744705984475     1.007825032230
         H           -2.373596284233     2.232304357980     0.201963015525     1.007825032230
         H           -1.250366284233    -2.554536642020    -0.139808984475     1.007825032230
         H           -4.174960284233     0.552718357980     0.380166015525     1.007825032230
         H           -3.607001284233    -1.882045642020     0.175862015525     1.007825032230

  Basis Set: AUG-CC-PVTZ
    Blend: AUG-CC-PVTZ
  Basis Set: (AUG-CC-PVTZ AUX)
    Blend: AUG-CC-PVTZ-JKFIT
	 Reference Energy          =    -514.5839526997417579 [Eh]
	 Singles Energy            =      -0.0000000000000000 [Eh]
	 Same-Spin Energy          =      -0.5566191284856512 [Eh]
	 Opposite-Spin Energy      =      -1.7405463422011462 [Eh]
	 Correlation Energy        =      -2.2971654706867977 [Eh]
	 Total Energy              =    -516.8811181704285218 [Eh]

	 ================> DF-SCS-MP2 Energies <==================
	-----------------------------------------------------------
	 SCS Same-Spin Scale       =       0.3333333333333333 [-]
	 SCS Opposite-Spin Scale   =       1.2000000000000000 [-]
	 SCS Same-Spin Energy      =      -0.1855397094952171 [Eh]
	 SCS Opposite-Spin Energy  =      -2.0886556106413754 [Eh]
	 SCS Correlation Energy    =      -2.2741953201365925 [Eh]
	 SCS Total Energy          =    -516.8581480198783993 [Eh]
	-----------------------------------------------------------

  Dipole Moment: [D]
     X:    -1.4976      Y:     1.8212      Z:     0.2178     Total:     2.3680

*** Psi4 exiting successfully. Buy a developer a beer!
