                               Psi4 1.4a3.dev225

  ==> Input File <==

--------------------------------------------------------------------------
#psi4
#
memory 32 gb

molecule  {
0 1
  O        3.0005300    -1.5493530     0.0754490
  N        0.8317470    -1.1153310    -0.4215630
  C        0.1960040     1.9504030    -0.2395030
  C        1.6857700     1.6448450    -0.3508570
  C       -0.7674710     0.7851500    -0.1025020
  C        2.1481850     0.6250380     0.6971500
  C       -0.4596220    -0.5879500    -0.1790540
  C        2.0510250    -0.7686880     0.1361100
  C       -2.1103850     1.1321340     0.1249900
  C       -1.4919760    -1.5397800    -0.0852490
  C       -3.1313420     0.1920050     0.2149350
  C       -2.8150140    -1.1632860     0.1069400
  H       -0.1141940     2.5504580    -1.1051150
  H        0.0480080     2.5950730     0.6372840
  H        1.9308140     1.2745600    -1.3520490
  H        2.2359360     2.5841340    -0.2253410
  H        1.5370720     0.7103830     1.6057590
  H        3.1934550     0.7649280     0.9813470
  H        0.8464269    -2.0987682    -0.7522335
  H       -2.3558010     2.1909910     0.2008090
  H       -1.2325710    -2.5958500    -0.1409630
  H       -4.1571650     0.5114050     0.3790120
  H       -3.5892060    -1.9233590     0.1747080
units angstrom
no_reorient  #important for SAPT in psi4, default
symmetry c1  #important for SAPT in psi4, default
}

set PROPERTIES_ORIGIN ["COM"]
properties('MP2/aug-cc-pvtz', properties = ['dipole'])
--------------------------------------------------------------------------

    Molecular point group: c1
  Charge       = 0
  Multiplicity = 1
  Basis Set: AUG-CC-PVTZ
    Blend: AUG-CC-PVTZ
  Basis Set: (AUG-CC-PVTZ AUX)
    Blend: AUG-CC-PVTZ-JKFIT

    Orbital Energies [Eh]
    ---------------------

    Doubly Occupied:

       1A    -20.525438     2A    -15.597826     3A    -11.356880
       4A    -11.297286     5A    -11.255160     6A    -11.246405
       7A    -11.244995     8A    -11.244914     9A    -11.244360
      10A    -11.242896    11A    -11.242118    12A    -11.239780
      13A     -1.379632    14A     -1.251306    15A     -1.151031
      16A     -1.101622    17A     -1.038869    18A     -1.015855
      19A     -0.956605    20A     -0.880260    21A     -0.842318
      22A     -0.808587    23A     -0.763723    24A     -0.720200
      25A     -0.681177    26A     -0.670681    27A     -0.645712
      28A     -0.628739    29A     -0.611151    30A     -0.602983
      31A     -0.600574    32A     -0.578391    33A     -0.563879
      34A     -0.541990    35A     -0.517590    36A     -0.510707
      37A     -0.498156    38A     -0.491697    39A     -0.482734
      40A     -0.435049    41A     -0.425810    42A     -0.340498
      43A     -0.315821

  @DF-RHF Final Energy:  -514.59323855808066

   => Energetics <=

    Nuclear Repulsion Energy =            674.9357591462082837
    One-Electron Energy =               -2037.4751812644992697
    Two-Electron Energy =                 847.9461835602103292
    Total Energy =                       -514.5932385580806567
  Basis Set: (AUG-CC-PVTZ AUX)
    Blend: AUG-CC-PVTZ-RI
    Molecular point group: c1

    Geometry (in Angstrom), charge = 0, multiplicity = 1:

       Center              X                  Y                   Z               Mass
    ------------   -----------------  -----------------  -----------------  -----------------
         O            2.990397830639    -1.508715451111     0.078022096762    15.994914619570
         N            0.821614830639    -1.074693451111    -0.418989903238    14.003074004430
         C            0.185871830639     1.991040548889    -0.236929903238    12.000000000000
         C            1.675637830639     1.685482548889    -0.348283903238    12.000000000000
         C           -0.777603169361     0.825787548889    -0.099928903238    12.000000000000
         C            2.138052830639     0.665675548889     0.699723096762    12.000000000000
         C           -0.469754169361    -0.547312451111    -0.176480903238    12.000000000000
         C            2.040892830639    -0.728050451111     0.138683096762    12.000000000000
         C           -2.120517169361     1.172771548889     0.127563096762    12.000000000000
         C           -1.502108169361    -1.499142451111    -0.082675903238    12.000000000000
         C           -3.141474169361     0.232642548889     0.217508096762    12.000000000000
         C           -2.825146169361    -1.122648451111     0.109513096762    12.000000000000
         H           -0.124326169361     2.591095548889    -1.102541903238     1.007825032230
         H            0.037875830639     2.635710548889     0.639857096762     1.007825032230
         H            1.920681830639     1.315197548889    -1.349475903238     1.007825032230
         H            2.225803830639     2.624771548889    -0.222767903238     1.007825032230
         H            1.526939830639     0.751020548889     1.608332096762     1.007825032230
         H            3.183322830639     0.805565548889     0.983920096762     1.007825032230
         H            0.836294730639    -2.058130651111    -0.749660403238     1.007825032230
         H           -2.365933169361     2.231628548889     0.203382096762     1.007825032230
         H           -1.242703169361    -2.555212451111    -0.138389903238     1.007825032230
         H           -4.167297169361     0.552042548889     0.381585096762     1.007825032230
         H           -3.599338169361    -1.882721451111     0.177281096762     1.007825032230

  Basis Set: AUG-CC-PVTZ
    Blend: AUG-CC-PVTZ
  Basis Set: (AUG-CC-PVTZ AUX)
    Blend: AUG-CC-PVTZ-JKFIT
	 Reference Energy          =    -514.5932385580806567 [Eh]
	 Singles Energy            =      -0.0000000000000000 [Eh]
	 Same-Spin Energy          =      -0.5580621623333470 [Eh]
	 Opposite-Spin Energy      =      -1.7434599749976769 [Eh]
	 Correlation Energy        =      -2.3015221373310242 [Eh]
	 Total Energy              =    -516.8947606954117191 [Eh]

	 ================> DF-SCS-MP2 Energies <==================
	-----------------------------------------------------------
	 SCS Same-Spin Scale       =       0.3333333333333333 [-]
	 SCS Opposite-Spin Scale   =       1.2000000000000000 [-]
	 SCS Same-Spin Energy      =      -0.1860207207777823 [Eh]
	 SCS Opposite-Spin Energy  =      -2.0921519699972122 [Eh]
	 SCS Correlation Energy    =      -2.2781726907749946 [Eh]
	 SCS Total Energy          =    -516.8714112488556793 [Eh]
	-----------------------------------------------------------

  Dipole Moment: [D]
     X:    -2.7396      Y:     2.0472      Z:     0.0286     Total:     3.4202

*** Psi4 exiting successfully. Buy a developer a beer!
