                               Psi4 1.3.2 release

  ==> Input File <==

--------------------------------------------------------------------------
#psi4
#
memory 32 gb

molecule  {
0 1
  O        3.0005300    -1.5493530     0.0754490
  N        0.8317470    -1.1153310    -0.4215630
  C        0.1960040     1.9504030    -0.2395030
  C        1.6857700     1.6448450    -0.3508570
  C       -0.7674710     0.7851500    -0.1025020
  C        2.1481850     0.6250380     0.6971500
  C       -0.4833357    -0.5932582    -0.1752526
  C        2.0510250    -0.7686880     0.1361100
  C       -2.1103850     1.1321340     0.1249900
  C       -1.4919760    -1.5397800    -0.0852490
  C       -3.1313420     0.1920050     0.2149350
  C       -2.8150140    -1.1632860     0.1069400
  H       -0.1141940     2.5504580    -1.1051150
  H        0.0480080     2.5950730     0.6372840
  H        1.9308140     1.2745600    -1.3520490
  H        2.2359360     2.5841340    -0.2253410
  H        1.5370720     0.7103830     1.6057590
  H        3.1934550     0.7649280     0.9813470
  H        0.8461440    -2.0798130    -0.7458600
  H       -2.3558010     2.1909910     0.2008090
  H       -1.2325710    -2.5958500    -0.1409630
  H       -4.1571650     0.5114050     0.3790120
  H       -3.5892060    -1.9233590     0.1747080
units angstrom
no_reorient  #important for SAPT in psi4, default
symmetry c1  #important for SAPT in psi4, default
}

set PROPERTIES_ORIGIN ["COM"]
properties('MP2/aug-cc-pvtz', properties = ['dipole'])
--------------------------------------------------------------------------

    Molecular point group: c1
  Charge       = 0
  Multiplicity = 1
  Basis Set: AUG-CC-PVTZ
    Blend: AUG-CC-PVTZ
  Basis Set: (AUG-CC-PVTZ AUX)
    Blend: AUG-CC-PVTZ-JKFIT

    Orbital Energies [Eh]
    ---------------------

    Doubly Occupied:

       1A    -20.524156     2A    -15.594167     3A    -11.355685
       4A    -11.296400     5A    -11.256130     6A    -11.246935
       7A    -11.245990     8A    -11.245378     9A    -11.243276
      10A    -11.242391    11A    -11.241796    12A    -11.240592
      13A     -1.378283    14A     -1.247810    15A     -1.153017
      16A     -1.102024    17A     -1.038985    18A     -1.018885
      19A     -0.957481    20A     -0.879557    21A     -0.842287
      22A     -0.807953    23A     -0.766094    24A     -0.719425
      25A     -0.680712    26A     -0.669304    27A     -0.646071
      28A     -0.629934    29A     -0.610951    30A     -0.604205
      31A     -0.600617    32A     -0.577919    33A     -0.564009
      34A     -0.541945    35A     -0.516615    36A     -0.511371
      37A     -0.498527    38A     -0.493067    39A     -0.483756
      40A     -0.433461    41A     -0.424491    42A     -0.341690
      43A     -0.318464

  @DF-RHF Final Energy:  -514.59394603549686

   => Energetics <=

    Nuclear Repulsion Energy =            674.9876238685925500
    One-Electron Energy =               -2037.5795296204537408
    Two-Electron Energy =                 847.9979597163644485
    Total Energy =                       -514.5939460354968560
  Basis Set: (AUG-CC-PVTZ AUX)
    Blend: AUG-CC-PVTZ-RI
    Molecular point group: c1

    Geometry (in Angstrom), charge = 0, multiplicity = 1:

       Center              X                  Y                   Z               Mass
    ------------   -----------------  -----------------  -----------------  -----------------
         O            2.992166158968    -1.508438608860     0.077699034558    15.994914619570
         N            0.823383158968    -1.074416608860    -0.419312965442    14.003074004430
         C            0.187640158968     1.991317391140    -0.237252965442    12.000000000000
         C            1.677406158968     1.685759391140    -0.348606965442    12.000000000000
         C           -0.775834841032     0.826064391140    -0.100251965442    12.000000000000
         C            2.139821158968     0.665952391140     0.699400034558    12.000000000000
         C           -0.491699541032    -0.552343808860    -0.173002565442    12.000000000000
         C            2.042661158968    -0.727773608860     0.138360034558    12.000000000000
         C           -2.118748841032     1.173048391140     0.127240034558    12.000000000000
         C           -1.500339841032    -1.498865608860    -0.082998965442    12.000000000000
         C           -3.139705841032     0.232919391140     0.217185034558    12.000000000000
         C           -2.823377841032    -1.122371608860     0.109190034558    12.000000000000
         H           -0.122557841032     2.591372391140    -1.102864965442     1.007825032230
         H            0.039644158968     2.635987391140     0.639534034558     1.007825032230
         H            1.922450158968     1.315474391140    -1.349798965442     1.007825032230
         H            2.227572158968     2.625048391140    -0.223090965442     1.007825032230
         H            1.528708158968     0.751297391140     1.608009034558     1.007825032230
         H            3.185091158968     0.805842391140     0.983597034558     1.007825032230
         H            0.837780158968    -2.038898608860    -0.743609965442     1.007825032230
         H           -2.364164841032     2.231905391140     0.203059034558     1.007825032230
         H           -1.240934841032    -2.554935608860    -0.138712965442     1.007825032230
         H           -4.165528841032     0.552319391140     0.381262034558     1.007825032230
         H           -3.597569841032    -1.882444608860     0.176958034558     1.007825032230

  Basis Set: AUG-CC-PVTZ
    Blend: AUG-CC-PVTZ
  Basis Set: (AUG-CC-PVTZ AUX)
    Blend: AUG-CC-PVTZ-JKFIT
	 Reference Energy          =    -514.5939460354968560 [Eh]
	 Singles Energy            =      -0.0000000000000000 [Eh]
	 Same-Spin Energy          =      -0.5577286174899438 [Eh]
	 Opposite-Spin Energy      =      -1.7428605739562832 [Eh]
	 Correlation Energy        =      -2.3005891914462273 [Eh]
	 Total Energy              =    -516.8945352269430487 [Eh]

	 ================> DF-SCS-MP2 Energies <==================
	-----------------------------------------------------------
	 SCS Same-Spin Scale       =       0.3333333333333333 [-]
	 SCS Opposite-Spin Scale   =       1.2000000000000000 [-]
	 SCS Same-Spin Energy      =      -0.1859095391633146 [Eh]
	 SCS Opposite-Spin Energy  =      -2.0914326887475396 [Eh]
	 SCS Correlation Energy    =      -2.2773422279108542 [Eh]
	 SCS Total Energy          =    -516.8712882634076777 [Eh]
	-----------------------------------------------------------

  Dipole Moment: [D]
     X:    -2.8536      Y:     2.0929      Z:     0.0477     Total:     3.5391

*** Psi4 exiting successfully. Buy a developer a beer!
