                               Psi4 1.3.2 release

  ==> Input File <==

--------------------------------------------------------------------------
#psi4
#
memory 32 gb

molecule  {
0 1
  O        3.0005300    -1.5493530     0.0754490
  N        0.8317470    -1.1153310    -0.4215630
  C        0.1960040     1.9504030    -0.2395030
  C        1.6857700     1.6448450    -0.3508570
  C       -0.7674710     0.7851500    -0.1025020
  C        2.1481850     0.6250380     0.6971500
  C       -0.3966730    -0.6624457    -0.1907492
  C        2.0510250    -0.7686880     0.1361100
  C       -2.1103850     1.1321340     0.1249900
  C       -1.4919760    -1.5397800    -0.0852490
  C       -3.1313420     0.1920050     0.2149350
  C       -2.8150140    -1.1632860     0.1069400
  H       -0.1141940     2.5504580    -1.1051150
  H        0.0480080     2.5950730     0.6372840
  H        1.9308140     1.2745600    -1.3520490
  H        2.2359360     2.5841340    -0.2253410
  H        1.5370720     0.7103830     1.6057590
  H        3.1934550     0.7649280     0.9813470
  H        0.8461440    -2.0798130    -0.7458600
  H       -2.3558010     2.1909910     0.2008090
  H       -1.2325710    -2.5958500    -0.1409630
  H       -4.1571650     0.5114050     0.3790120
  H       -3.5892060    -1.9233590     0.1747080
units angstrom
no_reorient  #important for SAPT in psi4, default
symmetry c1  #important for SAPT in psi4, default
}

set PROPERTIES_ORIGIN ["COM"]
properties('MP2/aug-cc-pvtz', properties = ['dipole'])
--------------------------------------------------------------------------

    Molecular point group: c1
  Charge       = 0
  Multiplicity = 1
  Basis Set: AUG-CC-PVTZ
    Blend: AUG-CC-PVTZ
  Basis Set: (AUG-CC-PVTZ AUX)
    Blend: AUG-CC-PVTZ-JKFIT

    Orbital Energies [Eh]
    ---------------------

    Doubly Occupied:

       1A    -20.534091     2A    -15.603011     3A    -11.365109
       4A    -11.301304     5A    -11.259219     6A    -11.246135
       7A    -11.243916     8A    -11.243518     9A    -11.242355
      10A    -11.241581    11A    -11.240250    12A    -11.235549
      13A     -1.389804    14A     -1.280109    15A     -1.143551
      16A     -1.103022    17A     -1.034296    18A     -1.015155
      19A     -0.952693    20A     -0.889220    21A     -0.840702
      22A     -0.809652    23A     -0.769776    24A     -0.732045
      25A     -0.686781    26A     -0.671222    27A     -0.648731
      28A     -0.626154    29A     -0.613563    30A     -0.604962
      31A     -0.601422    32A     -0.577717    33A     -0.566440
      34A     -0.544784    35A     -0.517042    36A     -0.509356
      37A     -0.498124    38A     -0.487474    39A     -0.477379
      40A     -0.442591    41A     -0.433798    42A     -0.338170
      43A     -0.301641

  @DF-RHF Final Energy:  -514.58023805771052

   => Energetics <=

    Nuclear Repulsion Energy =            674.8885216137356338
    One-Electron Energy =               -2037.2106927263571379
    Two-Electron Energy =                 847.7419330549111010
    Total Energy =                       -514.5802380577105168
  Basis Set: (AUG-CC-PVTZ AUX)
    Blend: AUG-CC-PVTZ-RI
    Molecular point group: c1

    Geometry (in Angstrom), charge = 0, multiplicity = 1:

       Center              X                  Y                   Z               Mass
    ------------   -----------------  -----------------  -----------------  -----------------
         O            2.985710198184    -1.503284467727     0.078853457878    15.994914619570
         N            0.816927198184    -1.069262467727    -0.418158542122    14.003074004430
         C            0.181184198184     1.996471532273    -0.236098542122    12.000000000000
         C            1.670950198184     1.690913532273    -0.347452542122    12.000000000000
         C           -0.782290801816     0.831218532273    -0.099097542122    12.000000000000
         C            2.133365198184     0.671106532273     0.700554457878    12.000000000000
         C           -0.411492801816    -0.616377167727    -0.187344742122    12.000000000000
         C            2.036205198184    -0.722619467727     0.139514457878    12.000000000000
         C           -2.125204801816     1.178202532273     0.128394457878    12.000000000000
         C           -1.506795801816    -1.493711467727    -0.081844542122    12.000000000000
         C           -3.146161801816     0.238073532273     0.218339457878    12.000000000000
         C           -2.829833801816    -1.117217467727     0.110344457878    12.000000000000
         H           -0.129013801816     2.596526532273    -1.101710542122     1.007825032230
         H            0.033188198184     2.641141532273     0.640688457878     1.007825032230
         H            1.915994198184     1.320628532273    -1.348644542122     1.007825032230
         H            2.221116198184     2.630202532273    -0.221936542122     1.007825032230
         H            1.522252198184     0.756451532273     1.609163457878     1.007825032230
         H            3.178635198184     0.810996532273     0.984751457878     1.007825032230
         H            0.831324198184    -2.033744467727    -0.742455542122     1.007825032230
         H           -2.370620801816     2.237059532273     0.204213457878     1.007825032230
         H           -1.247390801816    -2.549781467727    -0.137558542122     1.007825032230
         H           -4.171984801816     0.557473532273     0.382416457878     1.007825032230
         H           -3.604025801816    -1.877290467727     0.178112457878     1.007825032230

  Basis Set: AUG-CC-PVTZ
    Blend: AUG-CC-PVTZ
  Basis Set: (AUG-CC-PVTZ AUX)
    Blend: AUG-CC-PVTZ-JKFIT
	 Reference Energy          =    -514.5802380577105168 [Eh]
	 Singles Energy            =      -0.0000000000000000 [Eh]
	 Same-Spin Energy          =      -0.5591169443086250 [Eh]
	 Opposite-Spin Energy      =      -1.7448011289137937 [Eh]
	 Correlation Energy        =      -2.3039180732224187 [Eh]
	 Total Energy              =    -516.8841561309329791 [Eh]

	 ================> DF-SCS-MP2 Energies <==================
	-----------------------------------------------------------
	 SCS Same-Spin Scale       =       0.3333333333333333 [-]
	 SCS Opposite-Spin Scale   =       1.2000000000000000 [-]
	 SCS Same-Spin Energy      =      -0.1863723147695417 [Eh]
	 SCS Opposite-Spin Energy  =      -2.0937613546965523 [Eh]
	 SCS Correlation Energy    =      -2.2801336694660939 [Eh]
	 SCS Total Energy          =    -516.8603717271765845 [Eh]
	-----------------------------------------------------------

  Dipole Moment: [D]
     X:    -2.1837      Y:     1.9334      Z:     0.0043     Total:     2.9167

*** Psi4 exiting successfully. Buy a developer a beer!
