                               Psi4 1.3.2 release

  ==> Input File <==

--------------------------------------------------------------------------
#psi4
#
memory 32 gb

molecule  {
0 1
  O        3.0005300    -1.5493530     0.0754490
  N        0.8317470    -1.1153310    -0.4215630
  C        0.1960040     1.9504030    -0.2395030
  C        1.6857700     1.6448450    -0.3508570
  C       -0.7674710     0.7851500    -0.1025020
  C        2.1481850     0.6250380     0.6971500
  C       -0.4596220    -0.5879500    -0.1790540
  C        2.1390693    -0.7436568     0.1763797
  C       -2.1103850     1.1321340     0.1249900
  C       -1.4919760    -1.5397800    -0.0852490
  C       -3.1313420     0.1920050     0.2149350
  C       -2.8150140    -1.1632860     0.1069400
  H       -0.1141940     2.5504580    -1.1051150
  H        0.0480080     2.5950730     0.6372840
  H        1.9308140     1.2745600    -1.3520490
  H        2.2359360     2.5841340    -0.2253410
  H        1.5370720     0.7103830     1.6057590
  H        3.1934550     0.7649280     0.9813470
  H        0.8461440    -2.0798130    -0.7458600
  H       -2.3558010     2.1909910     0.2008090
  H       -1.2325710    -2.5958500    -0.1409630
  H       -4.1571650     0.5114050     0.3790120
  H       -3.5892060    -1.9233590     0.1747080
units angstrom
no_reorient  #important for SAPT in psi4, default
symmetry c1  #important for SAPT in psi4, default
}

set PROPERTIES_ORIGIN ["COM"]
properties('MP2/aug-cc-pvtz', properties = ['dipole'])
--------------------------------------------------------------------------

    Molecular point group: c1
  Charge       = 0
  Multiplicity = 1
  Basis Set: AUG-CC-PVTZ
    Blend: AUG-CC-PVTZ
  Basis Set: (AUG-CC-PVTZ AUX)
    Blend: AUG-CC-PVTZ-JKFIT

    Orbital Energies [Eh]
    ---------------------

    Doubly Occupied:

       1A    -20.545316     2A    -15.579226     3A    -11.363836
       4A    -11.289170     5A    -11.247749     6A    -11.246622
       7A    -11.245443     8A    -11.243263     9A    -11.240718
      10A    -11.239914    11A    -11.236347    12A    -11.232880
      13A     -1.417590    14A     -1.231699    15A     -1.140066
      16A     -1.104829    17A     -1.040235    18A     -1.004603
      19A     -0.959710    20A     -0.874607    21A     -0.834655
      22A     -0.800811    23A     -0.758168    24A     -0.711733
      25A     -0.689229    26A     -0.664818    27A     -0.653137
      28A     -0.628801    29A     -0.609940    30A     -0.605777
      31A     -0.596976    32A     -0.586633    33A     -0.565790
      34A     -0.538560    35A     -0.514937    36A     -0.513425
      37A     -0.499920    38A     -0.488679    39A     -0.483490
      40A     -0.437894    41A     -0.433953    42A     -0.335146
      43A     -0.305307

  @DF-RHF Final Energy:  -514.58512061096678

   => Energetics <=

    Nuclear Repulsion Energy =            674.3559886846014706
    One-Electron Energy =               -2036.3990149161345471
    Two-Electron Energy =                 847.4579056205662937
    Total Energy =                       -514.5851206109667828
  Basis Set: (AUG-CC-PVTZ AUX)
    Blend: AUG-CC-PVTZ-RI
    Molecular point group: c1

    Geometry (in Angstrom), charge = 0, multiplicity = 1:

       Center              X                  Y                   Z               Mass
    ------------   -----------------  -----------------  -----------------  -----------------
         O            2.983840717165    -1.510698750496     0.074982318892    15.994914619570
         N            0.815057717165    -1.076676750496    -0.422029681108    14.003074004430
         C            0.179314717165     1.989057249504    -0.239969681108    12.000000000000
         C            1.669080717165     1.683499249504    -0.351323681108    12.000000000000
         C           -0.784160282835     0.823804249504    -0.102968681108    12.000000000000
         C            2.131495717165     0.663692249504     0.696683318892    12.000000000000
         C           -0.476311282835    -0.549295750496    -0.179520681108    12.000000000000
         C            2.122380017165    -0.705002550496     0.175913018892    12.000000000000
         C           -2.127074282835     1.170788249504     0.124523318892    12.000000000000
         C           -1.508665282835    -1.501125750496    -0.085715681108    12.000000000000
         C           -3.148031282835     0.230659249504     0.214468318892    12.000000000000
         C           -2.831703282835    -1.124631750496     0.106473318892    12.000000000000
         H           -0.130883282835     2.589112249504    -1.105581681108     1.007825032230
         H            0.031318717165     2.633727249504     0.636817318892     1.007825032230
         H            1.914124717165     1.313214249504    -1.352515681108     1.007825032230
         H            2.219246717165     2.622788249504    -0.225807681108     1.007825032230
         H            1.520382717165     0.749037249504     1.605292318892     1.007825032230
         H            3.176765717165     0.803582249504     0.980880318892     1.007825032230
         H            0.829454717165    -2.041158750496    -0.746326681108     1.007825032230
         H           -2.372490282835     2.229645249504     0.200342318892     1.007825032230
         H           -1.249260282835    -2.557195750496    -0.141429681108     1.007825032230
         H           -4.173854282835     0.550059249504     0.378545318892     1.007825032230
         H           -3.605895282835    -1.884704750496     0.174241318892     1.007825032230

  Basis Set: AUG-CC-PVTZ
    Blend: AUG-CC-PVTZ
  Basis Set: (AUG-CC-PVTZ AUX)
    Blend: AUG-CC-PVTZ-JKFIT
	 Reference Energy          =    -514.5851206109667828 [Eh]
	 Singles Energy            =      -0.0000000000000000 [Eh]
	 Same-Spin Energy          =      -0.5577015503151350 [Eh]
	 Opposite-Spin Energy      =      -1.7426113675574464 [Eh]
	 Correlation Energy        =      -2.3003129178725814 [Eh]
	 Total Energy              =    -516.8854335288393713 [Eh]

	 ================> DF-SCS-MP2 Energies <==================
	-----------------------------------------------------------
	 SCS Same-Spin Scale       =       0.3333333333333333 [-]
	 SCS Opposite-Spin Scale   =       1.2000000000000000 [-]
	 SCS Same-Spin Energy      =      -0.1859005167717117 [Eh]
	 SCS Opposite-Spin Energy  =      -2.0911336410689354 [Eh]
	 SCS Correlation Energy    =      -2.2770341578406472 [Eh]
	 SCS Total Energy          =    -516.8621547688073861 [Eh]
	-----------------------------------------------------------

  Dipole Moment: [D]
     X:    -1.6517      Y:     2.0318      Z:     0.2549     Total:     2.6308

*** Psi4 exiting successfully. Buy a developer a beer!
