                               Psi4 1.3.2 release

  ==> Input File <==

--------------------------------------------------------------------------
#psi4
#
memory 32 gb

molecule  {
0 1
  O        3.0005300    -1.5493530     0.0754490
  N        0.7685432    -1.2493749    -0.4213403
  C        0.1960040     1.9504030    -0.2395030
  C        1.6857700     1.6448450    -0.3508570
  C       -0.7674710     0.7851500    -0.1025020
  C        2.1481850     0.6250380     0.6971500
  C       -0.4596220    -0.5879500    -0.1790540
  C        2.0510250    -0.7686880     0.1361100
  C       -2.1103850     1.1321340     0.1249900
  C       -1.4919760    -1.5397800    -0.0852490
  C       -3.1313420     0.1920050     0.2149350
  C       -2.8150140    -1.1632860     0.1069400
  H       -0.1141940     2.5504580    -1.1051150
  H        0.0480080     2.5950730     0.6372840
  H        1.9308140     1.2745600    -1.3520490
  H        2.2359360     2.5841340    -0.2253410
  H        1.5370720     0.7103830     1.6057590
  H        3.1934550     0.7649280     0.9813470
  H        0.8461440    -2.0798130    -0.7458600
  H       -2.3558010     2.1909910     0.2008090
  H       -1.2325710    -2.5958500    -0.1409630
  H       -4.1571650     0.5114050     0.3790120
  H       -3.5892060    -1.9233590     0.1747080
units angstrom
no_reorient  #important for SAPT in psi4, default
symmetry c1  #important for SAPT in psi4, default
}

set PROPERTIES_ORIGIN ["COM"]
properties('MP2/aug-cc-pvtz', properties = ['dipole'])
--------------------------------------------------------------------------

    Molecular point group: c1
  Charge       = 0
  Multiplicity = 1
  Basis Set: AUG-CC-PVTZ
    Blend: AUG-CC-PVTZ
  Basis Set: (AUG-CC-PVTZ AUX)
    Blend: AUG-CC-PVTZ-JKFIT

    Orbital Energies [Eh]
    ---------------------

    Doubly Occupied:

       1A    -20.535731     2A    -15.582104     3A    -11.367406
       4A    -11.294252     5A    -11.254496     6A    -11.250665
       7A    -11.245498     8A    -11.244750     9A    -11.243599
      10A    -11.241947    11A    -11.237195    12A    -11.235907
      13A     -1.382101    14A     -1.249176    15A     -1.148207
      16A     -1.104260    17A     -1.037413    18A     -1.009698
      19A     -0.962566    20A     -0.874036    21A     -0.842548
      22A     -0.803932    23A     -0.776176    24A     -0.724959
      25A     -0.685307    26A     -0.671369    27A     -0.647447
      28A     -0.626804    29A     -0.611468    30A     -0.601635
      31A     -0.599285    32A     -0.586748    33A     -0.563282
      34A     -0.541519    35A     -0.516077    36A     -0.509899
      37A     -0.499144    38A     -0.493355    39A     -0.481559
      40A     -0.435539    41A     -0.427625    42A     -0.337529
      43A     -0.310306

  @DF-RHF Final Energy:  -514.56809639810695

   => Energetics <=

    Nuclear Repulsion Energy =            673.2586353509828996
    One-Electron Energy =               -2034.0644257436727003
    Two-Electron Energy =                 846.2376939945827417
    Total Energy =                       -514.5680963981069453
  Basis Set: (AUG-CC-PVTZ AUX)
    Blend: AUG-CC-PVTZ-RI
    Molecular point group: c1

    Geometry (in Angstrom), charge = 0, multiplicity = 1:

       Center              X                  Y                   Z               Mass
    ------------   -----------------  -----------------  -----------------  -----------------
         O            2.995893921193    -1.497181578172     0.077962861496    15.994914619570
         N            0.763907121193    -1.197203478172    -0.418826438504    14.003074004430
         C            0.191367921193     2.002574421828    -0.236989138504    12.000000000000
         C            1.681133921193     1.697016421828    -0.348343138504    12.000000000000
         C           -0.772107078807     0.837321421828    -0.099988138504    12.000000000000
         C            2.143548921193     0.677209421828     0.699663861496    12.000000000000
         C           -0.464258078807    -0.535778578172    -0.176540138504    12.000000000000
         C            2.046388921193    -0.716516578172     0.138623861496    12.000000000000
         C           -2.115021078807     1.184305421828     0.127503861496    12.000000000000
         C           -1.496612078807    -1.487608578172    -0.082735138504    12.000000000000
         C           -3.135978078807     0.244176421828     0.217448861496    12.000000000000
         C           -2.819650078807    -1.111114578172     0.109453861496    12.000000000000
         H           -0.118830078807     2.602629421828    -1.102601138504     1.007825032230
         H            0.043371921193     2.647244421828     0.639797861496     1.007825032230
         H            1.926177921193     1.326731421828    -1.349535138504     1.007825032230
         H            2.231299921193     2.636305421828    -0.222827138504     1.007825032230
         H            1.532435921193     0.762554421828     1.608272861496     1.007825032230
         H            3.188818921193     0.817099421828     0.983860861496     1.007825032230
         H            0.841507921193    -2.027641578172    -0.743346138504     1.007825032230
         H           -2.360437078807     2.243162421828     0.203322861496     1.007825032230
         H           -1.237207078807    -2.543678578172    -0.138449138504     1.007825032230
         H           -4.161801078807     0.563576421828     0.381525861496     1.007825032230
         H           -3.593842078807    -1.871187578172     0.177221861496     1.007825032230

  Basis Set: AUG-CC-PVTZ
    Blend: AUG-CC-PVTZ
  Basis Set: (AUG-CC-PVTZ AUX)
    Blend: AUG-CC-PVTZ-JKFIT
	 Reference Energy          =    -514.5680963981069453 [Eh]
	 Singles Energy            =      -0.0000000000000000 [Eh]
	 Same-Spin Energy          =      -0.5571937682950747 [Eh]
	 Opposite-Spin Energy      =      -1.7429975696140847 [Eh]
	 Correlation Energy        =      -2.3001913379091592 [Eh]
	 Total Energy              =    -516.8682877360161001 [Eh]

	 ================> DF-SCS-MP2 Energies <==================
	-----------------------------------------------------------
	 SCS Same-Spin Scale       =       0.3333333333333333 [-]
	 SCS Opposite-Spin Scale   =       1.2000000000000000 [-]
	 SCS Same-Spin Energy      =      -0.1857312560983582 [Eh]
	 SCS Opposite-Spin Energy  =      -2.0915970835369015 [Eh]
	 SCS Correlation Energy    =      -2.2773283396352597 [Eh]
	 SCS Total Energy          =    -516.8454247377421780 [Eh]
	-----------------------------------------------------------

  Dipole Moment: [D]
     X:    -2.1303      Y:     2.1832      Z:     0.0857     Total:     3.0516

*** Psi4 exiting successfully. Buy a developer a beer!
