                               Psi4 1.3.2 release

  ==> Input File <==

--------------------------------------------------------------------------
#psi4
#
memory 32 gb

molecule  {
0 1
  O        3.0005300    -1.5493530     0.0754490
  N        0.8317470    -1.1153310    -0.4215630
  C        0.1960040     1.9504030    -0.2395030
  C        1.6857700     1.6448450    -0.3508570
  C       -0.7674710     0.7851500    -0.1025020
  C        2.1481850     0.6250380     0.6971500
  C       -0.4596220    -0.5879500    -0.1790540
  C        1.9629807    -0.7937192     0.0958403
  C       -2.1103850     1.1321340     0.1249900
  C       -1.4919760    -1.5397800    -0.0852490
  C       -3.1313420     0.1920050     0.2149350
  C       -2.8150140    -1.1632860     0.1069400
  H       -0.1141940     2.5504580    -1.1051150
  H        0.0480080     2.5950730     0.6372840
  H        1.9308140     1.2745600    -1.3520490
  H        2.2359360     2.5841340    -0.2253410
  H        1.5370720     0.7103830     1.6057590
  H        3.1934550     0.7649280     0.9813470
  H        0.8461440    -2.0798130    -0.7458600
  H       -2.3558010     2.1909910     0.2008090
  H       -1.2325710    -2.5958500    -0.1409630
  H       -4.1571650     0.5114050     0.3790120
  H       -3.5892060    -1.9233590     0.1747080
units angstrom
no_reorient  #important for SAPT in psi4, default
symmetry c1  #important for SAPT in psi4, default
}

set PROPERTIES_ORIGIN ["COM"]
properties('MP2/aug-cc-pvtz', properties = ['dipole'])
--------------------------------------------------------------------------

    Molecular point group: c1
  Charge       = 0
  Multiplicity = 1
  Basis Set: AUG-CC-PVTZ
    Blend: AUG-CC-PVTZ
  Basis Set: (AUG-CC-PVTZ AUX)
    Blend: AUG-CC-PVTZ-JKFIT

    Orbital Energies [Eh]
    ---------------------

    Doubly Occupied:

       1A    -20.505092     2A    -15.611075     3A    -11.349418
       4A    -11.305072     5A    -11.262957     6A    -11.253349
       7A    -11.251684     8A    -11.250305     9A    -11.247000
      10A    -11.246861    11A    -11.240998    12A    -11.239641
      13A     -1.360003    14A     -1.264276    15A     -1.162632
      16A     -1.100630    17A     -1.038901    18A     -1.028963
      19A     -0.954438    20A     -0.890097    21A     -0.851629
      22A     -0.815602    23A     -0.775896    24A     -0.733881
      25A     -0.678771    26A     -0.673094    27A     -0.651132
      28A     -0.626305    29A     -0.613158    30A     -0.607977
      31A     -0.600947    32A     -0.577516    33A     -0.555250
      34A     -0.544193    35A     -0.518952    36A     -0.510420
      37A     -0.496952    38A     -0.494600    39A     -0.482403
      40A     -0.425657    41A     -0.406054    42A     -0.346140
      43A     -0.326056

  @DF-RHF Final Energy:  -514.57972466689284

   => Energetics <=

    Nuclear Repulsion Energy =            675.9008890009054085
    One-Electron Energy =               -2039.2092746016157889
    Two-Electron Energy =                 848.7286609338175367
    Total Energy =                       -514.5797246668928437
  Basis Set: (AUG-CC-PVTZ AUX)
    Blend: AUG-CC-PVTZ-RI
    Molecular point group: c1

    Geometry (in Angstrom), charge = 0, multiplicity = 1:

       Center              X                  Y                   Z               Mass
    ------------   -----------------  -----------------  -----------------  -----------------
         O            2.996958484049    -1.506969338752     0.080982122822    15.994914619570
         N            0.828175484049    -1.072947338752    -0.416029877178    14.003074004430
         C            0.192432484049     1.992786661248    -0.233969877178    12.000000000000
         C            1.682198484049     1.687228661248    -0.345323877178    12.000000000000
         C           -0.771042515951     0.827533661248    -0.096968877178    12.000000000000
         C            2.144613484049     0.667421661248     0.702683122822    12.000000000000
         C           -0.463193515951    -0.545566338752    -0.173520877178    12.000000000000
         C            1.959409184049    -0.751335538752     0.101373422822    12.000000000000
         C           -2.113956515951     1.174517661248     0.130523122822    12.000000000000
         C           -1.495547515951    -1.497396338752    -0.079715877178    12.000000000000
         C           -3.134913515951     0.234388661248     0.220468122822    12.000000000000
         C           -2.818585515951    -1.120902338752     0.112473122822    12.000000000000
         H           -0.117765515951     2.592841661248    -1.099581877178     1.007825032230
         H            0.044436484049     2.637456661248     0.642817122822     1.007825032230
         H            1.927242484049     1.316943661248    -1.346515877178     1.007825032230
         H            2.232364484049     2.626517661248    -0.219807877178     1.007825032230
         H            1.533500484049     0.752766661248     1.611292122822     1.007825032230
         H            3.189883484049     0.807311661248     0.986880122822     1.007825032230
         H            0.842572484049    -2.037429338752    -0.740326877178     1.007825032230
         H           -2.359372515951     2.233374661248     0.206342122822     1.007825032230
         H           -1.236142515951    -2.553466338752    -0.135429877178     1.007825032230
         H           -4.160736515951     0.553788661248     0.384545122822     1.007825032230
         H           -3.592777515951    -1.880975338752     0.180241122822     1.007825032230

  Basis Set: AUG-CC-PVTZ
    Blend: AUG-CC-PVTZ
  Basis Set: (AUG-CC-PVTZ AUX)
    Blend: AUG-CC-PVTZ-JKFIT
	 Reference Energy          =    -514.5797246668928437 [Eh]
	 Singles Energy            =      -0.0000000000000000 [Eh]
	 Same-Spin Energy          =      -0.5585479524703274 [Eh]
	 Opposite-Spin Energy      =      -1.7444194685436059 [Eh]
	 Correlation Energy        =      -2.3029674210139333 [Eh]
	 Total Energy              =    -516.8826920879067757 [Eh]

	 ================> DF-SCS-MP2 Energies <==================
	-----------------------------------------------------------
	 SCS Same-Spin Scale       =       0.3333333333333333 [-]
	 SCS Opposite-Spin Scale   =       1.2000000000000000 [-]
	 SCS Same-Spin Energy      =      -0.1861826508234425 [Eh]
	 SCS Opposite-Spin Energy  =      -2.0933033622523269 [Eh]
	 SCS Correlation Energy    =      -2.2794860130757693 [Eh]
	 SCS Total Energy          =    -516.8592106799686690 [Eh]
	-----------------------------------------------------------

  Dipole Moment: [D]
     X:    -3.7932      Y:     2.1403      Z:    -0.1634     Total:     4.3585

*** Psi4 exiting successfully. Buy a developer a beer!
