                               Psi4 1.4a3.dev225

  ==> Input File <==

--------------------------------------------------------------------------
#psi4
#
memory 32 gb

molecule  {
0 1
  O        3.0005300    -1.5493530     0.0754490
  N        0.8317470    -1.1153310    -0.4215630
  C        0.1960040     1.9504030    -0.2395030
  C        1.7346196     1.6348257    -0.3545083
  C       -0.7674710     0.7851500    -0.1025020
  C        2.1481850     0.6250380     0.6971500
  C       -0.4596220    -0.5879500    -0.1790540
  C        2.0510250    -0.7686880     0.1361100
  C       -2.1103850     1.1321340     0.1249900
  C       -1.4919760    -1.5397800    -0.0852490
  C       -3.1313420     0.1920050     0.2149350
  C       -2.8150140    -1.1632860     0.1069400
  H       -0.1141940     2.5504580    -1.1051150
  H        0.0480080     2.5950730     0.6372840
  H        1.9308140     1.2745600    -1.3520490
  H        2.2359360     2.5841340    -0.2253410
  H        1.5370720     0.7103830     1.6057590
  H        3.1934550     0.7649280     0.9813470
  H        0.8461440    -2.0798130    -0.7458600
  H       -2.3558010     2.1909910     0.2008090
  H       -1.2325710    -2.5958500    -0.1409630
  H       -4.1571650     0.5114050     0.3790120
  H       -3.5892060    -1.9233590     0.1747080
units angstrom
no_reorient  #important for SAPT in psi4, default
symmetry c1  #important for SAPT in psi4, default
}

set PROPERTIES_ORIGIN ["COM"]
properties('MP2/aug-cc-pvtz', properties = ['dipole'])
--------------------------------------------------------------------------

    Molecular point group: c1
  Charge       = 0
  Multiplicity = 1
  Basis Set: AUG-CC-PVTZ
    Blend: AUG-CC-PVTZ
  Basis Set: (AUG-CC-PVTZ AUX)
    Blend: AUG-CC-PVTZ-JKFIT

    Orbital Energies [Eh]
    ---------------------

    Doubly Occupied:

       1A    -20.525844     2A    -15.596354     3A    -11.357296
       4A    -11.297002     5A    -11.255067     6A    -11.246302
       7A    -11.246229     8A    -11.244744     9A    -11.244289
      10A    -11.242259    11A    -11.241231    12A    -11.239691
      13A     -1.380301    14A     -1.253003    15A     -1.151047
      16A     -1.099255    17A     -1.040181    18A     -1.015668
      19A     -0.952901    20A     -0.882132    21A     -0.842616
      22A     -0.810516    23A     -0.765451    24A     -0.721884
      25A     -0.681571    26A     -0.670251    27A     -0.646603
      28A     -0.628843    29A     -0.608883    30A     -0.603897
      31A     -0.600390    32A     -0.577893    33A     -0.565315
      34A     -0.544315    35A     -0.517499    36A     -0.515764
      37A     -0.498500    38A     -0.490811    39A     -0.476877
      40A     -0.435474    41A     -0.425910    42A     -0.340314
      43A     -0.315878

  @DF-RHF Final Energy:  -514.59239090717449

   => Energetics <=

    Nuclear Repulsion Energy =            674.6215468786500651
    One-Electron Energy =               -2036.8353725940880850
    Two-Electron Energy =                 847.6214348082634160
    Total Energy =                       -514.5923909071744902
  Basis Set: (AUG-CC-PVTZ AUX)
    Blend: AUG-CC-PVTZ-RI
    Molecular point group: c1

    Geometry (in Angstrom), charge = 0, multiplicity = 1:

       Center              X                  Y                   Z               Mass
    ------------   -----------------  -----------------  -----------------  -----------------
         O            2.986760536720    -1.508087654218     0.078254225417    15.994914619570
         N            0.817977536720    -1.074065654218    -0.418757774583    14.003074004430
         C            0.182234536720     1.991668345782    -0.236697774583    12.000000000000
         C            1.720850136720     1.676091045782    -0.351703074583    12.000000000000
         C           -0.781240463280     0.826415345782    -0.099696774583    12.000000000000
         C            2.134415536720     0.666303345782     0.699955225417    12.000000000000
         C           -0.473391463280    -0.546684654218    -0.176248774583    12.000000000000
         C            2.037255536720    -0.727422654218     0.138915225417    12.000000000000
         C           -2.124154463280     1.173399345782     0.127795225417    12.000000000000
         C           -1.505745463280    -1.498514654218    -0.082443774583    12.000000000000
         C           -3.145111463280     0.233270345782     0.217740225417    12.000000000000
         C           -2.828783463280    -1.122020654218     0.109745225417    12.000000000000
         H           -0.127963463280     2.591723345782    -1.102309774583     1.007825032230
         H            0.034238536720     2.636338345782     0.640089225417     1.007825032230
         H            1.917044536720     1.315825345782    -1.349243774583     1.007825032230
         H            2.222166536720     2.625399345782    -0.222535774583     1.007825032230
         H            1.523302536720     0.751648345782     1.608564225417     1.007825032230
         H            3.179685536720     0.806193345782     0.984152225417     1.007825032230
         H            0.832374536720    -2.038547654218    -0.743054774583     1.007825032230
         H           -2.369570463280     2.232256345782     0.203614225417     1.007825032230
         H           -1.246340463280    -2.554584654218    -0.138157774583     1.007825032230
         H           -4.170934463280     0.552670345782     0.381817225417     1.007825032230
         H           -3.602975463280    -1.882093654218     0.177513225417     1.007825032230

  Basis Set: AUG-CC-PVTZ
    Blend: AUG-CC-PVTZ
  Basis Set: (AUG-CC-PVTZ AUX)
    Blend: AUG-CC-PVTZ-JKFIT
	 Reference Energy          =    -514.5923909071744902 [Eh]
	 Singles Energy            =      -0.0000000000000000 [Eh]
	 Same-Spin Energy          =      -0.5577713142228957 [Eh]
	 Opposite-Spin Energy      =      -1.7430714543187600 [Eh]
	 Correlation Energy        =      -2.3008427685416555 [Eh]
	 Total Energy              =    -516.8932336757161465 [Eh]

	 ================> DF-SCS-MP2 Energies <==================
	-----------------------------------------------------------
	 SCS Same-Spin Scale       =       0.3333333333333333 [-]
	 SCS Opposite-Spin Scale   =       1.2000000000000000 [-]
	 SCS Same-Spin Energy      =      -0.1859237714076319 [Eh]
	 SCS Opposite-Spin Energy  =      -2.0916857451825117 [Eh]
	 SCS Correlation Energy    =      -2.2776095165901435 [Eh]
	 SCS Total Energy          =    -516.8700004237646226 [Eh]
	-----------------------------------------------------------

  Dipole Moment: [D]
     X:    -2.7201      Y:     2.0529      Z:     0.0331     Total:     3.4079

*** Psi4 exiting successfully. Buy a developer a beer!
