                               Psi4 1.4a3.dev225

  ==> Input File <==

--------------------------------------------------------------------------
#psi4
#
memory 32 gb

molecule  {
0 1
  O        3.0005300    -1.5493530     0.0754490
  N        0.8317470    -1.1153310    -0.4215630
  C        0.1960040     1.9504030    -0.2395030
  C        1.6857700     1.6448450    -0.3508570
  C       -0.7674710     0.7851500    -0.1025020
  C        2.1481850     0.6250380     0.6971500
  C       -0.4596220    -0.5879500    -0.1790540
  C        2.0510250    -0.7686880     0.1361100
  C       -2.1103850     1.1321340     0.1249900
  C       -1.4919760    -1.5397800    -0.0852490
  C       -3.1313420     0.1920050     0.2149350
  C       -2.8150140    -1.1632860     0.1069400
  H       -0.1283198     2.5777833    -1.1445332
  H        0.0480080     2.5950730     0.6372840
  H        1.9308140     1.2745600    -1.3520490
  H        2.2359360     2.5841340    -0.2253410
  H        1.5370720     0.7103830     1.6057590
  H        3.1934550     0.7649280     0.9813470
  H        0.8461440    -2.0798130    -0.7458600
  H       -2.3558010     2.1909910     0.2008090
  H       -1.2325710    -2.5958500    -0.1409630
  H       -4.1571650     0.5114050     0.3790120
  H       -3.5892060    -1.9233590     0.1747080
units angstrom
no_reorient  #important for SAPT in psi4, default
symmetry c1  #important for SAPT in psi4, default
}

set PROPERTIES_ORIGIN ["COM"]
properties('MP2/aug-cc-pvtz', properties = ['dipole'])
--------------------------------------------------------------------------

    Molecular point group: c1
  Charge       = 0
  Multiplicity = 1
  Basis Set: AUG-CC-PVTZ
    Blend: AUG-CC-PVTZ
  Basis Set: (AUG-CC-PVTZ AUX)
    Blend: AUG-CC-PVTZ-JKFIT

    Orbital Energies [Eh]
    ---------------------

    Doubly Occupied:

       1A    -20.525844     2A    -15.596330     3A    -11.357200
       4A    -11.297580     5A    -11.255554     6A    -11.250879
       7A    -11.246638     8A    -11.245139     9A    -11.244584
      10A    -11.243279    11A    -11.242574    12A    -11.239933
      13A     -1.380276    14A     -1.253211    15A     -1.151531
      16A     -1.101221    17A     -1.038842    18A     -1.016230
      19A     -0.955472    20A     -0.880256    21A     -0.842965
      22A     -0.807689    23A     -0.765204    24A     -0.721894
      25A     -0.681102    26A     -0.670439    27A     -0.646115
      28A     -0.629184    29A     -0.608317    30A     -0.602555
      31A     -0.600172    32A     -0.579193    33A     -0.563947
      34A     -0.542255    35A     -0.517536    36A     -0.510987
      37A     -0.498504    38A     -0.488903    39A     -0.483172
      40A     -0.435440    41A     -0.426075    42A     -0.340337
      43A     -0.316090

  @DF-RHF Final Energy:  -514.59219549723593

   => Energetics <=

    Nuclear Repulsion Energy =            674.8051529495313616
    One-Electron Energy =               -2037.1934009630836044
    Two-Electron Energy =                 847.7960525163161947
    Total Energy =                       -514.5921954972359345
  Basis Set: (AUG-CC-PVTZ AUX)
    Blend: AUG-CC-PVTZ-RI
    Molecular point group: c1

    Geometry (in Angstrom), charge = 0, multiplicity = 1:

       Center              X                  Y                   Z               Mass
    ------------   -----------------  -----------------  -----------------  -----------------
         O            2.990487978902    -1.509005005802     0.078228841458    15.994914619570
         N            0.821704978902    -1.074983005802    -0.418783158542    14.003074004430
         C            0.185961978902     1.990750994198    -0.236723158542    12.000000000000
         C            1.675727978902     1.685192994198    -0.348077158542    12.000000000000
         C           -0.777513021098     0.825497994198    -0.099722158542    12.000000000000
         C            2.138142978902     0.665385994198     0.699929841458    12.000000000000
         C           -0.469664021098    -0.547602005802    -0.176274158542    12.000000000000
         C            2.040982978902    -0.728340005802     0.138889841458    12.000000000000
         C           -2.120427021098     1.172481994198     0.127769841458    12.000000000000
         C           -1.502018021098    -1.499432005802    -0.082469158542    12.000000000000
         C           -3.141384021098     0.232352994198     0.217714841458    12.000000000000
         C           -2.825056021098    -1.122938005802     0.109719841458    12.000000000000
         H           -0.138361821098     2.618131294198    -1.141753358542     1.007825032230
         H            0.037965978902     2.635420994198     0.640063841458     1.007825032230
         H            1.920771978902     1.314907994198    -1.349269158542     1.007825032230
         H            2.225893978902     2.624481994198    -0.222561158542     1.007825032230
         H            1.527029978902     0.750730994198     1.608538841458     1.007825032230
         H            3.183412978902     0.805275994198     0.984126841458     1.007825032230
         H            0.836101978902    -2.039465005802    -0.743080158542     1.007825032230
         H           -2.365843021098     2.231338994198     0.203588841458     1.007825032230
         H           -1.242613021098    -2.555502005802    -0.138183158542     1.007825032230
         H           -4.167207021098     0.551752994198     0.381791841458     1.007825032230
         H           -3.599248021098    -1.883011005802     0.177487841458     1.007825032230

  Basis Set: AUG-CC-PVTZ
    Blend: AUG-CC-PVTZ
  Basis Set: (AUG-CC-PVTZ AUX)
    Blend: AUG-CC-PVTZ-JKFIT
	 Reference Energy          =    -514.5921954972359345 [Eh]
	 Singles Energy            =      -0.0000000000000000 [Eh]
	 Same-Spin Energy          =      -0.5579201524356557 [Eh]
	 Opposite-Spin Energy      =      -1.7434364749722178 [Eh]
	 Correlation Energy        =      -2.3013566274078734 [Eh]
	 Total Energy              =    -516.8935521246438611 [Eh]

	 ================> DF-SCS-MP2 Energies <==================
	-----------------------------------------------------------
	 SCS Same-Spin Scale       =       0.3333333333333333 [-]
	 SCS Opposite-Spin Scale   =       1.2000000000000000 [-]
	 SCS Same-Spin Energy      =      -0.1859733841452186 [Eh]
	 SCS Opposite-Spin Energy  =      -2.0921237699666611 [Eh]
	 SCS Correlation Energy    =      -2.2780971541118795 [Eh]
	 SCS Total Energy          =    -516.8702926513477678 [Eh]
	-----------------------------------------------------------

  Dipole Moment: [D]
     X:    -2.7341      Y:     2.0367      Z:     0.0516     Total:     3.4097

*** Psi4 exiting successfully. Buy a developer a beer!
