                               Psi4 1.4a3.dev225

  ==> Input File <==

--------------------------------------------------------------------------
#psi4
#
memory 32 gb

molecule  {
0 1
  O        3.0005300    -1.5493530     0.0754490
  N        0.8317470    -1.1153310    -0.4215630
  C        0.1960040     1.9504030    -0.2395030
  C        1.6857700     1.6448450    -0.3508570
  C       -0.7674710     0.7851500    -0.1025020
  C        2.1481850     0.6250380     0.6971500
  C       -0.4596220    -0.5879500    -0.1790540
  C        2.0510250    -0.7686880     0.1361100
  C       -2.1103850     1.1321340     0.1249900
  C       -1.5066473    -1.5533069    -0.0839159
  C       -3.1313420     0.1920050     0.2149350
  C       -2.8150140    -1.1632860     0.1069400
  H       -0.1141940     2.5504580    -1.1051150
  H        0.0480080     2.5950730     0.6372840
  H        1.9308140     1.2745600    -1.3520490
  H        2.2359360     2.5841340    -0.2253410
  H        1.5370720     0.7103830     1.6057590
  H        3.1934550     0.7649280     0.9813470
  H        0.8461440    -2.0798130    -0.7458600
  H       -2.3558010     2.1909910     0.2008090
  H       -1.2325710    -2.5958500    -0.1409630
  H       -4.1571650     0.5114050     0.3790120
  H       -3.5892060    -1.9233590     0.1747080
units angstrom
no_reorient  #important for SAPT in psi4, default
symmetry c1  #important for SAPT in psi4, default
}

set PROPERTIES_ORIGIN ["COM"]
properties('MP2/aug-cc-pvtz', properties = ['dipole'])
--------------------------------------------------------------------------

    Molecular point group: c1
  Charge       = 0
  Multiplicity = 1
  Basis Set: AUG-CC-PVTZ
    Blend: AUG-CC-PVTZ
  Basis Set: (AUG-CC-PVTZ AUX)
    Blend: AUG-CC-PVTZ-JKFIT

    Orbital Energies [Eh]
    ---------------------

    Doubly Occupied:

       1A    -20.525897     2A    -15.596683     3A    -11.357224
       4A    -11.299245     5A    -11.254748     6A    -11.245760
       7A    -11.245287     8A    -11.244918     9A    -11.244411
      10A    -11.242929    11A    -11.242165    12A    -11.239655
      13A     -1.380301    14A     -1.252526    15A     -1.151222
      16A     -1.101767    17A     -1.039792    18A     -1.014598
      19A     -0.956952    20A     -0.880676    21A     -0.843545
      22A     -0.808565    23A     -0.765011    24A     -0.721511
      25A     -0.681694    26A     -0.672663    27A     -0.645419
      28A     -0.629068    29A     -0.611280    30A     -0.603253
      31A     -0.600492    32A     -0.578930    33A     -0.565219
      34A     -0.541528    35A     -0.519297    36A     -0.510560
      37A     -0.498196    38A     -0.491321    39A     -0.482075
      40A     -0.435522    41A     -0.426131    42A     -0.341878
      43A     -0.314359

  @DF-RHF Final Energy:  -514.59388572144019

   => Energetics <=

    Nuclear Repulsion Energy =            674.7436028759829014
    One-Electron Energy =               -2037.0664235608292074
    Two-Electron Energy =                 847.7289349634060045
    Total Energy =                       -514.5938857214401878
  Basis Set: (AUG-CC-PVTZ AUX)
    Blend: AUG-CC-PVTZ-RI
    Molecular point group: c1

    Geometry (in Angstrom), charge = 0, multiplicity = 1:

       Center              X                  Y                   Z               Mass
    ------------   -----------------  -----------------  -----------------  -----------------
         O            2.991492542986    -1.507826354627     0.077882911220    15.994914619570
         N            0.822709542986    -1.073804354627    -0.419129088780    14.003074004430
         C            0.186966542986     1.991929645373    -0.237069088780    12.000000000000
         C            1.676732542986     1.686371645373    -0.348423088780    12.000000000000
         C           -0.776508457014     0.826676645373    -0.100068088780    12.000000000000
         C            2.139147542986     0.666564645373     0.699583911220    12.000000000000
         C           -0.468659457014    -0.546423354627    -0.176620088780    12.000000000000
         C            2.041987542986    -0.727161354627     0.138543911220    12.000000000000
         C           -2.119422457014     1.173660645373     0.127423911220    12.000000000000
         C           -1.515684757014    -1.511780254627    -0.081481988780    12.000000000000
         C           -3.140379457014     0.233531645373     0.217368911220    12.000000000000
         C           -2.824051457014    -1.121759354627     0.109373911220    12.000000000000
         H           -0.123231457014     2.591984645373    -1.102681088780     1.007825032230
         H            0.038970542986     2.636599645373     0.639717911220     1.007825032230
         H            1.921776542986     1.316086645373    -1.349615088780     1.007825032230
         H            2.226898542986     2.625660645373    -0.222907088780     1.007825032230
         H            1.528034542986     0.751909645373     1.608192911220     1.007825032230
         H            3.184417542986     0.806454645373     0.983780911220     1.007825032230
         H            0.837106542986    -2.038286354627    -0.743426088780     1.007825032230
         H           -2.364838457014     2.232517645373     0.203242911220     1.007825032230
         H           -1.241608457014    -2.554323354627    -0.138529088780     1.007825032230
         H           -4.166202457014     0.552931645373     0.381445911220     1.007825032230
         H           -3.598243457014    -1.881832354627     0.177141911220     1.007825032230

  Basis Set: AUG-CC-PVTZ
    Blend: AUG-CC-PVTZ
  Basis Set: (AUG-CC-PVTZ AUX)
    Blend: AUG-CC-PVTZ-JKFIT
	 Reference Energy          =    -514.5938857214401878 [Eh]
	 Singles Energy            =      -0.0000000000000000 [Eh]
	 Same-Spin Energy          =      -0.5578005677242041 [Eh]
	 Opposite-Spin Energy      =      -1.7430381220469817 [Eh]
	 Correlation Energy        =      -2.3008386897711857 [Eh]
	 Total Energy              =    -516.8947244112114277 [Eh]

	 ================> DF-SCS-MP2 Energies <==================
	-----------------------------------------------------------
	 SCS Same-Spin Scale       =       0.3333333333333333 [-]
	 SCS Opposite-Spin Scale   =       1.2000000000000000 [-]
	 SCS Same-Spin Energy      =      -0.1859335225747347 [Eh]
	 SCS Opposite-Spin Energy  =      -2.0916457464563778 [Eh]
	 SCS Correlation Energy    =      -2.2775792690311123 [Eh]
	 SCS Total Energy          =    -516.8714649904712815 [Eh]
	-----------------------------------------------------------

  Dipole Moment: [D]
     X:    -2.7188      Y:     2.0528      Z:     0.0324     Total:     3.4069

*** Psi4 exiting successfully. Buy a developer a beer!
