                               Psi4 1.3.2 release

  ==> Input File <==

--------------------------------------------------------------------------
#psi4
#
memory 32 gb

molecule  {
0 1
  O        3.0005300    -1.5493530     0.0754490
  N        0.8317470    -1.1153310    -0.4215630
  C        0.1960040     1.9504030    -0.2395030
  C        1.6857700     1.6448450    -0.3508570
  C       -0.8943961     0.6316433    -0.0844539
  C        2.1481850     0.6250380     0.6971500
  C       -0.4596220    -0.5879500    -0.1790540
  C        2.0510250    -0.7686880     0.1361100
  C       -2.1103850     1.1321340     0.1249900
  C       -1.4919760    -1.5397800    -0.0852490
  C       -3.1313420     0.1920050     0.2149350
  C       -2.8150140    -1.1632860     0.1069400
  H       -0.1141940     2.5504580    -1.1051150
  H        0.0480080     2.5950730     0.6372840
  H        1.9308140     1.2745600    -1.3520490
  H        2.2359360     2.5841340    -0.2253410
  H        1.5370720     0.7103830     1.6057590
  H        3.1934550     0.7649280     0.9813470
  H        0.8461440    -2.0798130    -0.7458600
  H       -2.3558010     2.1909910     0.2008090
  H       -1.2325710    -2.5958500    -0.1409630
  H       -4.1571650     0.5114050     0.3790120
  H       -3.5892060    -1.9233590     0.1747080
units angstrom
no_reorient  #important for SAPT in psi4, default
symmetry c1  #important for SAPT in psi4, default
}

set PROPERTIES_ORIGIN ["COM"]
properties('MP2/aug-cc-pvtz', properties = ['dipole'])
--------------------------------------------------------------------------

    Molecular point group: c1
  Charge       = 0
  Multiplicity = 1
  Basis Set: AUG-CC-PVTZ
    Blend: AUG-CC-PVTZ
  Basis Set: (AUG-CC-PVTZ AUX)
    Blend: AUG-CC-PVTZ-JKFIT

    Orbital Energies [Eh]
    ---------------------

    Doubly Occupied:

       1A    -20.526225     2A    -15.599575     3A    -11.357427
       4A    -11.285249     5A    -11.247074     6A    -11.246422
       7A    -11.244894     8A    -11.244043     9A    -11.241432
      10A    -11.241073    11A    -11.238959    12A    -11.238896
      13A     -1.380703    14A     -1.257641    15A     -1.168893
      16A     -1.090293    17A     -1.036893    18A     -1.027366
      19A     -0.957401    20A     -0.868859    21A     -0.855422
      22A     -0.809435    23A     -0.767405    24A     -0.729261
      25A     -0.681330    26A     -0.671910    27A     -0.642785
      28A     -0.638171    29A     -0.612261    30A     -0.603245
      31A     -0.596343    32A     -0.573644    33A     -0.564091
      34A     -0.544972    35A     -0.528395    36A     -0.512217
      37A     -0.498305    38A     -0.490490    39A     -0.442427
      40A     -0.428335    41A     -0.426283    42A     -0.351081
      43A     -0.325838

  @DF-RHF Final Energy:  -514.55542450311179

   => Energetics <=

    Nuclear Repulsion Energy =            676.2399386957964680
    One-Electron Energy =               -2040.0047929636878052
    Two-Electron Energy =                 849.2094297647794292
    Total Energy =                       -514.5554245031117944
  Basis Set: (AUG-CC-PVTZ AUX)
    Blend: AUG-CC-PVTZ-RI
    Molecular point group: c1

    Geometry (in Angstrom), charge = 0, multiplicity = 1:

       Center              X                  Y                   Z               Mass
    ------------   -----------------  -----------------  -----------------  -----------------
         O            2.999854919541    -1.497398522360     0.076637722869    15.994914619570
         N            0.831071919541    -1.063376522360    -0.420374277131    14.003074004430
         C            0.195328919541     2.002357477640    -0.238314277131    12.000000000000
         C            1.685094919541     1.696799477640    -0.349668277131    12.000000000000
         C           -0.895071180459     0.683597777640    -0.083265177131    12.000000000000
         C            2.147509919541     0.676992477640     0.698338722869    12.000000000000
         C           -0.460297080459    -0.535995522360    -0.177865277131    12.000000000000
         C            2.050349919541    -0.716733522360     0.137298722869    12.000000000000
         C           -2.111060080459     1.184088477640     0.126178722869    12.000000000000
         C           -1.492651080459    -1.487825522360    -0.084060277131    12.000000000000
         C           -3.132017080459     0.243959477640     0.216123722869    12.000000000000
         C           -2.815689080459    -1.111331522360     0.108128722869    12.000000000000
         H           -0.114869080459     2.602412477640    -1.103926277131     1.007825032230
         H            0.047332919541     2.647027477640     0.638472722869     1.007825032230
         H            1.930138919541     1.326514477640    -1.350860277131     1.007825032230
         H            2.235260919541     2.636088477640    -0.224152277131     1.007825032230
         H            1.536396919541     0.762337477640     1.606947722869     1.007825032230
         H            3.192779919541     0.816882477640     0.982535722869     1.007825032230
         H            0.845468919541    -2.027858522360    -0.744671277131     1.007825032230
         H           -2.356476080459     2.242945477640     0.201997722869     1.007825032230
         H           -1.233246080459    -2.543895522360    -0.139774277131     1.007825032230
         H           -4.157840080459     0.563359477640     0.380200722869     1.007825032230
         H           -3.589881080459    -1.871404522360     0.175896722869     1.007825032230

  Basis Set: AUG-CC-PVTZ
    Blend: AUG-CC-PVTZ
  Basis Set: (AUG-CC-PVTZ AUX)
    Blend: AUG-CC-PVTZ-JKFIT
	 Reference Energy          =    -514.5554245031117944 [Eh]
	 Singles Energy            =      -0.0000000000000000 [Eh]
	 Same-Spin Energy          =      -0.5578632942702850 [Eh]
	 Opposite-Spin Energy      =      -1.7434661568833747 [Eh]
	 Correlation Energy        =      -2.3013294511536597 [Eh]
	 Total Energy              =    -516.8567539542654004 [Eh]

	 ================> DF-SCS-MP2 Energies <==================
	-----------------------------------------------------------
	 SCS Same-Spin Scale       =       0.3333333333333333 [-]
	 SCS Opposite-Spin Scale   =       1.2000000000000000 [-]
	 SCS Same-Spin Energy      =      -0.1859544314234283 [Eh]
	 SCS Opposite-Spin Energy  =      -2.0921593882600495 [Eh]
	 SCS Correlation Energy    =      -2.2781138196834778 [Eh]
	 SCS Total Energy          =    -516.8335383227952207 [Eh]
	-----------------------------------------------------------

  Dipole Moment: [D]
     X:    -2.8906      Y:     1.9366      Z:     0.0699     Total:     3.4800

*** Psi4 exiting successfully. Buy a developer a beer!
