                               Psi4 1.3.2 release

  ==> Input File <==

--------------------------------------------------------------------------
#psi4
#
memory 32 gb

molecule  {
0 1
  O        3.0005300    -1.5493530     0.0754490
  N        0.8317470    -1.1153310    -0.4215630
  C        0.2354496     1.9157440    -0.2466387
  C        1.6857700     1.6448450    -0.3508570
  C       -0.7674710     0.7851500    -0.1025020
  C        2.1481850     0.6250380     0.6971500
  C       -0.4596220    -0.5879500    -0.1790540
  C        2.0510250    -0.7686880     0.1361100
  C       -2.1103850     1.1321340     0.1249900
  C       -1.4919760    -1.5397800    -0.0852490
  C       -3.1313420     0.1920050     0.2149350
  C       -2.8150140    -1.1632860     0.1069400
  H       -0.1141940     2.5504580    -1.1051150
  H        0.0480080     2.5950730     0.6372840
  H        1.9308140     1.2745600    -1.3520490
  H        2.2359360     2.5841340    -0.2253410
  H        1.5370720     0.7103830     1.6057590
  H        3.1934550     0.7649280     0.9813470
  H        0.8461440    -2.0798130    -0.7458600
  H       -2.3558010     2.1909910     0.2008090
  H       -1.2325710    -2.5958500    -0.1409630
  H       -4.1571650     0.5114050     0.3790120
  H       -3.5892060    -1.9233590     0.1747080
units angstrom
no_reorient  #important for SAPT in psi4, default
symmetry c1  #important for SAPT in psi4, default
}

set PROPERTIES_ORIGIN ["COM"]
properties('MP2/aug-cc-pvtz', properties = ['dipole'])
--------------------------------------------------------------------------

    Molecular point group: c1
  Charge       = 0
  Multiplicity = 1
  Basis Set: AUG-CC-PVTZ
    Blend: AUG-CC-PVTZ
  Basis Set: (AUG-CC-PVTZ AUX)
    Blend: AUG-CC-PVTZ-JKFIT

    Orbital Energies [Eh]
    ---------------------

    Doubly Occupied:

       1A    -20.525904     2A    -15.596396     3A    -11.357327
       4A    -11.296360     5A    -11.256299     6A    -11.248052
       7A    -11.246322     8A    -11.245818     9A    -11.244310
      10A    -11.243047    11A    -11.241107    12A    -11.240395
      13A     -1.380363    14A     -1.253416    15A     -1.151675
      16A     -1.107447    17A     -1.038742    18A     -1.016704
      19A     -0.959058    20A     -0.880831    21A     -0.843297
      22A     -0.806869    23A     -0.765788    24A     -0.721819
      25A     -0.682721    26A     -0.671055    27A     -0.647480
      28A     -0.629184    29A     -0.612903    30A     -0.603109
      31A     -0.599947    32A     -0.578615    33A     -0.563762
      34A     -0.542761    35A     -0.518402    36A     -0.510999
      37A     -0.502874    38A     -0.486925    39A     -0.482397
      40A     -0.435452    41A     -0.426206    42A     -0.339754
      43A     -0.315587

  @DF-RHF Final Energy:  -514.59068472567026

   => Energetics <=

    Nuclear Repulsion Energy =            675.7224881911428156
    One-Electron Energy =               -2038.9913952263573265
    Two-Electron Energy =                 848.6782223095441395
    Total Energy =                       -514.5906847256702576
  Basis Set: (AUG-CC-PVTZ AUX)
    Blend: AUG-CC-PVTZ-RI
    Molecular point group: c1

    Geometry (in Angstrom), charge = 0, multiplicity = 1:

       Center              X                  Y                   Z               Mass
    ------------   -----------------  -----------------  -----------------  -----------------
         O            2.987461090190    -1.506252113242     0.078513796718    15.994914619570
         N            0.818678090190    -1.072230113242    -0.418498203282    14.003074004430
         C            0.222380690190     1.958844886758    -0.243573903282    12.000000000000
         C            1.672701090190     1.687945886758    -0.347792203282    12.000000000000
         C           -0.780539909810     0.828250886758    -0.099437203282    12.000000000000
         C            2.135116090190     0.668138886758     0.700214796718    12.000000000000
         C           -0.472690909810    -0.544849113242    -0.175989203282    12.000000000000
         C            2.037956090190    -0.725587113242     0.139174796718    12.000000000000
         C           -2.123453909810     1.175234886758     0.128054796718    12.000000000000
         C           -1.505044909810    -1.496679113242    -0.082184203282    12.000000000000
         C           -3.144410909810     0.235105886758     0.217999796718    12.000000000000
         C           -2.828082909810    -1.120185113242     0.110004796718    12.000000000000
         H           -0.127262909810     2.593558886758    -1.102050203282     1.007825032230
         H            0.034939090190     2.638173886758     0.640348796718     1.007825032230
         H            1.917745090190     1.317660886758    -1.348984203282     1.007825032230
         H            2.222867090190     2.627234886758    -0.222276203282     1.007825032230
         H            1.524003090190     0.753483886758     1.608823796718     1.007825032230
         H            3.180386090190     0.808028886758     0.984411796718     1.007825032230
         H            0.833075090190    -2.036712113242    -0.742795203282     1.007825032230
         H           -2.368869909810     2.234091886758     0.203873796718     1.007825032230
         H           -1.245639909810    -2.552749113242    -0.137898203282     1.007825032230
         H           -4.170233909810     0.554505886758     0.382076796718     1.007825032230
         H           -3.602274909810    -1.880258113242     0.177772796718     1.007825032230

  Basis Set: AUG-CC-PVTZ
    Blend: AUG-CC-PVTZ
  Basis Set: (AUG-CC-PVTZ AUX)
    Blend: AUG-CC-PVTZ-JKFIT
	 Reference Energy          =    -514.5906847256702576 [Eh]
	 Singles Energy            =      -0.0000000000000000 [Eh]
	 Same-Spin Energy          =      -0.5583569555301136 [Eh]
	 Opposite-Spin Energy      =      -1.7436243354114791 [Eh]
	 Correlation Energy        =      -2.3019812909415927 [Eh]
	 Total Energy              =    -516.8926660166118836 [Eh]

	 ================> DF-SCS-MP2 Energies <==================
	-----------------------------------------------------------
	 SCS Same-Spin Scale       =       0.3333333333333333 [-]
	 SCS Opposite-Spin Scale   =       1.2000000000000000 [-]
	 SCS Same-Spin Energy      =      -0.1861189851767045 [Eh]
	 SCS Opposite-Spin Energy  =      -2.0923492024937747 [Eh]
	 SCS Correlation Energy    =      -2.2784681876704793 [Eh]
	 SCS Total Energy          =    -516.8691529133407130 [Eh]
	-----------------------------------------------------------

  Dipole Moment: [D]
     X:    -2.7073      Y:     2.0536      Z:     0.0274     Total:     3.3982

*** Psi4 exiting successfully. Buy a developer a beer!
