                               Psi4 1.3.2 release

  ==> Input File <==

--------------------------------------------------------------------------
#psi4
#
memory 32 gb

molecule  {
0 1
  O        3.0005300    -1.5493530     0.0754490
  N        0.8317470    -1.1153310    -0.4215630
  C        0.1960040     1.9504030    -0.2395030
  C        1.6857700     1.6448450    -0.3508570
  C       -0.7674710     0.7851500    -0.1025020
  C        2.1481850     0.6250380     0.6971500
  C       -0.4596220    -0.5879500    -0.1790540
  C        2.0510250    -0.7686880     0.1361100
  C       -2.2059287     1.1568207     0.1411753
  C       -1.4919760    -1.5397800    -0.0852490
  C       -3.1313420     0.1920050     0.2149350
  C       -2.8150140    -1.1632860     0.1069400
  H       -0.1141940     2.5504580    -1.1051150
  H        0.0480080     2.5950730     0.6372840
  H        1.9308140     1.2745600    -1.3520490
  H        2.2359360     2.5841340    -0.2253410
  H        1.5370720     0.7103830     1.6057590
  H        3.1934550     0.7649280     0.9813470
  H        0.8461440    -2.0798130    -0.7458600
  H       -2.3558010     2.1909910     0.2008090
  H       -1.2325710    -2.5958500    -0.1409630
  H       -4.1571650     0.5114050     0.3790120
  H       -3.5892060    -1.9233590     0.1747080
units angstrom
no_reorient  #important for SAPT in psi4, default
symmetry c1  #important for SAPT in psi4, default
}

set PROPERTIES_ORIGIN ["COM"]
properties('MP2/aug-cc-pvtz', properties = ['dipole'])
--------------------------------------------------------------------------

    Molecular point group: c1
  Charge       = 0
  Multiplicity = 1
  Basis Set: AUG-CC-PVTZ
    Blend: AUG-CC-PVTZ
  Basis Set: (AUG-CC-PVTZ AUX)
    Blend: AUG-CC-PVTZ-JKFIT

    Orbital Energies [Eh]
    ---------------------

    Doubly Occupied:

       1A    -20.524901     2A    -15.595189     3A    -11.356370
       4A    -11.295180     5A    -11.262679     6A    -11.247742
       7A    -11.246416     8A    -11.245536     9A    -11.245212
      10A    -11.242605    11A    -11.241999    12A    -11.235673
      13A     -1.379398    14A     -1.251709    15A     -1.147849
      16A     -1.100935    17A     -1.034280    18A     -1.022740
      19A     -0.954229    20A     -0.882826    21A     -0.843543
      22A     -0.805660    23A     -0.763064    24A     -0.724991
      25A     -0.680818    26A     -0.670865    27A     -0.650979
      28A     -0.627747    29A     -0.611334    30A     -0.606526
      31A     -0.601132    32A     -0.577319    33A     -0.563710
      34A     -0.543212    35A     -0.517900    36A     -0.509213
      37A     -0.495351    38A     -0.492500    39A     -0.477594
      40A     -0.437481    41A     -0.425220    42A     -0.337856
      43A     -0.316227

  @DF-RHF Final Energy:  -514.58352049557550

   => Energetics <=

    Nuclear Repulsion Energy =            673.5964771323882587
    One-Electron Energy =               -2034.7725727964059388
    Two-Electron Energy =                 846.5925751684422949
    Total Energy =                       -514.5835204955754989
  Basis Set: (AUG-CC-PVTZ AUX)
    Blend: AUG-CC-PVTZ-RI
    Molecular point group: c1

    Geometry (in Angstrom), charge = 0, multiplicity = 1:

       Center              X                  Y                   Z               Mass
    ------------   -----------------  -----------------  -----------------  -----------------
         O            2.997517153838    -1.510673086878     0.076776492648    15.994914619570
         N            0.828734153838    -1.076651086878    -0.420235507352    14.003074004430
         C            0.192991153838     1.989082913122    -0.238175507352    12.000000000000
         C            1.682757153838     1.683524913122    -0.349529507352    12.000000000000
         C           -0.770483846162     0.823829913122    -0.101174507352    12.000000000000
         C            2.145172153838     0.663717913122     0.698477492648    12.000000000000
         C           -0.462634846162    -0.549270086878    -0.177726507352    12.000000000000
         C            2.048012153838    -0.730008086878     0.137437492648    12.000000000000
         C           -2.208941546162     1.195500613122     0.142502792648    12.000000000000
         C           -1.494988846162    -1.501100086878    -0.083921507352    12.000000000000
         C           -3.134354846162     0.230684913122     0.216262492648    12.000000000000
         C           -2.818026846162    -1.124606086878     0.108267492648    12.000000000000
         H           -0.117206846162     2.589137913122    -1.103787507352     1.007825032230
         H            0.044995153838     2.633752913122     0.638611492648     1.007825032230
         H            1.927801153838     1.313239913122    -1.350721507352     1.007825032230
         H            2.232923153838     2.622813913122    -0.224013507352     1.007825032230
         H            1.534059153838     0.749062913122     1.607086492648     1.007825032230
         H            3.190442153838     0.803607913122     0.982674492648     1.007825032230
         H            0.843131153838    -2.041133086878    -0.744532507352     1.007825032230
         H           -2.358813846162     2.229670913122     0.202136492648     1.007825032230
         H           -1.235583846162    -2.557170086878    -0.139635507352     1.007825032230
         H           -4.160177846162     0.550084913122     0.380339492648     1.007825032230
         H           -3.592218846162    -1.884679086878     0.176035492648     1.007825032230

  Basis Set: AUG-CC-PVTZ
    Blend: AUG-CC-PVTZ
  Basis Set: (AUG-CC-PVTZ AUX)
    Blend: AUG-CC-PVTZ-JKFIT
	 Reference Energy          =    -514.5835204955754989 [Eh]
	 Singles Energy            =      -0.0000000000000000 [Eh]
	 Same-Spin Energy          =      -0.5573841978873442 [Eh]
	 Opposite-Spin Energy      =      -1.7434019802247609 [Eh]
	 Correlation Energy        =      -2.3007861781121051 [Eh]
	 Total Energy              =    -516.8843066736876608 [Eh]

	 ================> DF-SCS-MP2 Energies <==================
	-----------------------------------------------------------
	 SCS Same-Spin Scale       =       0.3333333333333333 [-]
	 SCS Opposite-Spin Scale   =       1.2000000000000000 [-]
	 SCS Same-Spin Energy      =      -0.1857947326291147 [Eh]
	 SCS Opposite-Spin Energy  =      -2.0920823762697132 [Eh]
	 SCS Correlation Energy    =      -2.2778771088988279 [Eh]
	 SCS Total Energy          =    -516.8613976044742913 [Eh]
	-----------------------------------------------------------

  Dipole Moment: [D]
     X:    -2.7621      Y:     2.0931      Z:     0.0342     Total:     3.4658

*** Psi4 exiting successfully. Buy a developer a beer!
