                               Psi4 1.4a3.dev225

  ==> Input File <==

--------------------------------------------------------------------------
#psi4
#
memory 32 gb

molecule  {
0 1
  O        3.0005300    -1.5493530     0.0754490
  N        0.8317470    -1.1153310    -0.4215630
  C        0.1960040     1.9504030    -0.2395030
  C        1.6857700     1.6448450    -0.3508570
  C       -0.7674710     0.7851500    -0.1025020
  C        2.1481850     0.6250380     0.6971500
  C       -0.4596220    -0.5879500    -0.1790540
  C        2.0510250    -0.7686880     0.1361100
  C       -2.1103850     1.1321340     0.1249900
  C       -1.4919760    -1.5397800    -0.0852490
  C       -3.1313420     0.1920050     0.2149350
  C       -2.8150140    -1.1632860     0.1069400
  H       -0.1141940     2.5504580    -1.1051150
  H        0.0480080     2.5950730     0.6372840
  H        1.9308140     1.2745600    -1.3520490
  H        2.2359360     2.5841340    -0.2253410
  H        1.5370720     0.7103830     1.6057590
  H        3.1934550     0.7649280     0.9813470
  H        0.8454366    -2.0324251    -0.7299263
  H       -2.3558010     2.1909910     0.2008090
  H       -1.2325710    -2.5958500    -0.1409630
  H       -4.1571650     0.5114050     0.3790120
  H       -3.5892060    -1.9233590     0.1747080
units angstrom
no_reorient  #important for SAPT in psi4, default
symmetry c1  #important for SAPT in psi4, default
}

set PROPERTIES_ORIGIN ["COM"]
properties('MP2/aug-cc-pvtz', properties = ['dipole'])
--------------------------------------------------------------------------

    Molecular point group: c1
  Charge       = 0
  Multiplicity = 1
  Basis Set: AUG-CC-PVTZ
    Blend: AUG-CC-PVTZ
  Basis Set: (AUG-CC-PVTZ AUX)
    Blend: AUG-CC-PVTZ-JKFIT

    Orbital Energies [Eh]
    ---------------------

    Doubly Occupied:

       1A    -20.526134     2A    -15.591588     3A    -11.357220
       4A    -11.297393     5A    -11.255345     6A    -11.246651
       7A    -11.245166     8A    -11.245098     9A    -11.244691
      10A    -11.242899    11A    -11.242249    12A    -11.240062
      13A     -1.381272    14A     -1.257844    15A     -1.152833
      16A     -1.102305    17A     -1.039080    18A     -1.016852
      19A     -0.958730    20A     -0.881048    21A     -0.844329
      22A     -0.809276    23A     -0.771151    24A     -0.725464
      25A     -0.682807    26A     -0.671562    27A     -0.647035
      28A     -0.629646    29A     -0.611849    30A     -0.603398
      31A     -0.601675    32A     -0.580117    33A     -0.565907
      34A     -0.542371    35A     -0.517856    36A     -0.511015
      37A     -0.498376    38A     -0.492323    39A     -0.482993
      40A     -0.436001    41A     -0.426188    42A     -0.340711
      43A     -0.316473

  @DF-RHF Final Energy:  -514.59420956301358

   => Energetics <=

    Nuclear Repulsion Energy =            675.3984967140087292
    One-Electron Energy =               -2038.3194420992526830
    Two-Electron Energy =                 848.3267358222304892
    Total Energy =                       -514.5942095630135782
  Basis Set: (AUG-CC-PVTZ AUX)
    Blend: AUG-CC-PVTZ-RI
    Molecular point group: c1

    Geometry (in Angstrom), charge = 0, multiplicity = 1:

       Center              X                  Y                   Z               Mass
    ------------   -----------------  -----------------  -----------------  -----------------
         O            2.990404026467    -1.509130527781     0.077882531407    15.994914619570
         N            0.821621026467    -1.075108527781    -0.419129468593    14.003074004430
         C            0.185878026467     1.990625472219    -0.237069468593    12.000000000000
         C            1.675644026467     1.685067472219    -0.348423468593    12.000000000000
         C           -0.777596973533     0.825372472219    -0.100068468593    12.000000000000
         C            2.138059026467     0.665260472219     0.699583531407    12.000000000000
         C           -0.469747973533    -0.547727527781    -0.176620468593    12.000000000000
         C            2.040899026467    -0.728465527781     0.138543531407    12.000000000000
         C           -2.120510973533     1.172356472219     0.127423531407    12.000000000000
         C           -1.502101973533    -1.499557527781    -0.082815468593    12.000000000000
         C           -3.141467973533     0.232227472219     0.217368531407    12.000000000000
         C           -2.825139973533    -1.123063527781     0.109373531407    12.000000000000
         H           -0.124319973533     2.590680472219    -1.102681468593     1.007825032230
         H            0.037882026467     2.635295472219     0.639717531407     1.007825032230
         H            1.920688026467     1.314782472219    -1.349615468593     1.007825032230
         H            2.225810026467     2.624356472219    -0.222907468593     1.007825032230
         H            1.526946026467     0.750605472219     1.608192531407     1.007825032230
         H            3.183329026467     0.805150472219     0.983780531407     1.007825032230
         H            0.835310626467    -1.992202627781    -0.727492768593     1.007825032230
         H           -2.365926973533     2.231213472219     0.203242531407     1.007825032230
         H           -1.242696973533    -2.555627527781    -0.138529468593     1.007825032230
         H           -4.167290973533     0.551627472219     0.381445531407     1.007825032230
         H           -3.599331973533    -1.883136527781     0.177141531407     1.007825032230

  Basis Set: AUG-CC-PVTZ
    Blend: AUG-CC-PVTZ
  Basis Set: (AUG-CC-PVTZ AUX)
    Blend: AUG-CC-PVTZ-JKFIT
	 Reference Energy          =    -514.5942095630135782 [Eh]
	 Singles Energy            =      -0.0000000000000000 [Eh]
	 Same-Spin Energy          =      -0.5574224833986412 [Eh]
	 Opposite-Spin Energy      =      -1.7420811285582105 [Eh]
	 Correlation Energy        =      -2.2995036119568519 [Eh]
	 Total Energy              =    -516.8937131749704577 [Eh]

	 ================> DF-SCS-MP2 Energies <==================
	-----------------------------------------------------------
	 SCS Same-Spin Scale       =       0.3333333333333333 [-]
	 SCS Opposite-Spin Scale   =       1.2000000000000000 [-]
	 SCS Same-Spin Energy      =      -0.1858074944662137 [Eh]
	 SCS Opposite-Spin Energy  =      -2.0904973542698526 [Eh]
	 SCS Correlation Energy    =      -2.2763048487360664 [Eh]
	 SCS Total Energy          =    -516.8705144117496957 [Eh]
	-----------------------------------------------------------

  Dipole Moment: [D]
     X:    -2.7449      Y:     2.0987      Z:     0.0501     Total:     3.4557

*** Psi4 exiting successfully. Buy a developer a beer!
