                               Psi4 1.4a3.dev225

  ==> Input File <==

--------------------------------------------------------------------------
#psi4
#
memory 32 gb

molecule  {
0 1
  O        3.0005300    -1.5493530     0.0754490
  N        0.8317470    -1.1153310    -0.4215630
  C        0.1960040     1.9504030    -0.2395030
  C        1.6857700     1.6448450    -0.3508570
  C       -0.7674710     0.7851500    -0.1025020
  C        2.1481850     0.6250380     0.6971500
  C       -0.4596220    -0.5879500    -0.1790540
  C        2.0510250    -0.7686880     0.1361100
  C       -2.1103850     1.1321340     0.1249900
  C       -1.5286542    -1.5735972    -0.0819162
  C       -3.1313420     0.1920050     0.2149350
  C       -2.8150140    -1.1632860     0.1069400
  H       -0.1141940     2.5504580    -1.1051150
  H        0.0480080     2.5950730     0.6372840
  H        1.9308140     1.2745600    -1.3520490
  H        2.2359360     2.5841340    -0.2253410
  H        1.5370720     0.7103830     1.6057590
  H        3.1934550     0.7649280     0.9813470
  H        0.8461440    -2.0798130    -0.7458600
  H       -2.3558010     2.1909910     0.2008090
  H       -1.2325710    -2.5958500    -0.1409630
  H       -4.1571650     0.5114050     0.3790120
  H       -3.5892060    -1.9233590     0.1747080
units angstrom
no_reorient  #important for SAPT in psi4, default
symmetry c1  #important for SAPT in psi4, default
}

set PROPERTIES_ORIGIN ["COM"]
properties('MP2/aug-cc-pvtz', properties = ['dipole'])
--------------------------------------------------------------------------

    Molecular point group: c1
  Charge       = 0
  Multiplicity = 1
  Basis Set: AUG-CC-PVTZ
    Blend: AUG-CC-PVTZ
  Basis Set: (AUG-CC-PVTZ AUX)
    Blend: AUG-CC-PVTZ-JKFIT

    Orbital Energies [Eh]
    ---------------------

    Doubly Occupied:

       1A    -20.526269     2A    -15.597476     3A    -11.357573
       4A    -11.301868     5A    -11.254055     6A    -11.245688
       7A    -11.245580     8A    -11.244830     9A    -11.243430
      10A    -11.242980    11A    -11.242168    12A    -11.239358
      13A     -1.380628    14A     -1.251869    15A     -1.150843
      16A     -1.101746    17A     -1.041171    18A     -1.012563
      19A     -0.956531    20A     -0.881023    21A     -0.844511
      22A     -0.808275    23A     -0.764215    24A     -0.721030
      25A     -0.681746    26A     -0.675393    27A     -0.644560
      28A     -0.629494    29A     -0.611196    30A     -0.603367
      31A     -0.599720    32A     -0.578757    33A     -0.566160
      34A     -0.540722    35A     -0.521405    36A     -0.510209
      37A     -0.498109    38A     -0.490502    39A     -0.480653
      40A     -0.435776    41A     -0.426404    42A     -0.344073
      43A     -0.311919

  @DF-RHF Final Energy:  -514.59145433117305

   => Energetics <=

    Nuclear Repulsion Energy =            674.2741224085276599
    One-Electron Energy =               -2036.1194583598037298
    Two-Electron Energy =                 847.2538816201029022
    Total Energy =                       -514.5914543311730540
  Basis Set: (AUG-CC-PVTZ AUX)
    Blend: AUG-CC-PVTZ-RI
    Molecular point group: c1

    Geometry (in Angstrom), charge = 0, multiplicity = 1:

       Center              X                  Y                   Z               Mass
    ------------   -----------------  -----------------  -----------------  -----------------
         O            2.993131952828    -1.506314823356     0.077733943039    15.994914619570
         N            0.824348952828    -1.072292823356    -0.419278056961    14.003074004430
         C            0.188605952828     1.993441176644    -0.237218056961    12.000000000000
         C            1.678371952828     1.687883176644    -0.348572056961    12.000000000000
         C           -0.774869047172     0.828188176644    -0.100217056961    12.000000000000
         C            2.140786952828     0.668076176644     0.699434943039    12.000000000000
         C           -0.467020047172    -0.544911823356    -0.176769056961    12.000000000000
         C            2.043626952828    -0.725649823356     0.138394943039    12.000000000000
         C           -2.117783047172     1.175172176644     0.127274943039    12.000000000000
         C           -1.536052247172    -1.530559023356    -0.079631256961    12.000000000000
         C           -3.138740047172     0.235043176644     0.217219943039    12.000000000000
         C           -2.822412047172    -1.120247823356     0.109224943039    12.000000000000
         H           -0.121592047172     2.593496176644    -1.102830056961     1.007825032230
         H            0.040609952828     2.638111176644     0.639568943039     1.007825032230
         H            1.923415952828     1.317598176644    -1.349764056961     1.007825032230
         H            2.228537952828     2.627172176644    -0.223056056961     1.007825032230
         H            1.529673952828     0.753421176644     1.608043943039     1.007825032230
         H            3.186056952828     0.807966176644     0.983631943039     1.007825032230
         H            0.838745952828    -2.036774823356    -0.743575056961     1.007825032230
         H           -2.363199047172     2.234029176644     0.203093943039     1.007825032230
         H           -1.239969047172    -2.552811823356    -0.138678056961     1.007825032230
         H           -4.164563047172     0.554443176644     0.381296943039     1.007825032230
         H           -3.596604047172    -1.880320823356     0.176992943039     1.007825032230

  Basis Set: AUG-CC-PVTZ
    Blend: AUG-CC-PVTZ
  Basis Set: (AUG-CC-PVTZ AUX)
    Blend: AUG-CC-PVTZ-JKFIT
	 Reference Energy          =    -514.5914543311730540 [Eh]
	 Singles Energy            =      -0.0000000000000000 [Eh]
	 Same-Spin Energy          =      -0.5576691991707572 [Eh]
	 Opposite-Spin Energy      =      -1.7431043768992320 [Eh]
	 Correlation Energy        =      -2.3007735760699894 [Eh]
	 Total Energy              =    -516.8922279072430683 [Eh]

	 ================> DF-SCS-MP2 Energies <==================
	-----------------------------------------------------------
	 SCS Same-Spin Scale       =       0.3333333333333333 [-]
	 SCS Opposite-Spin Scale   =       1.2000000000000000 [-]
	 SCS Same-Spin Energy      =      -0.1858897330569191 [Eh]
	 SCS Opposite-Spin Energy  =      -2.0917252522790784 [Eh]
	 SCS Correlation Energy    =      -2.2776149853359975 [Eh]
	 SCS Total Energy          =    -516.8690693165090124 [Eh]
	-----------------------------------------------------------

  Dipole Moment: [D]
     X:    -2.6881      Y:     2.0394      Z:     0.0293     Total:     3.3743

*** Psi4 exiting successfully. Buy a developer a beer!
