                               Psi4 1.3.2 release

  ==> Input File <==

--------------------------------------------------------------------------
#psi4
#
memory 32 gb

molecule  {
0 1
  O        3.0005300    -1.5493530     0.0754490
  N        0.8317470    -1.1153310    -0.4215630
  C        0.1960040     1.9504030    -0.2395030
  C        1.6857700     1.6448450    -0.3508570
  C       -0.7674710     0.7851500    -0.1025020
  C        2.1481850     0.6250380     0.6971500
  C       -0.5276005    -0.5180915    -0.1669018
  C        2.0510250    -0.7686880     0.1361100
  C       -2.1103850     1.1321340     0.1249900
  C       -1.4919760    -1.5397800    -0.0852490
  C       -3.1313420     0.1920050     0.2149350
  C       -2.8150140    -1.1632860     0.1069400
  H       -0.1141940     2.5504580    -1.1051150
  H        0.0480080     2.5950730     0.6372840
  H        1.9308140     1.2745600    -1.3520490
  H        2.2359360     2.5841340    -0.2253410
  H        1.5370720     0.7103830     1.6057590
  H        3.1934550     0.7649280     0.9813470
  H        0.8461440    -2.0798130    -0.7458600
  H       -2.3558010     2.1909910     0.2008090
  H       -1.2325710    -2.5958500    -0.1409630
  H       -4.1571650     0.5114050     0.3790120
  H       -3.5892060    -1.9233590     0.1747080
units angstrom
no_reorient  #important for SAPT in psi4, default
symmetry c1  #important for SAPT in psi4, default
}

set PROPERTIES_ORIGIN ["COM"]
properties('MP2/aug-cc-pvtz', properties = ['dipole'])
--------------------------------------------------------------------------

    Molecular point group: c1
  Charge       = 0
  Multiplicity = 1
  Basis Set: AUG-CC-PVTZ
    Blend: AUG-CC-PVTZ
  Basis Set: (AUG-CC-PVTZ AUX)
    Blend: AUG-CC-PVTZ-JKFIT

    Orbital Energies [Eh]
    ---------------------

    Doubly Occupied:

       1A    -20.518079     2A    -15.588387     3A    -11.349445
       4A    -11.294247     5A    -11.249910     6A    -11.249522
       7A    -11.248492     8A    -11.248246     9A    -11.247905
      10A    -11.243366    11A    -11.241470    12A    -11.239638
      13A     -1.371830    14A     -1.233485    15A     -1.158692
      16A     -1.101386    17A     -1.045331    18A     -1.017239
      19A     -0.961885    20A     -0.874303    21A     -0.850733
      22A     -0.805109    23A     -0.760991    24A     -0.714196
      25A     -0.678332    26A     -0.667883    27A     -0.644676
      28A     -0.633785    29A     -0.609460    30A     -0.602784
      31A     -0.598126    32A     -0.577447    33A     -0.562688
      34A     -0.540713    35A     -0.520677    36A     -0.511242
      37A     -0.500462    38A     -0.493806    39A     -0.481961
      40A     -0.426006    41A     -0.418214    42A     -0.345263
      43A     -0.328366

  @DF-RHF Final Energy:  -514.58411692881032

   => Energetics <=

    Nuclear Repulsion Energy =            675.3630733036353604
    One-Electron Energy =               -2038.3828171231682518
    Two-Electron Energy =                 848.4356268907224603
    Total Energy =                       -514.5841169288103174
  Basis Set: (AUG-CC-PVTZ AUX)
    Blend: AUG-CC-PVTZ-RI
    Molecular point group: c1

    Geometry (in Angstrom), charge = 0, multiplicity = 1:

       Center              X                  Y                   Z               Mass
    ------------   -----------------  -----------------  -----------------  -----------------
         O            2.995463676965    -1.514038172080     0.077076939500    15.994914619570
         N            0.826680676965    -1.080016172080    -0.419935060500    14.003074004430
         C            0.190937676965     1.985717827920    -0.237875060500    12.000000000000
         C            1.680703676965     1.680159827920    -0.349229060500    12.000000000000
         C           -0.772537323035     0.820464827920    -0.100874060500    12.000000000000
         C            2.143118676965     0.660352827920     0.698777939500    12.000000000000
         C           -0.532666823035    -0.482776672080    -0.165273860500    12.000000000000
         C            2.045958676965    -0.733373172080     0.137737939500    12.000000000000
         C           -2.115451323035     1.167448827920     0.126617939500    12.000000000000
         C           -1.497042323035    -1.504465172080    -0.083621060500    12.000000000000
         C           -3.136408323035     0.227319827920     0.216562939500    12.000000000000
         C           -2.820080323035    -1.127971172080     0.108567939500    12.000000000000
         H           -0.119260323035     2.585772827920    -1.103487060500     1.007825032230
         H            0.042941676965     2.630387827920     0.638911939500     1.007825032230
         H            1.925747676965     1.309874827920    -1.350421060500     1.007825032230
         H            2.230869676965     2.619448827920    -0.223713060500     1.007825032230
         H            1.532005676965     0.745697827920     1.607386939500     1.007825032230
         H            3.188388676965     0.800242827920     0.982974939500     1.007825032230
         H            0.841077676965    -2.044498172080    -0.744232060500     1.007825032230
         H           -2.360867323035     2.226305827920     0.202436939500     1.007825032230
         H           -1.237637323035    -2.560535172080    -0.139335060500     1.007825032230
         H           -4.162231323035     0.546719827920     0.380639939500     1.007825032230
         H           -3.594272323035    -1.888044172080     0.176335939500     1.007825032230

  Basis Set: AUG-CC-PVTZ
    Blend: AUG-CC-PVTZ
  Basis Set: (AUG-CC-PVTZ AUX)
    Blend: AUG-CC-PVTZ-JKFIT
	 Reference Energy          =    -514.5841169288103174 [Eh]
	 Singles Energy            =      -0.0000000000000000 [Eh]
	 Same-Spin Energy          =      -0.5571424814671642 [Eh]
	 Opposite-Spin Energy      =      -1.7426881670210363 [Eh]
	 Correlation Energy        =      -2.2998306484882005 [Eh]
	 Total Energy              =    -516.8839475772984997 [Eh]

	 ================> DF-SCS-MP2 Energies <==================
	-----------------------------------------------------------
	 SCS Same-Spin Scale       =       0.3333333333333333 [-]
	 SCS Opposite-Spin Scale   =       1.2000000000000000 [-]
	 SCS Same-Spin Energy      =      -0.1857141604890547 [Eh]
	 SCS Opposite-Spin Energy  =      -2.0912258004252435 [Eh]
	 SCS Correlation Energy    =      -2.2769399609142984 [Eh]
	 SCS Total Energy          =    -516.8610568897246367 [Eh]
	-----------------------------------------------------------

  Dipole Moment: [D]
     X:    -3.2581      Y:     2.1994      Z:     0.0649     Total:     3.9315

*** Psi4 exiting successfully. Buy a developer a beer!
