                               Psi4 1.3.2 release

  ==> Input File <==

--------------------------------------------------------------------------
#psi4
#
memory 32 gb

molecule  {
0 1
  O        3.0005300    -1.5493530     0.0754490
  N        0.8317470    -1.1153310    -0.4215630
  C        0.1960040     1.9504030    -0.2395030
  C        1.6857700     1.6448450    -0.3508570
  C       -0.7674710     0.7851500    -0.1025020
  C        2.1481850     0.6250380     0.6971500
  C       -0.4596220    -0.5879500    -0.1790540
  C        2.0510250    -0.7686880     0.1361100
  C       -2.1103850     1.1321340     0.1249900
  C       -1.4919760    -1.5397800    -0.0852490
  C       -3.1313420     0.1920050     0.2149350
  C       -2.8150140    -1.1632860     0.1069400
  H       -0.1424455     2.6051085    -1.1839514
  H        0.0480080     2.5950730     0.6372840
  H        1.9308140     1.2745600    -1.3520490
  H        2.2359360     2.5841340    -0.2253410
  H        1.5370720     0.7103830     1.6057590
  H        3.1934550     0.7649280     0.9813470
  H        0.8461440    -2.0798130    -0.7458600
  H       -2.3558010     2.1909910     0.2008090
  H       -1.2325710    -2.5958500    -0.1409630
  H       -4.1571650     0.5114050     0.3790120
  H       -3.5892060    -1.9233590     0.1747080
units angstrom
no_reorient  #important for SAPT in psi4, default
symmetry c1  #important for SAPT in psi4, default
}

set PROPERTIES_ORIGIN ["COM"]
properties('MP2/aug-cc-pvtz', properties = ['dipole'])
--------------------------------------------------------------------------

    Molecular point group: c1
  Charge       = 0
  Multiplicity = 1
  Basis Set: AUG-CC-PVTZ
    Blend: AUG-CC-PVTZ
  Basis Set: (AUG-CC-PVTZ AUX)
    Blend: AUG-CC-PVTZ-JKFIT

    Orbital Energies [Eh]
    ---------------------

    Doubly Occupied:

       1A    -20.526090     2A    -15.596572     3A    -11.357466
       4A    -11.297902     5A    -11.256753     6A    -11.255786
       7A    -11.246846     8A    -11.245287     9A    -11.244741
      10A    -11.243717    11A    -11.243028    12A    -11.240029
      13A     -1.380517    14A     -1.253449    15A     -1.151607
      16A     -1.100851    17A     -1.038850    18A     -1.016378
      19A     -0.954127    20A     -0.880147    21A     -0.843129
      22A     -0.806867    23A     -0.764890    24A     -0.722060
      25A     -0.680796    26A     -0.670020    27A     -0.646213
      28A     -0.629404    29A     -0.606949    30A     -0.602342
      31A     -0.597842    32A     -0.579540    33A     -0.563269
      34A     -0.542444    35A     -0.517466    36A     -0.511215
      37A     -0.498908    38A     -0.485448    39A     -0.483535
      40A     -0.435588    41A     -0.426255    42A     -0.340123
      43A     -0.316203

  @DF-RHF Final Energy:  -514.58779294926228

   => Energetics <=

    Nuclear Repulsion Energy =            674.5584258291345350
    One-Electron Energy =               -2036.6911409093563634
    Two-Electron Energy =                 847.5449221309594350
    Total Energy =                       -514.5877929492622798
  Basis Set: (AUG-CC-PVTZ AUX)
    Blend: AUG-CC-PVTZ-RI
    Molecular point group: c1

    Geometry (in Angstrom), charge = 0, multiplicity = 1:

       Center              X                  Y                   Z               Mass
    ------------   -----------------  -----------------  -----------------  -----------------
         O            2.990576356571    -1.509175966355     0.078475462059    15.994914619570
         N            0.821793356571    -1.075153966355    -0.418536537941    14.003074004430
         C            0.186050356571     1.990580033645    -0.236476537941    12.000000000000
         C            1.675816356571     1.685022033645    -0.347830537941    12.000000000000
         C           -0.777424643429     0.825327033645    -0.099475537941    12.000000000000
         C            2.138231356571     0.665215033645     0.700176462059    12.000000000000
         C           -0.469575643429    -0.547772966355    -0.176027537941    12.000000000000
         C            2.041071356571    -0.728510966355     0.139136462059    12.000000000000
         C           -2.120338643429     1.172311033645     0.128016462059    12.000000000000
         C           -1.501929643429    -1.499602966355    -0.082222537941    12.000000000000
         C           -3.141295643429     0.232182033645     0.217961462059    12.000000000000
         C           -2.824967643429    -1.123108966355     0.109966462059    12.000000000000
         H           -0.152399143429     2.645285533645    -1.180924937941     1.007825032230
         H            0.038054356571     2.635250033645     0.640310462059     1.007825032230
         H            1.920860356571     1.314737033645    -1.349022537941     1.007825032230
         H            2.225982356571     2.624311033645    -0.222314537941     1.007825032230
         H            1.527118356571     0.750560033645     1.608785462059     1.007825032230
         H            3.183501356571     0.805105033645     0.984373462059     1.007825032230
         H            0.836190356571    -2.039635966355    -0.742833537941     1.007825032230
         H           -2.365754643429     2.231168033645     0.203835462059     1.007825032230
         H           -1.242524643429    -2.555672966355    -0.137936537941     1.007825032230
         H           -4.167118643429     0.551582033645     0.382038462059     1.007825032230
         H           -3.599159643429    -1.883181966355     0.177734462059     1.007825032230

  Basis Set: AUG-CC-PVTZ
    Blend: AUG-CC-PVTZ
  Basis Set: (AUG-CC-PVTZ AUX)
    Blend: AUG-CC-PVTZ-JKFIT
	 Reference Energy          =    -514.5877929492622798 [Eh]
	 Singles Energy            =      -0.0000000000000000 [Eh]
	 Same-Spin Energy          =      -0.5579667119822028 [Eh]
	 Opposite-Spin Energy      =      -1.7438666869501693 [Eh]
	 Correlation Energy        =      -2.3018333989323723 [Eh]
	 Total Energy              =    -516.8896263481946107 [Eh]

	 ================> DF-SCS-MP2 Energies <==================
	-----------------------------------------------------------
	 SCS Same-Spin Scale       =       0.3333333333333333 [-]
	 SCS Opposite-Spin Scale   =       1.2000000000000000 [-]
	 SCS Same-Spin Energy      =      -0.1859889039940676 [Eh]
	 SCS Opposite-Spin Energy  =      -2.0926400243402030 [Eh]
	 SCS Correlation Energy    =      -2.2786289283342707 [Eh]
	 SCS Total Energy          =    -516.8664218775965082 [Eh]
	-----------------------------------------------------------

  Dipole Moment: [D]
     X:    -2.7265      Y:     2.0068      Z:     0.0722     Total:     3.3862

*** Psi4 exiting successfully. Buy a developer a beer!
