                               Psi4 1.3.2 release

  ==> Input File <==

--------------------------------------------------------------------------
#psi4
#
memory 32 gb

molecule  {
0 1
  O        3.0005300    -1.5493530     0.0754490
  N        0.8317470    -1.1153310    -0.4215630
  C        0.1960040     1.9504030    -0.2395030
  C        1.6857700     1.6448450    -0.3508570
  C       -0.7674710     0.7851500    -0.1025020
  C        2.1481850     0.6250380     0.6971500
  C       -0.4931657    -0.5523730    -0.1743557
  C        2.0510250    -0.7686880     0.1361100
  C       -2.1103850     1.1321340     0.1249900
  C       -1.4919760    -1.5397800    -0.0852490
  C       -3.1313420     0.1920050     0.2149350
  C       -2.8150140    -1.1632860     0.1069400
  H       -0.1141940     2.5504580    -1.1051150
  H        0.0480080     2.5950730     0.6372840
  H        1.9308140     1.2745600    -1.3520490
  H        2.2359360     2.5841340    -0.2253410
  H        1.5370720     0.7103830     1.6057590
  H        3.1934550     0.7649280     0.9813470
  H        0.8461440    -2.0798130    -0.7458600
  H       -2.3558010     2.1909910     0.2008090
  H       -1.2325710    -2.5958500    -0.1409630
  H       -4.1571650     0.5114050     0.3790120
  H       -3.5892060    -1.9233590     0.1747080
units angstrom
no_reorient  #important for SAPT in psi4, default
symmetry c1  #important for SAPT in psi4, default
}

set PROPERTIES_ORIGIN ["COM"]
properties('MP2/aug-cc-pvtz', properties = ['dipole'])
--------------------------------------------------------------------------

    Molecular point group: c1
  Charge       = 0
  Multiplicity = 1
  Basis Set: AUG-CC-PVTZ
    Blend: AUG-CC-PVTZ
  Basis Set: (AUG-CC-PVTZ AUX)
    Blend: AUG-CC-PVTZ-JKFIT

    Orbital Energies [Eh]
    ---------------------

    Doubly Occupied:

       1A    -20.521782     2A    -15.592450     3A    -11.353188
       4A    -11.295632     5A    -11.252562     6A    -11.247897
       7A    -11.246792     8A    -11.246413     9A    -11.246381
      10A    -11.241959    11A    -11.241689    12A    -11.241074
      13A     -1.375828    14A     -1.242144    15A     -1.155345
      16A     -1.101489    17A     -1.041914    18A     -1.016673
      19A     -0.959518    20A     -0.877118    21A     -0.846356
      22A     -0.807127    23A     -0.763367    24A     -0.717306
      25A     -0.679715    26A     -0.669859    27A     -0.645290
      28A     -0.631353    29A     -0.610405    30A     -0.602837
      31A     -0.599608    32A     -0.578493    33A     -0.563573
      34A     -0.541142    35A     -0.518704    36A     -0.511479
      37A     -0.499238    38A     -0.493454    39A     -0.482766
      40A     -0.430762    41A     -0.422094    42A     -0.342413
      43A     -0.322680

  @DF-RHF Final Energy:  -514.59228536227499

   => Energetics <=

    Nuclear Repulsion Energy =            675.1961066105525333
    One-Electron Energy =               -2038.0210428151890483
    Two-Electron Energy =                 848.2326508423615223
    Total Energy =                       -514.5922853622749926
  Basis Set: (AUG-CC-PVTZ AUX)
    Blend: AUG-CC-PVTZ-RI
    Molecular point group: c1

    Geometry (in Angstrom), charge = 0, multiplicity = 1:

       Center              X                  Y                   Z               Mass
    ------------   -----------------  -----------------  -----------------  -----------------
         O            2.992898447421    -1.511484362660     0.077632219755    15.994914619570
         N            0.824115447421    -1.077462362660    -0.419379780245    14.003074004430
         C            0.188372447421     1.988271637340    -0.237319780245    12.000000000000
         C            1.678138447421     1.682713637340    -0.348673780245    12.000000000000
         C           -0.775102552579     0.823018637340    -0.100318780245    12.000000000000
         C            2.140553447421     0.662906637340     0.699333219755    12.000000000000
         C           -0.500797252579    -0.514504362660    -0.172172480245    12.000000000000
         C            2.043393447421    -0.730819362660     0.138293219755    12.000000000000
         C           -2.118016552579     1.170002637340     0.127173219755    12.000000000000
         C           -1.499607552579    -1.501911362660    -0.083065780245    12.000000000000
         C           -3.138973552579     0.229873637340     0.217118219755    12.000000000000
         C           -2.822645552579    -1.125417362660     0.109123219755    12.000000000000
         H           -0.121825552579     2.588326637340    -1.102931780245     1.007825032230
         H            0.040376447421     2.632941637340     0.639467219755     1.007825032230
         H            1.923182447421     1.312428637340    -1.349865780245     1.007825032230
         H            2.228304447421     2.622002637340    -0.223157780245     1.007825032230
         H            1.529440447421     0.748251637340     1.607942219755     1.007825032230
         H            3.185823447421     0.802796637340     0.983530219755     1.007825032230
         H            0.838512447421    -2.041944362660    -0.743676780245     1.007825032230
         H           -2.363432552579     2.228859637340     0.202992219755     1.007825032230
         H           -1.240202552579    -2.557981362660    -0.138779780245     1.007825032230
         H           -4.164796552579     0.549273637340     0.381195219755     1.007825032230
         H           -3.596837552579    -1.885490362660     0.176891219755     1.007825032230

  Basis Set: AUG-CC-PVTZ
    Blend: AUG-CC-PVTZ
  Basis Set: (AUG-CC-PVTZ AUX)
    Blend: AUG-CC-PVTZ-JKFIT
	 Reference Energy          =    -514.5922853622749926 [Eh]
	 Singles Energy            =      -0.0000000000000000 [Eh]
	 Same-Spin Energy          =      -0.5574360413416810 [Eh]
	 Opposite-Spin Energy      =      -1.7426844829252777 [Eh]
	 Correlation Energy        =      -2.3001205242669585 [Eh]
	 Total Energy              =    -516.8924058865419511 [Eh]

	 ================> DF-SCS-MP2 Energies <==================
	-----------------------------------------------------------
	 SCS Same-Spin Scale       =       0.3333333333333333 [-]
	 SCS Opposite-Spin Scale   =       1.2000000000000000 [-]
	 SCS Same-Spin Energy      =      -0.1858120137805603 [Eh]
	 SCS Opposite-Spin Energy  =      -2.0912213795103329 [Eh]
	 SCS Correlation Energy    =      -2.2770333932908935 [Eh]
	 SCS Total Energy          =    -516.8693187555659279 [Eh]
	-----------------------------------------------------------

  Dipole Moment: [D]
     X:    -3.0039      Y:     2.1290      Z:     0.0494     Total:     3.6822

*** Psi4 exiting successfully. Buy a developer a beer!
