                               Psi4 1.3.2 release

  ==> Input File <==

--------------------------------------------------------------------------
#psi4
#
memory 32 gb

molecule  {
0 1
  O        3.0005300    -1.5493530     0.0754490
  N        0.8317470    -1.1153310    -0.4215630
  C        0.2008035     1.9840845    -0.2804344
  C        1.6857700     1.6448450    -0.3508570
  C       -0.7674710     0.7851500    -0.1025020
  C        2.1481850     0.6250380     0.6971500
  C       -0.4596220    -0.5879500    -0.1790540
  C        2.0510250    -0.7686880     0.1361100
  C       -2.1103850     1.1321340     0.1249900
  C       -1.4919760    -1.5397800    -0.0852490
  C       -3.1313420     0.1920050     0.2149350
  C       -2.8150140    -1.1632860     0.1069400
  H       -0.1141940     2.5504580    -1.1051150
  H        0.0480080     2.5950730     0.6372840
  H        1.9308140     1.2745600    -1.3520490
  H        2.2359360     2.5841340    -0.2253410
  H        1.5370720     0.7103830     1.6057590
  H        3.1934550     0.7649280     0.9813470
  H        0.8461440    -2.0798130    -0.7458600
  H       -2.3558010     2.1909910     0.2008090
  H       -1.2325710    -2.5958500    -0.1409630
  H       -4.1571650     0.5114050     0.3790120
  H       -3.5892060    -1.9233590     0.1747080
units angstrom
no_reorient  #important for SAPT in psi4, default
symmetry c1  #important for SAPT in psi4, default
}

set PROPERTIES_ORIGIN ["COM"]
properties('MP2/aug-cc-pvtz', properties = ['dipole'])
--------------------------------------------------------------------------

    Molecular point group: c1
  Charge       = 0
  Multiplicity = 1
  Basis Set: AUG-CC-PVTZ
    Blend: AUG-CC-PVTZ
  Basis Set: (AUG-CC-PVTZ AUX)
    Blend: AUG-CC-PVTZ-JKFIT

    Orbital Energies [Eh]
    ---------------------

    Doubly Occupied:

       1A    -20.525762     2A    -15.595979     3A    -11.357122
       4A    -11.297316     5A    -11.255934     6A    -11.246328
       7A    -11.244711     8A    -11.244429     9A    -11.244274
      10A    -11.243789    11A    -11.241973    12A    -11.239532
      13A     -1.380154    14A     -1.252648    15A     -1.150407
      16A     -1.100311    17A     -1.037121    18A     -1.015846
      19A     -0.959441    20A     -0.878817    21A     -0.841979
      22A     -0.809541    23A     -0.766274    24A     -0.721497
      25A     -0.682235    26A     -0.669753    27A     -0.645051
      28A     -0.628487    29A     -0.617282    30A     -0.603453
      31A     -0.600120    32A     -0.575896    33A     -0.564256
      34A     -0.541680    35A     -0.518197    36A     -0.510006
      37A     -0.499669    38A     -0.495788    39A     -0.476344
      40A     -0.435111    41A     -0.426379    42A     -0.341156
      43A     -0.315942

  @DF-RHF Final Energy:  -514.59189217353128

   => Energetics <=

    Nuclear Repulsion Energy =            674.3575985701721720
    One-Electron Energy =               -2036.3030061822751122
    Two-Electron Energy =                 847.3535154385715487
    Total Energy =                       -514.5918921735312779
  Basis Set: (AUG-CC-PVTZ AUX)
    Blend: AUG-CC-PVTZ-RI
    Molecular point group: c1

    Geometry (in Angstrom), charge = 0, multiplicity = 1:

       Center              X                  Y                   Z               Mass
    ------------   -----------------  -----------------  -----------------  -----------------
         O            2.990042060584    -1.511343156885     0.081031416338    15.994914619570
         N            0.821259060584    -1.077321156885    -0.415980583662    14.003074004430
         C            0.190315560584     2.022094343115    -0.274851983662    12.000000000000
         C            1.675282060584     1.682854843115    -0.345274583662    12.000000000000
         C           -0.777958939416     0.823159843115    -0.096919583662    12.000000000000
         C            2.137697060584     0.663047843115     0.702732416338    12.000000000000
         C           -0.470109939416    -0.549940156885    -0.173471583662    12.000000000000
         C            2.040537060584    -0.730678156885     0.141692416338    12.000000000000
         C           -2.120872939416     1.170143843115     0.130572416338    12.000000000000
         C           -1.502463939416    -1.501770156885    -0.079666583662    12.000000000000
         C           -3.141829939416     0.230014843115     0.220517416338    12.000000000000
         C           -2.825501939416    -1.125276156885     0.112522416338    12.000000000000
         H           -0.124681939416     2.588467843115    -1.099532583662     1.007825032230
         H            0.037520060584     2.633082843115     0.642866416338     1.007825032230
         H            1.920326060584     1.312569843115    -1.346466583662     1.007825032230
         H            2.225448060584     2.622143843115    -0.219758583662     1.007825032230
         H            1.526584060584     0.748392843115     1.611341416338     1.007825032230
         H            3.182967060584     0.802937843115     0.986929416338     1.007825032230
         H            0.835656060584    -2.041803156885    -0.740277583662     1.007825032230
         H           -2.366288939416     2.229000843115     0.206391416338     1.007825032230
         H           -1.243058939416    -2.557840156885    -0.135380583662     1.007825032230
         H           -4.167652939416     0.549414843115     0.384594416338     1.007825032230
         H           -3.599693939416    -1.885349156885     0.180290416338     1.007825032230

  Basis Set: AUG-CC-PVTZ
    Blend: AUG-CC-PVTZ
  Basis Set: (AUG-CC-PVTZ AUX)
    Blend: AUG-CC-PVTZ-JKFIT
	 Reference Energy          =    -514.5918921735312779 [Eh]
	 Singles Energy            =      -0.0000000000000000 [Eh]
	 Same-Spin Energy          =      -0.5576429818398440 [Eh]
	 Opposite-Spin Energy      =      -1.7428708021039838 [Eh]
	 Correlation Energy        =      -2.3005137839438277 [Eh]
	 Total Energy              =    -516.8924059574751482 [Eh]

	 ================> DF-SCS-MP2 Energies <==================
	-----------------------------------------------------------
	 SCS Same-Spin Scale       =       0.3333333333333333 [-]
	 SCS Opposite-Spin Scale   =       1.2000000000000000 [-]
	 SCS Same-Spin Energy      =      -0.1858809939466146 [Eh]
	 SCS Opposite-Spin Energy  =      -2.0914449625247804 [Eh]
	 SCS Correlation Energy    =      -2.2773259564713952 [Eh]
	 SCS Total Energy          =    -516.8692181300026505 [Eh]
	-----------------------------------------------------------

  Dipole Moment: [D]
     X:    -2.7429      Y:     2.0595      Z:     0.0117     Total:     3.4301

*** Psi4 exiting successfully. Buy a developer a beer!
