                               Psi4 1.3.2 release

  ==> Input File <==

--------------------------------------------------------------------------
#psi4
#
memory 32 gb

molecule  {
0 1
  O        3.0005300    -1.5493530     0.0754490
  N        0.8317470    -1.1153310    -0.4215630
  C        0.1960040     1.9504030    -0.2395030
  C        1.6857700     1.6448450    -0.3508570
  C       -0.7674710     0.7851500    -0.1025020
  C        2.1481850     0.6250380     0.6971500
  C       -0.4162645    -0.5031165    -0.1527958
  C        2.0510250    -0.7686880     0.1361100
  C       -2.1103850     1.1321340     0.1249900
  C       -1.4919760    -1.5397800    -0.0852490
  C       -3.1313420     0.1920050     0.2149350
  C       -2.8150140    -1.1632860     0.1069400
  H       -0.1141940     2.5504580    -1.1051150
  H        0.0480080     2.5950730     0.6372840
  H        1.9308140     1.2745600    -1.3520490
  H        2.2359360     2.5841340    -0.2253410
  H        1.5370720     0.7103830     1.6057590
  H        3.1934550     0.7649280     0.9813470
  H        0.8461440    -2.0798130    -0.7458600
  H       -2.3558010     2.1909910     0.2008090
  H       -1.2325710    -2.5958500    -0.1409630
  H       -4.1571650     0.5114050     0.3790120
  H       -3.5892060    -1.9233590     0.1747080
units angstrom
no_reorient  #important for SAPT in psi4, default
symmetry c1  #important for SAPT in psi4, default
}

set PROPERTIES_ORIGIN ["COM"]
properties('MP2/aug-cc-pvtz', properties = ['dipole'])
--------------------------------------------------------------------------

    Molecular point group: c1
  Charge       = 0
  Multiplicity = 1
  Basis Set: AUG-CC-PVTZ
    Blend: AUG-CC-PVTZ
  Basis Set: (AUG-CC-PVTZ AUX)
    Blend: AUG-CC-PVTZ-JKFIT

    Orbital Energies [Eh]
    ---------------------

    Doubly Occupied:

       1A    -20.524562     2A    -15.597610     3A    -11.354810
       4A    -11.296749     5A    -11.252612     6A    -11.247223
       7A    -11.246077     8A    -11.245919     9A    -11.243197
      10A    -11.242715    11A    -11.242005    12A    -11.240830
      13A     -1.379484    14A     -1.253346    15A     -1.153373
      16A     -1.100508    17A     -1.044263    18A     -1.006692
      19A     -0.960095    20A     -0.877202    21A     -0.849766
      22A     -0.808983    23A     -0.761044    24A     -0.722672
      25A     -0.681929    26A     -0.676902    27A     -0.645262
      28A     -0.629157    29A     -0.610781    30A     -0.601862
      31A     -0.593535    32A     -0.582285    33A     -0.564824
      34A     -0.541116    35A     -0.523023    36A     -0.510231
      37A     -0.498142    38A     -0.490047    39A     -0.476681
      40A     -0.434755    41A     -0.424286    42A     -0.342958
      43A     -0.316250

  @DF-RHF Final Energy:  -514.58357112100634

   => Energetics <=

    Nuclear Repulsion Energy =            675.6927543970127772
    One-Electron Energy =               -2038.9611260730991944
    Two-Electron Energy =                 848.6848005550800735
    Total Energy =                       -514.5835711210063437
  Basis Set: (AUG-CC-PVTZ AUX)
    Blend: AUG-CC-PVTZ-RI
    Molecular point group: c1

    Geometry (in Angstrom), charge = 0, multiplicity = 1:

       Center              X                  Y                   Z               Mass
    ------------   -----------------  -----------------  -----------------  -----------------
         O            2.987169672164    -1.515153738670     0.076026109295    15.994914619570
         N            0.818386672164    -1.081131738670    -0.420985890705    14.003074004430
         C            0.182643672164     1.984602261330    -0.238925890705    12.000000000000
         C            1.672409672164     1.679044261330    -0.350279890705    12.000000000000
         C           -0.780831327836     0.819349261330    -0.101924890705    12.000000000000
         C            2.134824672164     0.659237261330     0.697727109295    12.000000000000
         C           -0.429624827836    -0.468917238670    -0.152218690705    12.000000000000
         C            2.037664672164    -0.734488738670     0.136687109295    12.000000000000
         C           -2.123745327836     1.166333261330     0.125567109295    12.000000000000
         C           -1.505336327836    -1.505580738670    -0.084671890705    12.000000000000
         C           -3.144702327836     0.226204261330     0.215512109295    12.000000000000
         C           -2.828374327836    -1.129086738670     0.107517109295    12.000000000000
         H           -0.127554327836     2.584657261330    -1.104537890705     1.007825032230
         H            0.034647672164     2.629272261330     0.637861109295     1.007825032230
         H            1.917453672164     1.308759261330    -1.351471890705     1.007825032230
         H            2.222575672164     2.618333261330    -0.224763890705     1.007825032230
         H            1.523711672164     0.744582261330     1.606336109295     1.007825032230
         H            3.180094672164     0.799127261330     0.981924109295     1.007825032230
         H            0.832783672164    -2.045613738670    -0.745282890705     1.007825032230
         H           -2.369161327836     2.225190261330     0.201386109295     1.007825032230
         H           -1.245931327836    -2.561650738670    -0.140385890705     1.007825032230
         H           -4.170525327836     0.545604261330     0.379589109295     1.007825032230
         H           -3.602566327836    -1.889159738670     0.175285109295     1.007825032230

  Basis Set: AUG-CC-PVTZ
    Blend: AUG-CC-PVTZ
  Basis Set: (AUG-CC-PVTZ AUX)
    Blend: AUG-CC-PVTZ-JKFIT
	 Reference Energy          =    -514.5835711210063437 [Eh]
	 Singles Energy            =      -0.0000000000000000 [Eh]
	 Same-Spin Energy          =      -0.5574011069184827 [Eh]
	 Opposite-Spin Energy      =      -1.7434803262920850 [Eh]
	 Correlation Energy        =      -2.3008814332105678 [Eh]
	 Total Energy              =    -516.8844525542168640 [Eh]

	 ================> DF-SCS-MP2 Energies <==================
	-----------------------------------------------------------
	 SCS Same-Spin Scale       =       0.3333333333333333 [-]
	 SCS Opposite-Spin Scale   =       1.2000000000000000 [-]
	 SCS Same-Spin Energy      =      -0.1858003689728275 [Eh]
	 SCS Opposite-Spin Energy  =      -2.0921763915505021 [Eh]
	 SCS Correlation Energy    =      -2.2779767605233294 [Eh]
	 SCS Total Energy          =    -516.8615478815296456 [Eh]
	-----------------------------------------------------------

  Dipole Moment: [D]
     X:    -2.7696      Y:     2.0463      Z:     0.0162     Total:     3.4436

*** Psi4 exiting successfully. Buy a developer a beer!
