                               Psi4 1.3.2 release

  ==> Input File <==

--------------------------------------------------------------------------
#psi4
#
memory 32 gb

molecule  {
0 1
  O        3.0005300    -1.5493530     0.0754490
  N        0.8317470    -1.1153310    -0.4215630
  C        0.1960040     1.9504030    -0.2395030
  C        1.6463712     1.4905449    -0.3401693
  C       -0.7674710     0.7851500    -0.1025020
  C        2.1481850     0.6250380     0.6971500
  C       -0.4596220    -0.5879500    -0.1790540
  C        2.0510250    -0.7686880     0.1361100
  C       -2.1103850     1.1321340     0.1249900
  C       -1.4919760    -1.5397800    -0.0852490
  C       -3.1313420     0.1920050     0.2149350
  C       -2.8150140    -1.1632860     0.1069400
  H       -0.1141940     2.5504580    -1.1051150
  H        0.0480080     2.5950730     0.6372840
  H        1.9308140     1.2745600    -1.3520490
  H        2.2359360     2.5841340    -0.2253410
  H        1.5370720     0.7103830     1.6057590
  H        3.1934550     0.7649280     0.9813470
  H        0.8461440    -2.0798130    -0.7458600
  H       -2.3558010     2.1909910     0.2008090
  H       -1.2325710    -2.5958500    -0.1409630
  H       -4.1571650     0.5114050     0.3790120
  H       -3.5892060    -1.9233590     0.1747080
units angstrom
no_reorient  #important for SAPT in psi4, default
symmetry c1  #important for SAPT in psi4, default
}

set PROPERTIES_ORIGIN ["COM"]
properties('MP2/aug-cc-pvtz', properties = ['dipole'])
--------------------------------------------------------------------------

    Molecular point group: c1
  Charge       = 0
  Multiplicity = 1
  Basis Set: AUG-CC-PVTZ
    Blend: AUG-CC-PVTZ
  Basis Set: (AUG-CC-PVTZ AUX)
    Blend: AUG-CC-PVTZ-JKFIT

    Orbital Energies [Eh]
    ---------------------

    Doubly Occupied:

       1A    -20.525962     2A    -15.596441     3A    -11.356735
       4A    -11.297546     5A    -11.252805     6A    -11.248825
       7A    -11.247622     8A    -11.246515     9A    -11.244735
      10A    -11.244306    11A    -11.241860    12A    -11.239710
      13A     -1.381032    14A     -1.254645    15A     -1.151654
      16A     -1.114780    17A     -1.045630    18A     -1.016103
      19A     -0.957592    20A     -0.875730    21A     -0.843033
      22A     -0.808731    23A     -0.767066    24A     -0.724105
      25A     -0.689963    26A     -0.670857    27A     -0.639987
      28A     -0.632234    29A     -0.617653    30A     -0.609640
      31A     -0.597026    32A     -0.577542    33A     -0.566705
      34A     -0.536665    35A     -0.529308    36A     -0.514393
      37A     -0.504029    38A     -0.500315    39A     -0.452550
      40A     -0.435445    41A     -0.419056    42A     -0.340613
      43A     -0.315882

  @DF-RHF Final Energy:  -514.56805510974914

   => Energetics <=

    Nuclear Repulsion Energy =            677.7369382874423991
    One-Electron Energy =               -2042.9439371685461992
    Two-Electron Energy =                 850.6389437713546613
    Total Energy =                       -514.5680551097491389
  Basis Set: (AUG-CC-PVTZ AUX)
    Blend: AUG-CC-PVTZ-RI
    Molecular point group: c1

    Geometry (in Angstrom), charge = 0, multiplicity = 1:

       Center              X                  Y                   Z               Mass
    ------------   -----------------  -----------------  -----------------  -----------------
         O            2.993334624646    -1.497339417817     0.077186037816    15.994914619570
         N            0.824551624646    -1.063317417817    -0.419825962184    14.003074004430
         C            0.188808624646     2.002416582183    -0.237765962184    12.000000000000
         C            1.639175824646     1.542558482183    -0.338432262184    12.000000000000
         C           -0.774666375354     0.837163582183    -0.100764962184    12.000000000000
         C            2.140989624646     0.677051582183     0.698887037816    12.000000000000
         C           -0.466817375354    -0.535936417817    -0.177316962184    12.000000000000
         C            2.043829624646    -0.716674417817     0.137847037816    12.000000000000
         C           -2.117580375354     1.184147582183     0.126727037816    12.000000000000
         C           -1.499171375354    -1.487766417817    -0.083511962184    12.000000000000
         C           -3.138537375354     0.244018582183     0.216672037816    12.000000000000
         C           -2.822209375354    -1.111272417817     0.108677037816    12.000000000000
         H           -0.121389375354     2.602471582183    -1.103377962184     1.007825032230
         H            0.040812624646     2.647086582183     0.639021037816     1.007825032230
         H            1.923618624646     1.326573582183    -1.350311962184     1.007825032230
         H            2.228740624646     2.636147582183    -0.223603962184     1.007825032230
         H            1.529876624646     0.762396582183     1.607496037816     1.007825032230
         H            3.186259624646     0.816941582183     0.983084037816     1.007825032230
         H            0.838948624646    -2.027799417817    -0.744122962184     1.007825032230
         H           -2.362996375354     2.243004582183     0.202546037816     1.007825032230
         H           -1.239766375354    -2.543836417817    -0.139225962184     1.007825032230
         H           -4.164360375354     0.563418582183     0.380749037816     1.007825032230
         H           -3.596401375354    -1.871345417817     0.176445037816     1.007825032230

  Basis Set: AUG-CC-PVTZ
    Blend: AUG-CC-PVTZ
  Basis Set: (AUG-CC-PVTZ AUX)
    Blend: AUG-CC-PVTZ-JKFIT
	 Reference Energy          =    -514.5680551097491389 [Eh]
	 Singles Energy            =      -0.0000000000000000 [Eh]
	 Same-Spin Energy          =      -0.5594540607974381 [Eh]
	 Opposite-Spin Energy      =      -1.7453858746358990 [Eh]
	 Correlation Energy        =      -2.3048399354333373 [Eh]
	 Total Energy              =    -516.8728950451825312 [Eh]

	 ================> DF-SCS-MP2 Energies <==================
	-----------------------------------------------------------
	 SCS Same-Spin Scale       =       0.3333333333333333 [-]
	 SCS Opposite-Spin Scale   =       1.2000000000000000 [-]
	 SCS Same-Spin Energy      =      -0.1864846869324794 [Eh]
	 SCS Opposite-Spin Energy  =      -2.0944630495630787 [Eh]
	 SCS Correlation Energy    =      -2.2809477364955582 [Eh]
	 SCS Total Energy          =    -516.8490028462447299 [Eh]
	-----------------------------------------------------------

  Dipole Moment: [D]
     X:    -2.7724      Y:     1.9536      Z:     0.0581     Total:     3.3921

*** Psi4 exiting successfully. Buy a developer a beer!
