                               Psi4 1.3.2 release

  ==> Input File <==

--------------------------------------------------------------------------
#psi4
#
memory 32 gb

molecule  {
0 1
  O        3.0005300    -1.5493530     0.0754490
  N        0.8317470    -1.1153310    -0.4215630
  C        0.2080423     2.0016863    -0.2318894
  C        1.6857700     1.6448450    -0.3508570
  C       -0.7674710     0.7851500    -0.1025020
  C        2.1481850     0.6250380     0.6971500
  C       -0.4596220    -0.5879500    -0.1790540
  C        2.0510250    -0.7686880     0.1361100
  C       -2.1103850     1.1321340     0.1249900
  C       -1.4919760    -1.5397800    -0.0852490
  C       -3.1313420     0.1920050     0.2149350
  C       -2.8150140    -1.1632860     0.1069400
  H       -0.1141940     2.5504580    -1.1051150
  H        0.0480080     2.5950730     0.6372840
  H        1.9308140     1.2745600    -1.3520490
  H        2.2359360     2.5841340    -0.2253410
  H        1.5370720     0.7103830     1.6057590
  H        3.1934550     0.7649280     0.9813470
  H        0.8461440    -2.0798130    -0.7458600
  H       -2.3558010     2.1909910     0.2008090
  H       -1.2325710    -2.5958500    -0.1409630
  H       -4.1571650     0.5114050     0.3790120
  H       -3.5892060    -1.9233590     0.1747080
units angstrom
no_reorient  #important for SAPT in psi4, default
symmetry c1  #important for SAPT in psi4, default
}

set PROPERTIES_ORIGIN ["COM"]
properties('MP2/aug-cc-pvtz', properties = ['dipole'])
--------------------------------------------------------------------------

    Molecular point group: c1
  Charge       = 0
  Multiplicity = 1
  Basis Set: AUG-CC-PVTZ
    Blend: AUG-CC-PVTZ
  Basis Set: (AUG-CC-PVTZ AUX)
    Blend: AUG-CC-PVTZ-JKFIT

    Orbital Energies [Eh]
    ---------------------

    Doubly Occupied:

       1A    -20.525610     2A    -15.595792     3A    -11.356908
       4A    -11.297307     5A    -11.255967     6A    -11.246164
       7A    -11.244455     8A    -11.244186     9A    -11.243813
      10A    -11.243193    11A    -11.241828    12A    -11.239305
      13A     -1.380000    14A     -1.252387    15A     -1.149943
      16A     -1.100289    17A     -1.036189    18A     -1.015665
      19A     -0.959363    20A     -0.878306    21A     -0.841569
      22A     -0.810623    23A     -0.765516    24A     -0.721815
      25A     -0.681865    26A     -0.668959    27A     -0.645263
      28A     -0.628396    29A     -0.613015    30A     -0.606385
      31A     -0.601124    32A     -0.576552    33A     -0.563514
      34A     -0.542147    35A     -0.517721    36A     -0.510189
      37A     -0.503625    38A     -0.494545    39A     -0.473760
      40A     -0.435000    41A     -0.426248    42A     -0.341352
      43A     -0.316050

  @DF-RHF Final Energy:  -514.59249660788021

   => Energetics <=

    Nuclear Repulsion Energy =            674.1735897405535525
    One-Electron Energy =               -2035.9483686841324470
    Two-Electron Energy =                 847.1822823356986873
    Total Energy =                       -514.5924966078802072
  Basis Set: (AUG-CC-PVTZ AUX)
    Blend: AUG-CC-PVTZ-RI
    Molecular point group: c1

    Geometry (in Angstrom), charge = 0, multiplicity = 1:

       Center              X                  Y                   Z               Mass
    ------------   -----------------  -----------------  -----------------  -----------------
         O            2.989502804261    -1.512654407637     0.077415043709    15.994914619570
         N            0.820719804261    -1.078632407637    -0.419596956291    14.003074004430
         C            0.197015104261     2.038384892363    -0.229923356291    12.000000000000
         C            1.674742804261     1.681543592363    -0.348890956291    12.000000000000
         C           -0.778498195739     0.821848592363    -0.100535956291    12.000000000000
         C            2.137157804261     0.661736592363     0.699116043709    12.000000000000
         C           -0.470649195739    -0.551251407637    -0.177087956291    12.000000000000
         C            2.039997804261    -0.731989407637     0.138076043709    12.000000000000
         C           -2.121412195739     1.168832592363     0.126956043709    12.000000000000
         C           -1.503003195739    -1.503081407637    -0.083282956291    12.000000000000
         C           -3.142369195739     0.228703592363     0.216901043709    12.000000000000
         C           -2.826041195739    -1.126587407637     0.108906043709    12.000000000000
         H           -0.125221195739     2.587156592363    -1.103148956291     1.007825032230
         H            0.036980804261     2.631771592363     0.639250043709     1.007825032230
         H            1.919786804261     1.311258592363    -1.350082956291     1.007825032230
         H            2.224908804261     2.620832592363    -0.223374956291     1.007825032230
         H            1.526044804261     0.747081592363     1.607725043709     1.007825032230
         H            3.182427804261     0.801626592363     0.983313043709     1.007825032230
         H            0.835116804261    -2.043114407637    -0.743893956291     1.007825032230
         H           -2.366828195739     2.227689592363     0.202775043709     1.007825032230
         H           -1.243598195739    -2.559151407637    -0.138996956291     1.007825032230
         H           -4.168192195739     0.548103592363     0.380978043709     1.007825032230
         H           -3.600233195739    -1.886660407637     0.176674043709     1.007825032230

  Basis Set: AUG-CC-PVTZ
    Blend: AUG-CC-PVTZ
  Basis Set: (AUG-CC-PVTZ AUX)
    Blend: AUG-CC-PVTZ-JKFIT
	 Reference Energy          =    -514.5924966078802072 [Eh]
	 Singles Energy            =      -0.0000000000000000 [Eh]
	 Same-Spin Energy          =      -0.5575496885876297 [Eh]
	 Opposite-Spin Energy      =      -1.7427110868641544 [Eh]
	 Correlation Energy        =      -2.3002607754517843 [Eh]
	 Total Energy              =    -516.8927573833319684 [Eh]

	 ================> DF-SCS-MP2 Energies <==================
	-----------------------------------------------------------
	 SCS Same-Spin Scale       =       0.3333333333333333 [-]
	 SCS Opposite-Spin Scale   =       1.2000000000000000 [-]
	 SCS Same-Spin Energy      =      -0.1858498961958766 [Eh]
	 SCS Opposite-Spin Energy  =      -2.0912533042369854 [Eh]
	 SCS Correlation Energy    =      -2.2771032004328617 [Eh]
	 SCS Total Energy          =    -516.8695998083130689 [Eh]
	-----------------------------------------------------------

  Dipole Moment: [D]
     X:    -2.7367      Y:     2.0773      Z:     0.0419     Total:     3.4361

*** Psi4 exiting successfully. Buy a developer a beer!
