                               Psi4 1.4a3.dev225

  ==> Input File <==

--------------------------------------------------------------------------
#psi4
#
memory 32 gb

molecule  {
0 1
  O        3.0005300    -1.5493530     0.0754490
  N        0.8317470    -1.1153310    -0.4215630
  C        0.1960040     1.9504030    -0.2395030
  C        1.6857700     1.6448450    -0.3508570
  C       -0.7357397     0.8235267    -0.1070140
  C        2.1481850     0.6250380     0.6971500
  C       -0.4596220    -0.5879500    -0.1790540
  C        2.0510250    -0.7686880     0.1361100
  C       -2.1103850     1.1321340     0.1249900
  C       -1.4919760    -1.5397800    -0.0852490
  C       -3.1313420     0.1920050     0.2149350
  C       -2.8150140    -1.1632860     0.1069400
  H       -0.1141940     2.5504580    -1.1051150
  H        0.0480080     2.5950730     0.6372840
  H        1.9308140     1.2745600    -1.3520490
  H        2.2359360     2.5841340    -0.2253410
  H        1.5370720     0.7103830     1.6057590
  H        3.1934550     0.7649280     0.9813470
  H        0.8461440    -2.0798130    -0.7458600
  H       -2.3558010     2.1909910     0.2008090
  H       -1.2325710    -2.5958500    -0.1409630
  H       -4.1571650     0.5114050     0.3790120
  H       -3.5892060    -1.9233590     0.1747080
units angstrom
no_reorient  #important for SAPT in psi4, default
symmetry c1  #important for SAPT in psi4, default
}

set PROPERTIES_ORIGIN ["COM"]
properties('MP2/aug-cc-pvtz', properties = ['dipole'])
--------------------------------------------------------------------------

    Molecular point group: c1
  Charge       = 0
  Multiplicity = 1
  Basis Set: AUG-CC-PVTZ
    Blend: AUG-CC-PVTZ
  Basis Set: (AUG-CC-PVTZ AUX)
    Blend: AUG-CC-PVTZ-JKFIT

    Orbital Energies [Eh]
    ---------------------

    Doubly Occupied:

       1A    -20.525509     2A    -15.595334     3A    -11.356866
       4A    -11.300685     5A    -11.258894     6A    -11.247087
       7A    -11.246849     8A    -11.244417     9A    -11.243673
      10A    -11.243239    11A    -11.242801    12A    -11.239801
      13A     -1.379926    14A     -1.252114    15A     -1.148720
      16A     -1.106048    17A     -1.040406    18A     -1.014309
      19A     -0.956302    20A     -0.884099    21A     -0.839864
      22A     -0.808105    23A     -0.765129    24A     -0.720026
      25A     -0.682382    26A     -0.672994    27A     -0.648232
      28A     -0.627184    29A     -0.612409    30A     -0.603141
      31A     -0.600260    32A     -0.581388    33A     -0.564340
      34A     -0.542110    35A     -0.516559    36A     -0.511748
      37A     -0.496772    38A     -0.492056    39A     -0.487037
      40A     -0.434900    41A     -0.425789    42A     -0.337986
      43A     -0.312807

  @DF-RHF Final Energy:  -514.58960341985903

   => Energetics <=

    Nuclear Repulsion Energy =            674.8406900375500754
    One-Electron Energy =               -2037.2399954690199593
    Two-Electron Energy =                 847.8097020116108524
    Total Energy =                       -514.5896034198590314
  Basis Set: (AUG-CC-PVTZ AUX)
    Blend: AUG-CC-PVTZ-RI
    Molecular point group: c1

    Geometry (in Angstrom), charge = 0, multiplicity = 1:

       Center              X                  Y                   Z               Mass
    ------------   -----------------  -----------------  -----------------  -----------------
         O            2.988035769012    -1.511692927053     0.078318343492    15.994914619570
         N            0.819252769012    -1.077670927053    -0.418693656508    14.003074004430
         C            0.183509769012     1.988063072947    -0.236633656508    12.000000000000
         C            1.673275769012     1.682505072947    -0.347987656508    12.000000000000
         C           -0.748233930988     0.861186772947    -0.104144656508    12.000000000000
         C            2.135690769012     0.662698072947     0.700019343492    12.000000000000
         C           -0.472116230988    -0.550289927053    -0.176184656508    12.000000000000
         C            2.038530769012    -0.731027927053     0.138979343492    12.000000000000
         C           -2.122879230988     1.169794072947     0.127859343492    12.000000000000
         C           -1.504470230988    -1.502119927053    -0.082379656508    12.000000000000
         C           -3.143836230988     0.229665072947     0.217804343492    12.000000000000
         C           -2.827508230988    -1.125625927053     0.109809343492    12.000000000000
         H           -0.126688230988     2.588118072947    -1.102245656508     1.007825032230
         H            0.035513769012     2.632733072947     0.640153343492     1.007825032230
         H            1.918319769012     1.312220072947    -1.349179656508     1.007825032230
         H            2.223441769012     2.621794072947    -0.222471656508     1.007825032230
         H            1.524577769012     0.748043072947     1.608628343492     1.007825032230
         H            3.180960769012     0.802588072947     0.984216343492     1.007825032230
         H            0.833649769012    -2.042152927053    -0.742990656508     1.007825032230
         H           -2.368295230988     2.228651072947     0.203678343492     1.007825032230
         H           -1.245065230988    -2.558189927053    -0.138093656508     1.007825032230
         H           -4.169659230988     0.549065072947     0.381881343492     1.007825032230
         H           -3.601700230988    -1.885698927053     0.177577343492     1.007825032230

  Basis Set: AUG-CC-PVTZ
    Blend: AUG-CC-PVTZ
  Basis Set: (AUG-CC-PVTZ AUX)
    Blend: AUG-CC-PVTZ-JKFIT
	 Reference Energy          =    -514.5896034198590314 [Eh]
	 Singles Energy            =      -0.0000000000000000 [Eh]
	 Same-Spin Energy          =      -0.5585674436870782 [Eh]
	 Opposite-Spin Energy      =      -1.7441104660244653 [Eh]
	 Correlation Energy        =      -2.3026779097115435 [Eh]
	 Total Energy              =    -516.8922813295705510 [Eh]

	 ================> DF-SCS-MP2 Energies <==================
	-----------------------------------------------------------
	 SCS Same-Spin Scale       =       0.3333333333333333 [-]
	 SCS Opposite-Spin Scale   =       1.2000000000000000 [-]
	 SCS Same-Spin Energy      =      -0.1861891478956927 [Eh]
	 SCS Opposite-Spin Energy  =      -2.0929325592293582 [Eh]
	 SCS Correlation Energy    =      -2.2791217071250509 [Eh]
	 SCS Total Energy          =    -516.8687251269840317 [Eh]
	-----------------------------------------------------------

  Dipole Moment: [D]
     X:    -2.6971      Y:     2.0962      Z:     0.0247     Total:     3.4160

*** Psi4 exiting successfully. Buy a developer a beer!
