                               Psi4 1.4a3.dev225

  ==> Input File <==

--------------------------------------------------------------------------
#psi4
#
memory 32 gb

molecule  {
0 1
  O        3.0005300    -1.5493530     0.0754490
  N        0.8317470    -1.1153310    -0.4215630
  C        0.1960040     1.9504030    -0.2395030
  C        1.6857700     1.6448450    -0.3508570
  C       -0.7674710     0.7851500    -0.1025020
  C        2.1481850     0.6250380     0.6971500
  C       -0.4596220    -0.5879500    -0.1790540
  C        2.0510250    -0.7686880     0.1361100
  C       -2.1103850     1.1321340     0.1249900
  C       -1.4919760    -1.5397800    -0.0852490
  C       -3.1313420     0.1920050     0.2149350
  C       -2.8150140    -1.1632860     0.1069400
  H       -0.1141940     2.5504580    -1.1051150
  H        0.0480080     2.5950730     0.6372840
  H        1.9308140     1.2745600    -1.3520490
  H        2.2359360     2.5841340    -0.2253410
  H        1.5370720     0.7103830     1.6057590
  H        3.1934550     0.7649280     0.9813470
  H        0.8458611    -2.0608578    -0.7394865
  H       -2.3558010     2.1909910     0.2008090
  H       -1.2325710    -2.5958500    -0.1409630
  H       -4.1571650     0.5114050     0.3790120
  H       -3.5892060    -1.9233590     0.1747080
units angstrom
no_reorient  #important for SAPT in psi4, default
symmetry c1  #important for SAPT in psi4, default
}

set PROPERTIES_ORIGIN ["COM"]
properties('MP2/aug-cc-pvtz', properties = ['dipole'])
--------------------------------------------------------------------------

    Molecular point group: c1
  Charge       = 0
  Multiplicity = 1
  Basis Set: AUG-CC-PVTZ
    Blend: AUG-CC-PVTZ
  Basis Set: (AUG-CC-PVTZ AUX)
    Blend: AUG-CC-PVTZ-JKFIT

    Orbital Energies [Eh]
    ---------------------

    Doubly Occupied:

       1A    -20.525832     2A    -15.594359     3A    -11.357069
       4A    -11.297345     5A    -11.255263     6A    -11.246547
       7A    -11.245092     8A    -11.245018     9A    -11.244551
      10A    -11.242889    11A    -11.242193    12A    -11.239941
      13A     -1.380530    14A     -1.254846    15A     -1.152031
      16A     -1.102004    17A     -1.038988    18A     -1.016403
      19A     -0.957767    20A     -0.880690    21A     -0.843399
      22A     -0.808964    23A     -0.767713    24A     -0.723308
      25A     -0.682129    26A     -0.671219    27A     -0.646482
      28A     -0.629269    29A     -0.611550    30A     -0.603217
      31A     -0.601221    32A     -0.579394    33A     -0.565119
      34A     -0.542206    35A     -0.517744    36A     -0.510882
      37A     -0.498281    38A     -0.492066    39A     -0.482882
      40A     -0.435588    41A     -0.426025    42A     -0.340621
      43A     -0.316189

  @DF-RHF Final Energy:  -514.59486791502275

   => Energetics <=

    Nuclear Repulsion Energy =            675.1953721573559051
    One-Electron Energy =               -2037.9508255909495347
    Two-Electron Energy =                 848.1605855185708833
    Total Energy =                       -514.5948679150227463
  Basis Set: (AUG-CC-PVTZ AUX)
    Blend: AUG-CC-PVTZ-RI
    Molecular point group: c1

    Geometry (in Angstrom), charge = 0, multiplicity = 1:

       Center              X                  Y                   Z               Mass
    ------------   -----------------  -----------------  -----------------  -----------------
         O            2.990401370576    -1.508952638137     0.077942344952    15.994914619570
         N            0.821618370576    -1.074930638137    -0.419069655048    14.003074004430
         C            0.185875370576     1.990803361863    -0.237009655048    12.000000000000
         C            1.675641370576     1.685245361863    -0.348363655048    12.000000000000
         C           -0.777599629424     0.825550361863    -0.100008655048    12.000000000000
         C            2.138056370576     0.665438361863     0.699643344952    12.000000000000
         C           -0.469750629424    -0.547549638137    -0.176560655048    12.000000000000
         C            2.040896370576    -0.728287638137     0.138603344952    12.000000000000
         C           -2.120513629424     1.172534361863     0.127483344952    12.000000000000
         C           -1.502104629424    -1.499379638137    -0.082755655048    12.000000000000
         C           -3.141470629424     0.232405361863     0.217428344952    12.000000000000
         C           -2.825142629424    -1.122885638137     0.109433344952    12.000000000000
         H           -0.124322629424     2.590858361863    -1.102621655048     1.007825032230
         H            0.037879370576     2.635473361863     0.639777344952     1.007825032230
         H            1.920685370576     1.314960361863    -1.349555655048     1.007825032230
         H            2.225807370576     2.624534361863    -0.222847655048     1.007825032230
         H            1.526943370576     0.750783361863     1.608252344952     1.007825032230
         H            3.183326370576     0.805328361863     0.983840344952     1.007825032230
         H            0.835732470576    -2.020457438137    -0.736993155048     1.007825032230
         H           -2.365929629424     2.231391361863     0.203302344952     1.007825032230
         H           -1.242699629424    -2.555449638137    -0.138469655048     1.007825032230
         H           -4.167293629424     0.551805361863     0.381505344952     1.007825032230
         H           -3.599334629424    -1.882958638137     0.177201344952     1.007825032230

  Basis Set: AUG-CC-PVTZ
    Blend: AUG-CC-PVTZ
  Basis Set: (AUG-CC-PVTZ AUX)
    Blend: AUG-CC-PVTZ-JKFIT
	 Reference Energy          =    -514.5948679150227463 [Eh]
	 Singles Energy            =      -0.0000000000000000 [Eh]
	 Same-Spin Energy          =      -0.5576911970710543 [Eh]
	 Opposite-Spin Energy      =      -1.7426471574656146 [Eh]
	 Correlation Energy        =      -2.3003383545366689 [Eh]
	 Total Energy              =    -516.8952062695593668 [Eh]

	 ================> DF-SCS-MP2 Energies <==================
	-----------------------------------------------------------
	 SCS Same-Spin Scale       =       0.3333333333333333 [-]
	 SCS Opposite-Spin Scale   =       1.2000000000000000 [-]
	 SCS Same-Spin Energy      =      -0.1858970656903514 [Eh]
	 SCS Opposite-Spin Energy  =      -2.0911765889587373 [Eh]
	 SCS Correlation Energy    =      -2.2770736546490888 [Eh]
	 SCS Total Energy          =    -516.8719415696718897 [Eh]
	-----------------------------------------------------------

  Dipole Moment: [D]
     X:    -2.7428      Y:     2.0765      Z:     0.0408     Total:     3.4404

*** Psi4 exiting successfully. Buy a developer a beer!
