                               Psi4 1.3.2 release

  ==> Input File <==

--------------------------------------------------------------------------
#psi4
#
memory 32 gb

molecule  {
0 1
  O        3.0005300    -1.5493530     0.0754490
  N        0.8317470    -1.1153310    -0.4215630
  C        0.1960040     1.9504030    -0.2395030
  C        1.6857700     1.6448450    -0.3508570
  C       -0.7674710     0.7851500    -0.1025020
  C        2.1481850     0.6250380     0.6971500
  C       -0.4596220    -0.5879500    -0.1790540
  C        2.0510250    -0.7686880     0.1361100
  C       -2.1103850     1.1321340     0.1249900
  C       -1.4919760    -1.5397800    -0.0852490
  C       -3.1313420     0.1920050     0.2149350
  C       -2.8150140    -1.1632860     0.1069400
  H       -0.1141940     2.5504580    -1.1051150
  H        0.0480080     2.5950730     0.6372840
  H        1.9308140     1.2745600    -1.3520490
  H        2.2359360     2.5841340    -0.2253410
  H        1.5370720     0.7103830     1.6057590
  H        3.1934550     0.7649280     0.9813470
  H        0.8489735    -2.2693648    -0.8095948
  H       -2.3558010     2.1909910     0.2008090
  H       -1.2325710    -2.5958500    -0.1409630
  H       -4.1571650     0.5114050     0.3790120
  H       -3.5892060    -1.9233590     0.1747080
units angstrom
no_reorient  #important for SAPT in psi4, default
symmetry c1  #important for SAPT in psi4, default
}

set PROPERTIES_ORIGIN ["COM"]
properties('MP2/aug-cc-pvtz', properties = ['dipole'])
--------------------------------------------------------------------------

    Molecular point group: c1
  Charge       = 0
  Multiplicity = 1
  Basis Set: AUG-CC-PVTZ
    Blend: AUG-CC-PVTZ
  Basis Set: (AUG-CC-PVTZ AUX)
    Blend: AUG-CC-PVTZ-JKFIT

    Orbital Energies [Eh]
    ---------------------

    Doubly Occupied:

       1A    -20.523827     2A    -15.610214     3A    -11.356207
       4A    -11.297086     5A    -11.254820     6A    -11.245735
       7A    -11.244569     8A    -11.244498     9A    -11.243488
      10A    -11.243196    11A    -11.241797    12A    -11.239083
      13A     -1.376485    14A     -1.240285    15A     -1.147468
      16A     -1.100194    17A     -1.038407    18A     -1.013938
      19A     -0.952796    20A     -0.878801    21A     -0.838961
      22A     -0.807248    23A     -0.753205    24A     -0.706922
      25A     -0.677107    26A     -0.666707    27A     -0.641983
      28A     -0.626044    29A     -0.609428    30A     -0.602046
      31A     -0.597288    32A     -0.574064    33A     -0.554139
      34A     -0.541079    35A     -0.516807    36A     -0.509991
      37A     -0.497605    38A     -0.489441    39A     -0.482034
      40A     -0.432774    41A     -0.424845    42A     -0.339933
      43A     -0.314336

  @DF-RHF Final Energy:  -514.56432981404396

   => Energetics <=

    Nuclear Repulsion Energy =            673.8965650079813940
    One-Electron Energy =               -2035.5280271805438588
    Two-Electron Energy =                 847.0671323585183927
    Total Energy =                       -514.5643298140439583
  Basis Set: (AUG-CC-PVTZ AUX)
    Blend: AUG-CC-PVTZ-RI
    Molecular point group: c1

    Geometry (in Angstrom), charge = 0, multiplicity = 1:

       Center              X                  Y                   Z               Mass
    ------------   -----------------  -----------------  -----------------  -----------------
         O            2.990381897795    -1.507648110745     0.078380978656    15.994914619570
         N            0.821598897795    -1.073626110745    -0.418631021344    14.003074004430
         C            0.185855897795     1.992107889255    -0.236571021344    12.000000000000
         C            1.675621897795     1.686549889255    -0.347925021344    12.000000000000
         C           -0.777619102205     0.826854889255    -0.099570021344    12.000000000000
         C            2.138036897795     0.666742889255     0.700081978656    12.000000000000
         C           -0.469770102205    -0.546245110745    -0.176122021344    12.000000000000
         C            2.040876897795    -0.726983110745     0.139041978656    12.000000000000
         C           -2.120533102205     1.173838889255     0.127921978656    12.000000000000
         C           -1.502124102205    -1.498075110745    -0.082317021344    12.000000000000
         C           -3.141490102205     0.233709889255     0.217866978656    12.000000000000
         C           -2.825162102205    -1.121581110745     0.109871978656    12.000000000000
         H           -0.124342102205     2.592162889255    -1.102183021344     1.007825032230
         H            0.037859897795     2.636777889255     0.640215978656     1.007825032230
         H            1.920665897795     1.316264889255    -1.349117021344     1.007825032230
         H            2.225787897795     2.625838889255    -0.222409021344     1.007825032230
         H            1.526923897795     0.752087889255     1.608690978656     1.007825032230
         H            3.183306897795     0.806632889255     0.984278978656     1.007825032230
         H            0.838825397795    -2.227659910745    -0.806662821344     1.007825032230
         H           -2.365949102205     2.232695889255     0.203740978656     1.007825032230
         H           -1.242719102205    -2.554145110745    -0.138031021344     1.007825032230
         H           -4.167313102205     0.553109889255     0.381943978656     1.007825032230
         H           -3.599354102205    -1.881654110745     0.177639978656     1.007825032230

  Basis Set: AUG-CC-PVTZ
    Blend: AUG-CC-PVTZ
  Basis Set: (AUG-CC-PVTZ AUX)
    Blend: AUG-CC-PVTZ-JKFIT
	 Reference Energy          =    -514.5643298140439583 [Eh]
	 Singles Energy            =      -0.0000000000000000 [Eh]
	 Same-Spin Energy          =      -0.5598428261142743 [Eh]
	 Opposite-Spin Energy      =      -1.7477763011291407 [Eh]
	 Correlation Energy        =      -2.3076191272434148 [Eh]
	 Total Energy              =    -516.8719489412874282 [Eh]

	 ================> DF-SCS-MP2 Energies <==================
	-----------------------------------------------------------
	 SCS Same-Spin Scale       =       0.3333333333333333 [-]
	 SCS Opposite-Spin Scale   =       1.2000000000000000 [-]
	 SCS Same-Spin Energy      =      -0.1866142753714247 [Eh]
	 SCS Opposite-Spin Energy  =      -2.0973315613549688 [Eh]
	 SCS Correlation Energy    =      -2.2839458367263936 [Eh]
	 SCS Total Energy          =    -516.8482756507703471 [Eh]
	-----------------------------------------------------------

  Dipole Moment: [D]
     X:    -2.7220      Y:     1.9234      Z:    -0.0189     Total:     3.3330

*** Psi4 exiting successfully. Buy a developer a beer!
