                               Psi4 1.4a3.dev225

  ==> Input File <==

--------------------------------------------------------------------------
#psi4
#
memory 32 gb

molecule  {
0 1
  O        3.0005300    -1.5493530     0.0754490
  N        0.8317470    -1.1153310    -0.4215630
  C        0.1960040     1.9504030    -0.2395030
  C        1.6857700     1.6448450    -0.3508570
  C       -0.7674710     0.7851500    -0.1025020
  C        2.1481850     0.6250380     0.6971500
  C       -0.4705443    -0.5392332    -0.1763380
  C        2.0510250    -0.7686880     0.1361100
  C       -2.1103850     1.1321340     0.1249900
  C       -1.4919760    -1.5397800    -0.0852490
  C       -3.1313420     0.1920050     0.2149350
  C       -2.8150140    -1.1632860     0.1069400
  H       -0.1141940     2.5504580    -1.1051150
  H        0.0480080     2.5950730     0.6372840
  H        1.9308140     1.2745600    -1.3520490
  H        2.2359360     2.5841340    -0.2253410
  H        1.5370720     0.7103830     1.6057590
  H        3.1934550     0.7649280     0.9813470
  H        0.8461440    -2.0798130    -0.7458600
  H       -2.3558010     2.1909910     0.2008090
  H       -1.2325710    -2.5958500    -0.1409630
  H       -4.1571650     0.5114050     0.3790120
  H       -3.5892060    -1.9233590     0.1747080
units angstrom
no_reorient  #important for SAPT in psi4, default
symmetry c1  #important for SAPT in psi4, default
}

set PROPERTIES_ORIGIN ["COM"]
properties('MP2/aug-cc-pvtz', properties = ['dipole'])
--------------------------------------------------------------------------

    Molecular point group: c1
  Charge       = 0
  Multiplicity = 1
  Basis Set: AUG-CC-PVTZ
    Blend: AUG-CC-PVTZ
  Basis Set: (AUG-CC-PVTZ AUX)
    Blend: AUG-CC-PVTZ-JKFIT

    Orbital Energies [Eh]
    ---------------------

    Doubly Occupied:

       1A    -20.522768     2A    -15.594166     3A    -11.353957
       4A    -11.296079     5A    -11.250907     6A    -11.248765
       7A    -11.246848     8A    -11.246603     9A    -11.245390
      10A    -11.242161    11A    -11.241489    12A    -11.241294
      13A     -1.377067    14A     -1.245728    15A     -1.154552
      16A     -1.101167    17A     -1.042481    18A     -1.013584
      19A     -0.959606    20A     -0.877325    21A     -0.847314
      22A     -0.807775    23A     -0.762627    24A     -0.718872
      25A     -0.680404    26A     -0.672103    27A     -0.645133
      28A     -0.630575    29A     -0.610666    30A     -0.601576
      31A     -0.599248    32A     -0.579673    33A     -0.564012
      34A     -0.541058    35A     -0.520066    36A     -0.511030
      37A     -0.498878    38A     -0.492390    39A     -0.481592
      40A     -0.432204    41A     -0.423007    42A     -0.342152
      43A     -0.320682

  @DF-RHF Final Energy:  -514.59189410970203

   => Energetics <=

    Nuclear Repulsion Energy =            675.3153620344476167
    One-Electron Energy =               -2038.2445637397634073
    Two-Electron Energy =                 848.3373075956137654
    Total Energy =                       -514.5918941097020252
  Basis Set: (AUG-CC-PVTZ AUX)
    Blend: AUG-CC-PVTZ-RI
    Molecular point group: c1

    Geometry (in Angstrom), charge = 0, multiplicity = 1:

       Center              X                  Y                   Z               Mass
    ------------   -----------------  -----------------  -----------------  -----------------
         O            2.991213260238    -1.512463215540     0.077779891718    15.994914619570
         N            0.822430260238    -1.078441215540    -0.419232108282    14.003074004430
         C            0.186687260238     1.987292784460    -0.237172108282    12.000000000000
         C            1.676453260238     1.681734784460    -0.348526108282    12.000000000000
         C           -0.776787739762     0.822039784460    -0.100171108282    12.000000000000
         C            2.138868260238     0.661927784460     0.699480891718    12.000000000000
         C           -0.479861039762    -0.502343415540    -0.174007108282    12.000000000000
         C            2.041708260238    -0.731798215540     0.138440891718    12.000000000000
         C           -2.119701739762     1.169023784460     0.127320891718    12.000000000000
         C           -1.501292739762    -1.502890215540    -0.082918108282    12.000000000000
         C           -3.140658739762     0.228894784460     0.217265891718    12.000000000000
         C           -2.824330739762    -1.126396215540     0.109270891718    12.000000000000
         H           -0.123510739762     2.587347784460    -1.102784108282     1.007825032230
         H            0.038691260238     2.631962784460     0.639614891718     1.007825032230
         H            1.921497260238     1.311449784460    -1.349718108282     1.007825032230
         H            2.226619260238     2.621023784460    -0.223010108282     1.007825032230
         H            1.527755260238     0.747272784460     1.608089891718     1.007825032230
         H            3.184138260238     0.801817784460     0.983677891718     1.007825032230
         H            0.836827260238    -2.042923215540    -0.743529108282     1.007825032230
         H           -2.365117739762     2.227880784460     0.203139891718     1.007825032230
         H           -1.241887739762    -2.558960215540    -0.138632108282     1.007825032230
         H           -4.166481739762     0.548294784460     0.381342891718     1.007825032230
         H           -3.598522739762    -1.886469215540     0.177038891718     1.007825032230

  Basis Set: AUG-CC-PVTZ
    Blend: AUG-CC-PVTZ
  Basis Set: (AUG-CC-PVTZ AUX)
    Blend: AUG-CC-PVTZ-JKFIT
	 Reference Energy          =    -514.5918941097020252 [Eh]
	 Singles Energy            =      -0.0000000000000000 [Eh]
	 Same-Spin Energy          =      -0.5574266663162457 [Eh]
	 Opposite-Spin Energy      =      -1.7428072910179719 [Eh]
	 Correlation Energy        =      -2.3002339573342176 [Eh]
	 Total Energy              =    -516.8921280670361966 [Eh]

	 ================> DF-SCS-MP2 Energies <==================
	-----------------------------------------------------------
	 SCS Same-Spin Scale       =       0.3333333333333333 [-]
	 SCS Opposite-Spin Scale   =       1.2000000000000000 [-]
	 SCS Same-Spin Energy      =      -0.1858088887720819 [Eh]
	 SCS Opposite-Spin Energy  =      -2.0913687492215662 [Eh]
	 SCS Correlation Energy    =      -2.2771776379936481 [Eh]
	 SCS Total Energy          =    -516.8690717476956706 [Eh]
	-----------------------------------------------------------

  Dipole Moment: [D]
     X:    -2.9233      Y:     2.1036      Z:     0.0376     Total:     3.6017

*** Psi4 exiting successfully. Buy a developer a beer!
