                               Psi4 1.3.2 release

  ==> Input File <==

--------------------------------------------------------------------------
#psi4
#
memory 32 gb

molecule  {
0 1
  O        3.0005300    -1.5493530     0.0754490
  N        0.8317470    -1.1153310    -0.4215630
  C        0.1960040     1.9504030    -0.2395030
  C        1.6857700     1.6448450    -0.3508570
  C       -0.7614321     0.8089152    -0.1017789
  C        2.1481850     0.6250380     0.6971500
  C       -0.4596220    -0.5879500    -0.1790540
  C        2.0510250    -0.7686880     0.1361100
  C       -2.1103850     1.1321340     0.1249900
  C       -1.4919760    -1.5397800    -0.0852490
  C       -3.1313420     0.1920050     0.2149350
  C       -2.8150140    -1.1632860     0.1069400
  H       -0.1141940     2.5504580    -1.1051150
  H        0.0480080     2.5950730     0.6372840
  H        1.9308140     1.2745600    -1.3520490
  H        2.2359360     2.5841340    -0.2253410
  H        1.5370720     0.7103830     1.6057590
  H        3.1934550     0.7649280     0.9813470
  H        0.8461440    -2.0798130    -0.7458600
  H       -2.3558010     2.1909910     0.2008090
  H       -1.2325710    -2.5958500    -0.1409630
  H       -4.1571650     0.5114050     0.3790120
  H       -3.5892060    -1.9233590     0.1747080
units angstrom
no_reorient  #important for SAPT in psi4, default
symmetry c1  #important for SAPT in psi4, default
}

set PROPERTIES_ORIGIN ["COM"]
properties('MP2/aug-cc-pvtz', properties = ['dipole'])
--------------------------------------------------------------------------

    Molecular point group: c1
  Charge       = 0
  Multiplicity = 1
  Basis Set: AUG-CC-PVTZ
    Blend: AUG-CC-PVTZ
  Basis Set: (AUG-CC-PVTZ AUX)
    Blend: AUG-CC-PVTZ-JKFIT

    Orbital Energies [Eh]
    ---------------------

    Doubly Occupied:

       1A    -20.525773     2A    -15.596207     3A    -11.357086
       4A    -11.299632     5A    -11.256869     6A    -11.246472
       7A    -11.244839     8A    -11.244212     9A    -11.244209
      10A    -11.243286    11A    -11.242697    12A    -11.239686
      13A     -1.380181    14A     -1.252516    15A     -1.150614
      16A     -1.103614    17A     -1.039692    18A     -1.015422
      19A     -0.956664    20A     -0.882288    21A     -0.840893
      22A     -0.808529    23A     -0.766018    24A     -0.721038
      25A     -0.682058    26A     -0.671583    27A     -0.647084
      28A     -0.627927    29A     -0.611531    30A     -0.603192
      31A     -0.601054    32A     -0.579868    33A     -0.564650
      34A     -0.542354    35A     -0.516997    36A     -0.511232
      37A     -0.497672    38A     -0.490973    39A     -0.486115
      40A     -0.435258    41A     -0.426036    42A     -0.340448
      43A     -0.313604

  @DF-RHF Final Energy:  -514.59293014179264

   => Energetics <=

    Nuclear Repulsion Energy =            674.8857423752126579
    One-Electron Energy =               -2037.3411988271375321
    Two-Electron Energy =                 847.8625263101322389
    Total Energy =                       -514.5929301417926354
  Basis Set: (AUG-CC-PVTZ AUX)
    Blend: AUG-CC-PVTZ-RI
    Molecular point group: c1

    Geometry (in Angstrom), charge = 0, multiplicity = 1:

       Center              X                  Y                   Z               Mass
    ------------   -----------------  -----------------  -----------------  -----------------
         O            2.989949731153    -1.510604439491     0.077928353331    15.994914619570
         N            0.821166731153    -1.076582439491    -0.419083646669    14.003074004430
         C            0.185423731153     1.989151560509    -0.237023646669    12.000000000000
         C            1.675189731153     1.683593560509    -0.348377646669    12.000000000000
         C           -0.772012368847     0.847663760509    -0.099299546669    12.000000000000
         C            2.137604731153     0.663786560509     0.699629353331    12.000000000000
         C           -0.470202268847    -0.549201439491    -0.176574646669    12.000000000000
         C            2.040444731153    -0.729939439491     0.138589353331    12.000000000000
         C           -2.120965268847     1.170882560509     0.127469353331    12.000000000000
         C           -1.502556268847    -1.501031439491    -0.082769646669    12.000000000000
         C           -3.141922268847     0.230753560509     0.217414353331    12.000000000000
         C           -2.825594268847    -1.124537439491     0.109419353331    12.000000000000
         H           -0.124774268847     2.589206560509    -1.102635646669     1.007825032230
         H            0.037427731153     2.633821560509     0.639763353331     1.007825032230
         H            1.920233731153     1.313308560509    -1.349569646669     1.007825032230
         H            2.225355731153     2.622882560509    -0.222861646669     1.007825032230
         H            1.526491731153     0.749131560509     1.608238353331     1.007825032230
         H            3.182874731153     0.803676560509     0.983826353331     1.007825032230
         H            0.835563731153    -2.041064439491    -0.743380646669     1.007825032230
         H           -2.366381268847     2.229739560509     0.203288353331     1.007825032230
         H           -1.243151268847    -2.557101439491    -0.138483646669     1.007825032230
         H           -4.167745268847     0.550153560509     0.381491353331     1.007825032230
         H           -3.599786268847    -1.884610439491     0.177187353331     1.007825032230

  Basis Set: AUG-CC-PVTZ
    Blend: AUG-CC-PVTZ
  Basis Set: (AUG-CC-PVTZ AUX)
    Blend: AUG-CC-PVTZ-JKFIT
	 Reference Energy          =    -514.5929301417926354 [Eh]
	 Singles Energy            =      -0.0000000000000000 [Eh]
	 Same-Spin Energy          =      -0.5581712276711379 [Eh]
	 Opposite-Spin Energy      =      -1.7434447665976605 [Eh]
	 Correlation Energy        =      -2.3016159942687984 [Eh]
	 Total Energy              =    -516.8945461360614217 [Eh]

	 ================> DF-SCS-MP2 Energies <==================
	-----------------------------------------------------------
	 SCS Same-Spin Scale       =       0.3333333333333333 [-]
	 SCS Opposite-Spin Scale   =       1.2000000000000000 [-]
	 SCS Same-Spin Energy      =      -0.1860570758903793 [Eh]
	 SCS Opposite-Spin Energy  =      -2.0921337199171925 [Eh]
	 SCS Correlation Energy    =      -2.2781907958075718 [Eh]
	 SCS Total Energy          =    -516.8711209376001534 [Eh]
	-----------------------------------------------------------

  Dipole Moment: [D]
     X:    -2.7057      Y:     2.0734      Z:     0.0285     Total:     3.4089

*** Psi4 exiting successfully. Buy a developer a beer!
