                               Psi4 1.3.2 release

  ==> Input File <==

--------------------------------------------------------------------------
#psi4
#
memory 32 gb

molecule  {
0 1
  O        3.0005300    -1.5493530     0.0754490
  N        0.8317470    -1.1153310    -0.4215630
  C        0.1960040     1.9504030    -0.2395030
  C        1.6857700     1.6448450    -0.3508570
  C       -0.7674710     0.7851500    -0.1025020
  C        2.1481850     0.6250380     0.6971500
  C       -0.4159328    -0.7828172    -0.1899181
  C        2.0510250    -0.7686880     0.1361100
  C       -2.1103850     1.1321340     0.1249900
  C       -1.4919760    -1.5397800    -0.0852490
  C       -3.1313420     0.1920050     0.2149350
  C       -2.8150140    -1.1632860     0.1069400
  H       -0.1141940     2.5504580    -1.1051150
  H        0.0480080     2.5950730     0.6372840
  H        1.9308140     1.2745600    -1.3520490
  H        2.2359360     2.5841340    -0.2253410
  H        1.5370720     0.7103830     1.6057590
  H        3.1934550     0.7649280     0.9813470
  H        0.8461440    -2.0798130    -0.7458600
  H       -2.3558010     2.1909910     0.2008090
  H       -1.2325710    -2.5958500    -0.1409630
  H       -4.1571650     0.5114050     0.3790120
  H       -3.5892060    -1.9233590     0.1747080
units angstrom
no_reorient  #important for SAPT in psi4, default
symmetry c1  #important for SAPT in psi4, default
}

set PROPERTIES_ORIGIN ["COM"]
properties('MP2/aug-cc-pvtz', properties = ['dipole'])
--------------------------------------------------------------------------

    Molecular point group: c1
  Charge       = 0
  Multiplicity = 1
  Basis Set: AUG-CC-PVTZ
    Blend: AUG-CC-PVTZ
  Basis Set: (AUG-CC-PVTZ AUX)
    Blend: AUG-CC-PVTZ-JKFIT

    Orbital Energies [Eh]
    ---------------------

    Doubly Occupied:

       1A    -20.537786     2A    -15.603584     3A    -11.369623
       4A    -11.299918     5A    -11.264716     6A    -11.247278
       7A    -11.243899     8A    -11.243172     9A    -11.242768
      10A    -11.238003    11A    -11.235335    12A    -11.229817
      13A     -1.393235    14A     -1.287118    15A     -1.142399
      16A     -1.105331    17A     -1.032281    18A     -1.025335
      19A     -0.949620    20A     -0.893604    21A     -0.839159
      22A     -0.803708    23A     -0.780417    24A     -0.729587
      25A     -0.688661    26A     -0.671003    27A     -0.650189
      28A     -0.626488    29A     -0.614380    30A     -0.606650
      31A     -0.601955    32A     -0.573244    33A     -0.565300
      34A     -0.546479    35A     -0.516482    36A     -0.508686
      37A     -0.501142    38A     -0.486432    39A     -0.465158
      40A     -0.442986    41A     -0.435876    42A     -0.344305
      43A     -0.295802

  @DF-RHF Final Energy:  -514.54864509600930

   => Energetics <=

    Nuclear Repulsion Energy =            674.2973811678917855
    One-Electron Energy =               -2035.9342301994006448
    Two-Electron Energy =                 847.0882039354996778
    Total Energy =                       -514.5486450960092952
  Basis Set: (AUG-CC-PVTZ AUX)
    Blend: AUG-CC-PVTZ-RI
    Molecular point group: c1

    Geometry (in Angstrom), charge = 0, multiplicity = 1:

       Center              X                  Y                   Z               Mass
    ------------   -----------------  -----------------  -----------------  -----------------
         O            2.987144962085    -1.494317360961     0.078791544863    15.994914619570
         N            0.818361962085    -1.060295360961    -0.418220455137    14.003074004430
         C            0.182618962085     2.005438639039    -0.236160455137    12.000000000000
         C            1.672384962085     1.699880639039    -0.347514455137    12.000000000000
         C           -0.780856037915     0.840185639039    -0.099159455137    12.000000000000
         C            2.134799962085     0.680073639039     0.700492544863    12.000000000000
         C           -0.429317837915    -0.727781560961    -0.186575555137    12.000000000000
         C            2.037639962085    -0.713652360961     0.139452544863    12.000000000000
         C           -2.123770037915     1.187169639039     0.128332544863    12.000000000000
         C           -1.505361037915    -1.484744360961    -0.081906455137    12.000000000000
         C           -3.144727037915     0.247040639039     0.218277544863    12.000000000000
         C           -2.828399037915    -1.108250360961     0.110282544863    12.000000000000
         H           -0.127579037915     2.605493639039    -1.101772455137     1.007825032230
         H            0.034622962085     2.650108639039     0.640626544863     1.007825032230
         H            1.917428962085     1.329595639039    -1.348706455137     1.007825032230
         H            2.222550962085     2.639169639039    -0.221998455137     1.007825032230
         H            1.523686962085     0.765418639039     1.609101544863     1.007825032230
         H            3.180069962085     0.819963639039     0.984689544863     1.007825032230
         H            0.832758962085    -2.024777360961    -0.742517455137     1.007825032230
         H           -2.369186037915     2.246026639039     0.204151544863     1.007825032230
         H           -1.245956037915    -2.540814360961    -0.137620455137     1.007825032230
         H           -4.170550037915     0.566440639039     0.382354544863     1.007825032230
         H           -3.602591037915    -1.868323360961     0.178050544863     1.007825032230

  Basis Set: AUG-CC-PVTZ
    Blend: AUG-CC-PVTZ
  Basis Set: (AUG-CC-PVTZ AUX)
    Blend: AUG-CC-PVTZ-JKFIT
	 Reference Energy          =    -514.5486450960092952 [Eh]
	 Singles Energy            =      -0.0000000000000000 [Eh]
	 Same-Spin Energy          =      -0.5591131099989944 [Eh]
	 Opposite-Spin Energy      =      -1.7465180422317557 [Eh]
	 Correlation Energy        =      -2.3056311522307502 [Eh]
	 Total Energy              =    -516.8542762482400121 [Eh]

	 ================> DF-SCS-MP2 Energies <==================
	-----------------------------------------------------------
	 SCS Same-Spin Scale       =       0.3333333333333333 [-]
	 SCS Opposite-Spin Scale   =       1.2000000000000000 [-]
	 SCS Same-Spin Energy      =      -0.1863710366663315 [Eh]
	 SCS Opposite-Spin Energy  =      -2.0958216506781069 [Eh]
	 SCS Correlation Energy    =      -2.2821926873444385 [Eh]
	 SCS Total Energy          =    -516.8308377833537861 [Eh]
	-----------------------------------------------------------

  Dipole Moment: [D]
     X:    -2.0043      Y:     1.8981      Z:     0.0335     Total:     2.7606

*** Psi4 exiting successfully. Buy a developer a beer!
