                               Psi4 1.3.2 release

  ==> Input File <==

--------------------------------------------------------------------------
#psi4
#
memory 32 gb

molecule  {
0 1
  O        3.0005300    -1.5493530     0.0754490
  N        0.8317470    -1.1153310    -0.4215630
  C        0.1960040     1.9504030    -0.2395030
  C        1.6857700     1.6448450    -0.3508570
  C       -0.7674710     0.7851500    -0.1025020
  C        2.1481850     0.6250380     0.6971500
  C       -0.4596220    -0.5879500    -0.1790540
  C        1.8967246    -0.6418251     0.1459678
  C       -2.1103850     1.1321340     0.1249900
  C       -1.4919760    -1.5397800    -0.0852490
  C       -3.1313420     0.1920050     0.2149350
  C       -2.8150140    -1.1632860     0.1069400
  H       -0.1141940     2.5504580    -1.1051150
  H        0.0480080     2.5950730     0.6372840
  H        1.9308140     1.2745600    -1.3520490
  H        2.2359360     2.5841340    -0.2253410
  H        1.5370720     0.7103830     1.6057590
  H        3.1934550     0.7649280     0.9813470
  H        0.8461440    -2.0798130    -0.7458600
  H       -2.3558010     2.1909910     0.2008090
  H       -1.2325710    -2.5958500    -0.1409630
  H       -4.1571650     0.5114050     0.3790120
  H       -3.5892060    -1.9233590     0.1747080
units angstrom
no_reorient  #important for SAPT in psi4, default
symmetry c1  #important for SAPT in psi4, default
}

set PROPERTIES_ORIGIN ["COM"]
properties('MP2/aug-cc-pvtz', properties = ['dipole'])
--------------------------------------------------------------------------

    Molecular point group: c1
  Charge       = 0
  Multiplicity = 1
  Basis Set: AUG-CC-PVTZ
    Blend: AUG-CC-PVTZ
  Basis Set: (AUG-CC-PVTZ AUX)
    Blend: AUG-CC-PVTZ-JKFIT

    Orbital Energies [Eh]
    ---------------------

    Doubly Occupied:

       1A    -20.485548     2A    -15.622144     3A    -11.357222
       4A    -11.304197     5A    -11.265934     6A    -11.254981
       7A    -11.253736     8A    -11.253325     9A    -11.252934
      10A    -11.250112    11A    -11.249045    12A    -11.247092
      13A     -1.337584    14A     -1.213211    15A     -1.160032
      16A     -1.117936    17A     -1.053143    18A     -1.027996
      19A     -0.975052    20A     -0.896098    21A     -0.853341
      22A     -0.826628    23A     -0.785858    24A     -0.733746
      25A     -0.692574    26A     -0.678976    27A     -0.655476
      28A     -0.634417    29A     -0.620069    30A     -0.611876
      31A     -0.603108    32A     -0.576490    33A     -0.553367
      34A     -0.542737    35A     -0.518083    36A     -0.510896
      37A     -0.501403    38A     -0.483950    39A     -0.476654
      40A     -0.396064    41A     -0.392737    42A     -0.348853
      43A     -0.324952

  @DF-RHF Final Energy:  -514.52964056503595

   => Energetics <=

    Nuclear Repulsion Energy =            676.7796130760450524
    One-Electron Energy =               -2040.8193506217844515
    Two-Electron Energy =                 849.5100969807034517
    Total Energy =                       -514.5296405650359475
  Basis Set: (AUG-CC-PVTZ AUX)
    Blend: AUG-CC-PVTZ-RI
    Molecular point group: c1

    Geometry (in Angstrom), charge = 0, multiplicity = 1:

       Center              X                  Y                   Z               Mass
    ------------   -----------------  -----------------  -----------------  -----------------
         O            3.001894249763    -1.518284729952     0.077247861436    15.994914619570
         N            0.833111249763    -1.084262729952    -0.419764138564    14.003074004430
         C            0.197368249763     1.981471270048    -0.237704138564    12.000000000000
         C            1.687134249763     1.675913270048    -0.349058138564    12.000000000000
         C           -0.766106750237     0.816218270048    -0.100703138564    12.000000000000
         C            2.149549249763     0.656106270048     0.698948861436    12.000000000000
         C           -0.458257750237    -0.556881729952    -0.177255138564    12.000000000000
         C            1.898088849763    -0.610756829952     0.147766661436    12.000000000000
         C           -2.109020750237     1.163202270048     0.126788861436    12.000000000000
         C           -1.490611750237    -1.508711729952    -0.083450138564    12.000000000000
         C           -3.129977750237     0.223073270048     0.216733861436    12.000000000000
         C           -2.813649750237    -1.132217729952     0.108738861436    12.000000000000
         H           -0.112829750237     2.581526270048    -1.103316138564     1.007825032230
         H            0.049372249763     2.626141270048     0.639082861436     1.007825032230
         H            1.932178249763     1.305628270048    -1.350250138564     1.007825032230
         H            2.237300249763     2.615202270048    -0.223542138564     1.007825032230
         H            1.538436249763     0.741451270048     1.607557861436     1.007825032230
         H            3.194819249763     0.795996270048     0.983145861436     1.007825032230
         H            0.847508249763    -2.048744729952    -0.744061138564     1.007825032230
         H           -2.354436750237     2.222059270048     0.202607861436     1.007825032230
         H           -1.231206750237    -2.564781729952    -0.139164138564     1.007825032230
         H           -4.155800750237     0.542473270048     0.380810861436     1.007825032230
         H           -3.587841750237    -1.892290729952     0.176506861436     1.007825032230

  Basis Set: AUG-CC-PVTZ
    Blend: AUG-CC-PVTZ
  Basis Set: (AUG-CC-PVTZ AUX)
    Blend: AUG-CC-PVTZ-JKFIT
	 Reference Energy          =    -514.5296405650359475 [Eh]
	 Singles Energy            =      -0.0000000000000000 [Eh]
	 Same-Spin Energy          =      -0.5628904160652639 [Eh]
	 Opposite-Spin Energy      =      -1.7522342579227019 [Eh]
	 Correlation Energy        =      -2.3151246739879658 [Eh]
	 Total Energy              =    -516.8447652390239000 [Eh]

	 ================> DF-SCS-MP2 Energies <==================
	-----------------------------------------------------------
	 SCS Same-Spin Scale       =       0.3333333333333333 [-]
	 SCS Opposite-Spin Scale   =       1.2000000000000000 [-]
	 SCS Same-Spin Energy      =      -0.1876301386884213 [Eh]
	 SCS Opposite-Spin Energy  =      -2.1026811095072424 [Eh]
	 SCS Correlation Energy    =      -2.2903112481956636 [Eh]
	 SCS Total Energy          =    -516.8199518132315688 [Eh]
	-----------------------------------------------------------

  Dipole Moment: [D]
     X:    -4.2413      Y:     2.8232      Z:    -0.0859     Total:     5.0957

*** Psi4 exiting successfully. Buy a developer a beer!
