                               Psi4 1.4a3.dev225

  ==> Input File <==

--------------------------------------------------------------------------
#psi4
#
memory 32 gb

molecule  {
1 1
  O       -1.6123010     0.9094490    -0.1675920
  O       -1.1928110    -1.2795120     0.3034070
  N        1.4156850    -1.0522820    -0.0637630
  C        0.6095860     0.1674070    -0.3957710
  C        1.1650120     1.3928430     0.3122100
  C       -0.8284910    -0.1652490    -0.0350320
  H        0.6656880     0.2905790    -1.4809690
  H        0.9122540    -1.9066690    -0.3390640
  H        1.5920220    -1.1264780     0.9462830
  H        2.3268530    -1.0442670    -0.5383350
  H        1.0907020     1.2862690     1.3970100
  H        0.5903660     2.2672430     0.0071660
  H        2.2096640     1.5504630     0.0359860
  H       -2.4862281     0.6530795     0.0325627
units angstrom
no_reorient  #important for SAPT in psi4, default
symmetry c1  #important for SAPT in psi4, default
}

set PROPERTIES_ORIGIN ["COM"]
properties('MP2/aug-cc-pvtz', properties = ['dipole'])
--------------------------------------------------------------------------

    Molecular point group: c1
  Charge       = 1
  Multiplicity = 1
  Basis Set: AUG-CC-PVTZ
    Blend: AUG-CC-PVTZ
  Basis Set: (AUG-CC-PVTZ AUX)
    Blend: AUG-CC-PVTZ-JKFIT

    Orbital Energies [Eh]
    ---------------------

    Doubly Occupied:

       1A    -20.785735     2A    -20.737045     3A    -15.899224
       4A    -11.578574     5A    -11.510019     6A    -11.416237
       7A     -1.648823     8A     -1.551048     9A     -1.515353
      10A     -1.256762    11A     -1.110510    12A     -1.021415
      13A     -0.981849    14A     -0.964508    15A     -0.889713
      16A     -0.862288    17A     -0.854696    18A     -0.810253
      19A     -0.776347    20A     -0.737740    21A     -0.735699
      22A     -0.717583    23A     -0.659789    24A     -0.639463

  @DF-RHF Final Energy:  -322.35952596357959

   => Energetics <=

    Nuclear Repulsion Energy =            260.7151970741798550
    One-Electron Energy =                -946.8281034987785461
    Two-Electron Energy =                 363.7533804610191055
    Total Energy =                       -322.3595259635795856
  Basis Set: (AUG-CC-PVTZ AUX)
    Blend: AUG-CC-PVTZ-RI
    Molecular point group: c1

    Geometry (in Angstrom), charge = 1, multiplicity = 1:

       Center              X                  Y                   Z               Mass
    ------------   -----------------  -----------------  -----------------  -----------------
         O           -1.537514042001     0.930865351054    -0.166675559939    15.994914619570
         O           -1.118024042001    -1.258095648946     0.304323440061    15.994914619570
         N            1.490471957999    -1.030865648946    -0.062846559939    14.003074004430
         C            0.684372957999     0.188823351054    -0.394854559939    12.000000000000
         C            1.239798957999     1.414259351054     0.313126440061    12.000000000000
         C           -0.753704042001    -0.143832648946    -0.034115559939    12.000000000000
         H            0.740474957999     0.311995351054    -1.480052559939     1.007825032230
         H            0.987040957999    -1.885252648946    -0.338147559939     1.007825032230
         H            1.666808957999    -1.105061648946     0.947199440061     1.007825032230
         H            2.401639957999    -1.022850648946    -0.537418559939     1.007825032230
         H            1.165488957999     1.307685351054     1.397926440061     1.007825032230
         H            0.665152957999     2.288659351054     0.008082440061     1.007825032230
         H            2.284450957999     1.571879351054     0.036902440061     1.007825032230
         H           -2.411441142001     0.674495851054     0.033479140061     1.007825032230

  Basis Set: AUG-CC-PVTZ
    Blend: AUG-CC-PVTZ
  Basis Set: (AUG-CC-PVTZ AUX)
    Blend: AUG-CC-PVTZ-JKFIT
	 Reference Energy          =    -322.3595259635795856 [Eh]
	 Singles Energy            =      -0.0000000000000000 [Eh]
	 Same-Spin Energy          =      -0.3111335772018984 [Eh]
	 Opposite-Spin Energy      =      -0.9964529003932192 [Eh]
	 Correlation Energy        =      -1.3075864775951176 [Eh]
	 Total Energy              =    -323.6671124411747087 [Eh]

	 ================> DF-SCS-MP2 Energies <==================
	-----------------------------------------------------------
	 SCS Same-Spin Scale       =       0.3333333333333333 [-]
	 SCS Opposite-Spin Scale   =       1.2000000000000000 [-]
	 SCS Same-Spin Energy      =      -0.1037111924006328 [Eh]
	 SCS Opposite-Spin Energy  =      -1.1957434804718630 [Eh]
	 SCS Correlation Energy    =      -1.2994546728724958 [Eh]
	 SCS Total Energy          =    -323.6589806364520996 [Eh]
	-----------------------------------------------------------

  Dipole Moment: [D]
     X:     5.7139      Y:    -1.3229      Z:    -0.6695     Total:     5.9031

*** Psi4 exiting successfully. Buy a developer a beer!
