                               Psi4 1.4a3.dev225

  ==> Input File <==

--------------------------------------------------------------------------
#psi4
#
memory 32 gb

molecule  {
1 1
  O       -1.6123010     0.9094490    -0.1675920
  O       -1.1928110    -1.2795120     0.3034070
  N        1.4156850    -1.0522820    -0.0637630
  C        0.6095860     0.1674070    -0.3957710
  C        1.1650120     1.3928430     0.3122100
  C       -0.8284910    -0.1652490    -0.0350320
  H        0.6656880     0.2905790    -1.4809690
  H        0.9122540    -1.9066690    -0.3390640
  H        1.5920220    -1.1264780     0.9462830
  H        2.3268530    -1.0442670    -0.5383350
  H        1.0907020     1.2862690     1.3970100
  H        0.5903660     2.2672430     0.0071660
  H        2.2096640     1.5504630     0.0359860
  H       -2.5799479     0.6255865     0.0540273
units angstrom
no_reorient  #important for SAPT in psi4, default
symmetry c1  #important for SAPT in psi4, default
}

set PROPERTIES_ORIGIN ["COM"]
properties('MP2/aug-cc-pvtz', properties = ['dipole'])
--------------------------------------------------------------------------

    Molecular point group: c1
  Charge       = 1
  Multiplicity = 1
  Basis Set: AUG-CC-PVTZ
    Blend: AUG-CC-PVTZ
  Basis Set: (AUG-CC-PVTZ AUX)
    Blend: AUG-CC-PVTZ-JKFIT

    Orbital Energies [Eh]
    ---------------------

    Doubly Occupied:

       1A    -20.790222     2A    -20.734374     3A    -15.898193
       4A    -11.575819     5A    -11.508890     6A    -11.415196
       7A     -1.635049     8A     -1.540998     9A     -1.513634
      10A     -1.253696    11A     -1.105977    12A     -1.007475
      13A     -0.975607    14A     -0.963432    15A     -0.884653
      16A     -0.855967    17A     -0.851002    18A     -0.805569
      19A     -0.769574    20A     -0.735553    21A     -0.732882
      22A     -0.715442    23A     -0.656044    24A     -0.637082

  @DF-RHF Final Energy:  -322.35404561812447

   => Energetics <=

    Nuclear Repulsion Energy =            260.1053629632453976
    One-Electron Energy =                -945.7941568365371268
    Two-Electron Energy =                 363.3347482551672556
    Total Energy =                       -322.3540456181244735
  Basis Set: (AUG-CC-PVTZ AUX)
    Blend: AUG-CC-PVTZ-RI
    Molecular point group: c1

    Geometry (in Angstrom), charge = 1, multiplicity = 1:

       Center              X                  Y                   Z               Mass
    ------------   -----------------  -----------------  -----------------  -----------------
         O           -1.536465209262     0.931173029458    -0.166915773589    15.994914619570
         O           -1.116975209262    -1.257787970542     0.304083226411    15.994914619570
         N            1.491520790738    -1.030557970542    -0.063086773589    14.003074004430
         C            0.685421790738     0.189131029458    -0.395094773589    12.000000000000
         C            1.240847790738     1.414567029458     0.312886226411    12.000000000000
         C           -0.752655209262    -0.143524970542    -0.034355773589    12.000000000000
         H            0.741523790738     0.312303029458    -1.480292773589     1.007825032230
         H            0.988089790738    -1.884944970542    -0.338387773589     1.007825032230
         H            1.667857790738    -1.104753970542     0.946959226411     1.007825032230
         H            2.402688790738    -1.022542970542    -0.537658773589     1.007825032230
         H            1.166537790738     1.307993029458     1.397686226411     1.007825032230
         H            0.666201790738     2.288967029458     0.007842226411     1.007825032230
         H            2.285499790738     1.572187029458     0.036662226411     1.007825032230
         H           -2.504112109262     0.647310529458     0.054703526411     1.007825032230

  Basis Set: AUG-CC-PVTZ
    Blend: AUG-CC-PVTZ
  Basis Set: (AUG-CC-PVTZ AUX)
    Blend: AUG-CC-PVTZ-JKFIT
	 Reference Energy          =    -322.3540456181244735 [Eh]
	 Singles Energy            =      -0.0000000000000000 [Eh]
	 Same-Spin Energy          =      -0.3123980718550732 [Eh]
	 Opposite-Spin Energy      =      -0.9992753426291788 [Eh]
	 Correlation Energy        =      -1.3116734144842521 [Eh]
	 Total Energy              =    -323.6657190326087061 [Eh]

	 ================> DF-SCS-MP2 Energies <==================
	-----------------------------------------------------------
	 SCS Same-Spin Scale       =       0.3333333333333333 [-]
	 SCS Opposite-Spin Scale   =       1.2000000000000000 [-]
	 SCS Same-Spin Energy      =      -0.1041326906183577 [Eh]
	 SCS Opposite-Spin Energy  =      -1.1991304111550145 [Eh]
	 SCS Correlation Energy    =      -1.3032631017733722 [Eh]
	 SCS Total Energy          =    -323.6573087198978556 [Eh]
	-----------------------------------------------------------

  Dipole Moment: [D]
     X:     5.5259      Y:    -1.3122      Z:    -0.6447     Total:     5.7161

*** Psi4 exiting successfully. Buy a developer a beer!
