                               Psi4 1.3.2 release

  ==> Input File <==

--------------------------------------------------------------------------
#psi4
#
memory 32 gb

molecule  {
1 1
  O       -1.6624030     0.8291070    -0.2765410
  O       -1.1238540    -1.2691650     0.4354900
  N        1.4473370    -1.0090820    -0.1563980
  C        0.6010380     0.2049760    -0.3963400
  C        1.1187320     1.3933860     0.3994720
  C       -0.8221020    -0.1825100    -0.0303730
  H        0.6501100     0.4122580    -1.4678430
  H        1.0554076    -1.9741022    -0.8055876
  H        1.4281670    -1.2902280     0.8311830
  H        2.4275310    -0.8373030    -0.4139920
  H        1.0757850     1.1947520     1.4730540
  H        0.4939250     2.2572030     0.1746130
  H        2.1464930     1.6243000     0.1133420
  H       -2.5686030     0.5447890    -0.0239170
units angstrom
no_reorient  #important for SAPT in psi4, default
symmetry c1  #important for SAPT in psi4, default
}

set PROPERTIES_ORIGIN ["COM"]
properties('MP2/aug-cc-pvtz', properties = ['dipole'])
--------------------------------------------------------------------------

    Molecular point group: c1
  Charge       = 1
  Multiplicity = 1
  Basis Set: AUG-CC-PVTZ
    Blend: AUG-CC-PVTZ
  Basis Set: (AUG-CC-PVTZ AUX)
    Blend: AUG-CC-PVTZ-JKFIT

    Orbital Energies [Eh]
    ---------------------

    Doubly Occupied:

       1A    -20.785545     2A    -20.732777     3A    -15.907067
       4A    -11.574208     5A    -11.506201     6A    -11.414648
       7A     -1.637493     8A     -1.540327     9A     -1.493292
      10A     -1.247642    11A     -1.104809    12A     -1.008335
      13A     -0.973121    14A     -0.909245    15A     -0.884135
      16A     -0.856267    17A     -0.844273    18A     -0.806848
      19A     -0.769960    20A     -0.733242    21A     -0.727861
      22A     -0.714388    23A     -0.655307    24A     -0.634874

  @DF-RHF Final Energy:  -322.33210484216045

   => Energetics <=

    Nuclear Repulsion Energy =            259.3573188267544651
    One-Electron Energy =                -944.4551177574220446
    Two-Electron Energy =                 362.7656940885070753
    Total Energy =                       -322.3321048421604473
  Basis Set: (AUG-CC-PVTZ AUX)
    Blend: AUG-CC-PVTZ-RI
    Molecular point group: c1

    Geometry (in Angstrom), charge = 1, multiplicity = 1:

       Center              X                  Y                   Z               Mass
    ------------   -----------------  -----------------  -----------------  -----------------
         O           -1.587277692368     0.853890958812    -0.275489992406    15.994914619570
         O           -1.048728692368    -1.244381041188     0.436541007594    15.994914619570
         N            1.522462307632    -0.984298041188    -0.155346992406    14.003074004430
         C            0.676163307632     0.229759958812    -0.395288992406    12.000000000000
         C            1.193857307632     1.418169958812     0.400523007594    12.000000000000
         C           -0.746976692368    -0.157726041188    -0.029321992406    12.000000000000
         H            0.725235307632     0.437041958812    -1.466791992406     1.007825032230
         H            1.130532907632    -1.949318241188    -0.804536592406     1.007825032230
         H            1.503292307632    -1.265444041188     0.832234007594     1.007825032230
         H            2.502656307632    -0.812519041188    -0.412940992406     1.007825032230
         H            1.150910307632     1.219535958812     1.474105007594     1.007825032230
         H            0.569050307632     2.281986958812     0.175664007594     1.007825032230
         H            2.221618307632     1.649083958812     0.114393007594     1.007825032230
         H           -2.493477692368     0.569572958812    -0.022865992406     1.007825032230

  Basis Set: AUG-CC-PVTZ
    Blend: AUG-CC-PVTZ
  Basis Set: (AUG-CC-PVTZ AUX)
    Blend: AUG-CC-PVTZ-JKFIT
	 Reference Energy          =    -322.3321048421604473 [Eh]
	 Singles Energy            =      -0.0000000000000000 [Eh]
	 Same-Spin Energy          =      -0.3128401929186116 [Eh]
	 Opposite-Spin Energy      =      -1.0013751687628250 [Eh]
	 Correlation Energy        =      -1.3142153616814365 [Eh]
	 Total Energy              =    -323.6463202038418672 [Eh]

	 ================> DF-SCS-MP2 Energies <==================
	-----------------------------------------------------------
	 SCS Same-Spin Scale       =       0.3333333333333333 [-]
	 SCS Opposite-Spin Scale   =       1.2000000000000000 [-]
	 SCS Same-Spin Energy      =      -0.1042800643062039 [Eh]
	 SCS Opposite-Spin Energy  =      -1.2016502025153899 [Eh]
	 SCS Correlation Energy    =      -1.3059302668215937 [Eh]
	 SCS Total Energy          =    -323.6380351089820238 [Eh]
	-----------------------------------------------------------

  Dipole Moment: [D]
     X:     5.5982      Y:    -1.4799      Z:    -1.2572     Total:     5.9254

*** Psi4 exiting successfully. Buy a developer a beer!
