                               Psi4 1.3.2 release

  ==> Input File <==

--------------------------------------------------------------------------
#psi4
#
memory 32 gb

molecule  {
1 1
  O       -1.6624030     0.8291070    -0.2765410
  O       -1.1238540    -1.2691650     0.4354900
  N        1.4473370    -1.0090820    -0.1563980
  C        0.6010380     0.2049760    -0.3963400
  C        1.1187320     1.3933860     0.3994720
  C       -0.8221020    -0.1825100    -0.0303730
  H        0.6501100     0.4122580    -1.4678430
  H        1.1192750    -1.8168460    -0.6997980
  H        1.4281670    -1.2902280     0.8311830
  H        2.4275310    -0.8373030    -0.4139920
  H        1.0757850     1.1947520     1.4730540
  H        0.4939250     2.2572030     0.1746130
  H        2.1464930     1.6243000     0.1133420
  H       -2.6608109     0.5158590     0.0017881
units angstrom
no_reorient  #important for SAPT in psi4, default
symmetry c1  #important for SAPT in psi4, default
}

set PROPERTIES_ORIGIN ["COM"]
properties('MP2/aug-cc-pvtz', properties = ['dipole'])
--------------------------------------------------------------------------

    Molecular point group: c1
  Charge       = 1
  Multiplicity = 1
  Basis Set: AUG-CC-PVTZ
    Blend: AUG-CC-PVTZ
  Basis Set: (AUG-CC-PVTZ AUX)
    Blend: AUG-CC-PVTZ-JKFIT

    Orbital Energies [Eh]
    ---------------------

    Doubly Occupied:

       1A    -20.790204     2A    -20.731794     3A    -15.899413
       4A    -11.573351     5A    -11.508118     6A    -11.415434
       7A     -1.627783     8A     -1.535052     9A     -1.513424
      10A     -1.253217    11A     -1.103565    12A     -1.002052
      13A     -0.972115    14A     -0.964090    15A     -0.882280
      16A     -0.854922    17A     -0.841990    18A     -0.807132
      19A     -0.764796    20A     -0.735563    21A     -0.729093
      22A     -0.714664    23A     -0.652792    24A     -0.634230

  @DF-RHF Final Energy:  -322.34618268571069

   => Energetics <=

    Nuclear Repulsion Energy =            259.6970942327346847
    One-Electron Energy =                -945.0724064039978884
    Two-Electron Energy =                 363.0291294855525166
    Total Energy =                       -322.3461826857106871
  Basis Set: (AUG-CC-PVTZ AUX)
    Blend: AUG-CC-PVTZ-RI
    Molecular point group: c1

    Geometry (in Angstrom), charge = 1, multiplicity = 1:

       Center              X                  Y                   Z               Mass
    ------------   -----------------  -----------------  -----------------  -----------------
         O           -1.586960529460     0.852454840511    -0.276961569879    15.994914619570
         O           -1.048411529460    -1.245817159489     0.435069430121    15.994914619570
         N            1.522779470540    -0.985734159489    -0.156818569879    14.003074004430
         C            0.676480470540     0.228323840511    -0.396760569879    12.000000000000
         C            1.194174470540     1.416733840511     0.399051430121    12.000000000000
         C           -0.746659529460    -0.159162159489    -0.030793569879    12.000000000000
         H            0.725552470540     0.435605840511    -1.468263569879     1.007825032230
         H            1.194717470540    -1.793498159489    -0.700218569879     1.007825032230
         H            1.503609470540    -1.266880159489     0.830762430121     1.007825032230
         H            2.502973470540    -0.813955159489    -0.414412569879     1.007825032230
         H            1.151227470540     1.218099840511     1.472633430121     1.007825032230
         H            0.569367470540     2.280550840511     0.174192430121     1.007825032230
         H            2.221935470540     1.647647840511     0.112921430121     1.007825032230
         H           -2.585368429460     0.539206840511     0.001367530121     1.007825032230

  Basis Set: AUG-CC-PVTZ
    Blend: AUG-CC-PVTZ
  Basis Set: (AUG-CC-PVTZ AUX)
    Blend: AUG-CC-PVTZ-JKFIT
	 Reference Energy          =    -322.3461826857106871 [Eh]
	 Singles Energy            =      -0.0000000000000000 [Eh]
	 Same-Spin Energy          =      -0.3128569085306816 [Eh]
	 Opposite-Spin Energy      =      -1.0005708575555490 [Eh]
	 Correlation Energy        =      -1.3134277660862306 [Eh]
	 Total Energy              =    -323.6596104517969366 [Eh]

	 ================> DF-SCS-MP2 Energies <==================
	-----------------------------------------------------------
	 SCS Same-Spin Scale       =       0.3333333333333333 [-]
	 SCS Opposite-Spin Scale   =       1.2000000000000000 [-]
	 SCS Same-Spin Energy      =      -0.1042856361768939 [Eh]
	 SCS Opposite-Spin Energy  =      -1.2006850290666586 [Eh]
	 SCS Correlation Energy    =      -1.3049706652435524 [Eh]
	 SCS Total Energy          =    -323.6511533509542460 [Eh]
	-----------------------------------------------------------

  Dipole Moment: [D]
     X:     5.4926      Y:    -1.2173      Z:    -1.0605     Total:     5.7250

*** Psi4 exiting successfully. Buy a developer a beer!
