                               Psi4 1.3.2 release

  ==> Input File <==

--------------------------------------------------------------------------
#psi4
#
memory 32 gb

molecule  {
1 1
  O       -1.6624030     0.8291070    -0.2765410
  O       -1.1238540    -1.2691650     0.4354900
  N        1.4473370    -1.0090820    -0.1563980
  C        0.6010380     0.2049760    -0.3963400
  C        1.1187320     1.3933860     0.3994720
  C       -0.9157498    -0.2080080    -0.0062910
  H        0.6501100     0.4122580    -1.4678430
  H        1.1192750    -1.8168460    -0.6997980
  H        1.4281670    -1.2902280     0.8311830
  H        2.4275310    -0.8373030    -0.4139920
  H        1.0757850     1.1947520     1.4730540
  H        0.4939250     2.2572030     0.1746130
  H        2.1464930     1.6243000     0.1133420
  H       -2.5686030     0.5447890    -0.0239170
units angstrom
no_reorient  #important for SAPT in psi4, default
symmetry c1  #important for SAPT in psi4, default
}

set PROPERTIES_ORIGIN ["COM"]
properties('MP2/aug-cc-pvtz', properties = ['dipole'])
--------------------------------------------------------------------------

    Molecular point group: c1
  Charge       = 1
  Multiplicity = 1
  Basis Set: AUG-CC-PVTZ
    Blend: AUG-CC-PVTZ
  Basis Set: (AUG-CC-PVTZ AUX)
    Blend: AUG-CC-PVTZ-JKFIT

    Orbital Energies [Eh]
    ---------------------

    Doubly Occupied:

       1A    -20.797118     2A    -20.738972     3A    -15.893573
       4A    -11.573207     5A    -11.498159     6A    -11.408454
       7A     -1.665218     8A     -1.577727     9A     -1.511293
      10A     -1.235738    11A     -1.089317    12A     -1.010804
      13A     -0.973123    14A     -0.959235    15A     -0.898415
      16A     -0.865238    17A     -0.845743    18A     -0.823886
      19A     -0.774019    20A     -0.738435    21A     -0.729633
      22A     -0.710901    23A     -0.676009    24A     -0.622991

  @DF-RHF Final Energy:  -322.35421868427227

   => Energetics <=

    Nuclear Repulsion Energy =            260.1945202161624024
    One-Electron Energy =                -945.8630625583971323
    Two-Electron Energy =                 363.3143236579625182
    Total Energy =                       -322.3542186842722685
  Basis Set: (AUG-CC-PVTZ AUX)
    Blend: AUG-CC-PVTZ-RI
    Molecular point group: c1

    Geometry (in Angstrom), charge = 1, multiplicity = 1:

       Center              X                  Y                   Z               Mass
    ------------   -----------------  -----------------  -----------------  -----------------
         O           -1.575513764630     0.855528718410    -0.279882854492    15.994914619570
         O           -1.036964764630    -1.242743281590     0.432148145508    15.994914619570
         N            1.534226235370    -0.982660281590    -0.159739854492    14.003074004430
         C            0.687927235370     0.231397718410    -0.399681854492    12.000000000000
         C            1.205621235370     1.419807718410     0.396130145508    12.000000000000
         C           -0.828860564630    -0.181586281590    -0.009632854492    12.000000000000
         H            0.736999235370     0.438679718410    -1.471184854492     1.007825032230
         H            1.206164235370    -1.790424281590    -0.703139854492     1.007825032230
         H            1.515056235370    -1.263806281590     0.827841145508     1.007825032230
         H            2.514420235370    -0.810881281590    -0.417333854492     1.007825032230
         H            1.162674235370     1.221173718410     1.469712145508     1.007825032230
         H            0.580814235370     2.283624718410     0.171271145508     1.007825032230
         H            2.233382235370     1.650721718410     0.110000145508     1.007825032230
         H           -2.481713764630     0.571210718410    -0.027258854492     1.007825032230

  Basis Set: AUG-CC-PVTZ
    Blend: AUG-CC-PVTZ
  Basis Set: (AUG-CC-PVTZ AUX)
    Blend: AUG-CC-PVTZ-JKFIT
	 Reference Energy          =    -322.3542186842722685 [Eh]
	 Singles Energy            =      -0.0000000000000000 [Eh]
	 Same-Spin Energy          =      -0.3103366531582565 [Eh]
	 Opposite-Spin Energy      =      -0.9949681463599581 [Eh]
	 Correlation Energy        =      -1.3053047995182148 [Eh]
	 Total Energy              =    -323.6595234837905082 [Eh]

	 ================> DF-SCS-MP2 Energies <==================
	-----------------------------------------------------------
	 SCS Same-Spin Scale       =       0.3333333333333333 [-]
	 SCS Opposite-Spin Scale   =       1.2000000000000000 [-]
	 SCS Same-Spin Energy      =      -0.1034455510527522 [Eh]
	 SCS Opposite-Spin Energy  =      -1.1939617756319496 [Eh]
	 SCS Correlation Energy    =      -1.2974073266847017 [Eh]
	 SCS Total Energy          =    -323.6516260109569885 [Eh]
	-----------------------------------------------------------

  Dipole Moment: [D]
     X:     5.1343      Y:    -1.3536      Z:    -1.0008     Total:     5.4032

*** Psi4 exiting successfully. Buy a developer a beer!
