                               Psi4 1.3.2 release

  ==> Input File <==

--------------------------------------------------------------------------
#psi4
#
memory 32 gb

molecule  {
1 1
  O       -1.6624030     0.8291070    -0.2765410
  O       -1.1238540    -1.2691650     0.4354900
  N        1.4473370    -1.0090820    -0.1563980
  C        0.6010380     0.2049760    -0.3963400
  C        1.1187320     1.3933860     0.3994720
  C       -0.8221020    -0.1825100    -0.0303730
  H        0.6456182     0.3932843    -1.3697623
  H        1.1192750    -1.8168460    -0.6997980
  H        1.4281670    -1.2902280     0.8311830
  H        2.4275310    -0.8373030    -0.4139920
  H        1.0757850     1.1947520     1.4730540
  H        0.4939250     2.2572030     0.1746130
  H        2.1464930     1.6243000     0.1133420
  H       -2.5686030     0.5447890    -0.0239170
units angstrom
no_reorient  #important for SAPT in psi4, default
symmetry c1  #important for SAPT in psi4, default
}

set PROPERTIES_ORIGIN ["COM"]
properties('MP2/aug-cc-pvtz', properties = ['dipole'])
--------------------------------------------------------------------------

    Molecular point group: c1
  Charge       = 1
  Multiplicity = 1
  Basis Set: AUG-CC-PVTZ
    Blend: AUG-CC-PVTZ
  Basis Set: (AUG-CC-PVTZ AUX)
    Blend: AUG-CC-PVTZ-JKFIT

    Orbital Energies [Eh]
    ---------------------

    Doubly Occupied:

       1A    -20.787318     2A    -20.734477     3A    -15.900280
       4A    -11.575996     5A    -11.498924     6A    -11.416292
       7A     -1.639497     8A     -1.544531     9A     -1.516229
      10A     -1.262448    11A     -1.110244    12A     -1.019718
      13A     -0.980540    14A     -0.965836    15A     -0.891063
      16A     -0.862649    17A     -0.856488    18A     -0.811868
      19A     -0.772393    20A     -0.737016    21A     -0.734458
      22A     -0.723134    23A     -0.656754    24A     -0.637153

  @DF-RHF Final Energy:  -322.35290777478104

   => Energetics <=

    Nuclear Repulsion Energy =            260.8116606205591097
    One-Electron Energy =                -947.0585326309536640
    Two-Electron Energy =                 363.8939642356135096
    Total Energy =                       -322.3529077747810447
  Basis Set: (AUG-CC-PVTZ AUX)
    Blend: AUG-CC-PVTZ-RI
    Molecular point group: c1

    Geometry (in Angstrom), charge = 1, multiplicity = 1:

       Center              X                  Y                   Z               Mass
    ------------   -----------------  -----------------  -----------------  -----------------
         O           -1.587942173867     0.852343418022    -0.277771536383    15.994914619570
         O           -1.049393173867    -1.245928581978     0.434259463617    15.994914619570
         N            1.521797826133    -0.985845581978    -0.157628536383    14.003074004430
         C            0.675498826133     0.228212418022    -0.397570536383    12.000000000000
         C            1.193192826133     1.416622418022     0.398241463617    12.000000000000
         C           -0.747641173867    -0.159273581978    -0.031603536383    12.000000000000
         H            0.720079026133     0.416520718022    -1.370992836383     1.007825032230
         H            1.193735826133    -1.793609581978    -0.701028536383     1.007825032230
         H            1.502627826133    -1.266991581978     0.829952463617     1.007825032230
         H            2.501991826133    -0.814066581978    -0.415222536383     1.007825032230
         H            1.150245826133     1.217988418022     1.471823463617     1.007825032230
         H            0.568385826133     2.280439418022     0.173382463617     1.007825032230
         H            2.220953826133     1.647536418022     0.112111463617     1.007825032230
         H           -2.494142173867     0.568025418022    -0.025147536383     1.007825032230

  Basis Set: AUG-CC-PVTZ
    Blend: AUG-CC-PVTZ
  Basis Set: (AUG-CC-PVTZ AUX)
    Blend: AUG-CC-PVTZ-JKFIT
	 Reference Energy          =    -322.3529077747810447 [Eh]
	 Singles Energy            =      -0.0000000000000000 [Eh]
	 Same-Spin Energy          =      -0.3114561017200564 [Eh]
	 Opposite-Spin Energy      =      -0.9970659096079562 [Eh]
	 Correlation Energy        =      -1.3085220113280127 [Eh]
	 Total Energy              =    -323.6614297861090677 [Eh]

	 ================> DF-SCS-MP2 Energies <==================
	-----------------------------------------------------------
	 SCS Same-Spin Scale       =       0.3333333333333333 [-]
	 SCS Opposite-Spin Scale   =       1.2000000000000000 [-]
	 SCS Same-Spin Energy      =      -0.1038187005733521 [Eh]
	 SCS Opposite-Spin Energy  =      -1.1964790915295473 [Eh]
	 SCS Correlation Energy    =      -1.3002977921028995 [Eh]
	 SCS Total Energy          =    -323.6532055668839689 [Eh]
	-----------------------------------------------------------

  Dipole Moment: [D]
     X:     5.6780      Y:    -1.2325      Z:    -1.0654     Total:     5.9071

*** Psi4 exiting successfully. Buy a developer a beer!
