                               Psi4 1.3.2 release

  ==> Input File <==

--------------------------------------------------------------------------
#psi4
#
memory 32 gb

molecule  {
1 1
  O       -1.6624030     0.8291070    -0.2765410
  O       -1.1238540    -1.2691650     0.4354900
  N        1.4473370    -1.0090820    -0.1563980
  C        0.6010380     0.2049760    -0.3963400
  C        1.1187320     1.3933860     0.3994720
  C       -0.8145620    -0.1854381    -0.0051135
  H        0.6686979     0.4161199    -1.4660750
  H        1.1192750    -1.8168460    -0.6997980
  H        1.4281670    -1.2902280     0.8311830
  H        2.4275310    -0.8373030    -0.4139920
  H        1.0757850     1.1947520     1.4730540
  H        0.4939250     2.2572030     0.1746130
  H        2.1464930     1.6243000     0.1133420
  H       -2.5686030     0.5447890    -0.0239170
units angstrom
no_reorient  #important for SAPT in psi4, default
symmetry c1  #important for SAPT in psi4, default
}

set PROPERTIES_ORIGIN ["COM"]
properties('MP2/aug-cc-pvtz', properties = ['dipole'])
--------------------------------------------------------------------------

    Molecular point group: c1
  Charge       = 1
  Multiplicity = 1
  Basis Set: AUG-CC-PVTZ
    Blend: AUG-CC-PVTZ
  Basis Set: (AUG-CC-PVTZ AUX)
    Blend: AUG-CC-PVTZ-JKFIT

    Orbital Energies [Eh]
    ---------------------

    Doubly Occupied:

       1A    -20.783585     2A    -20.737217     3A    -15.900489
       4A    -11.575815     5A    -11.509359     6A    -11.416246
       7A     -1.637679     8A     -1.545812     9A     -1.517100
      10A     -1.256125    11A     -1.106383    12A     -1.011413
      13A     -0.978906    14A     -0.965804    15A     -0.887118
      16A     -0.859312    17A     -0.847332    18A     -0.810758
      19A     -0.772860    20A     -0.736788    21A     -0.733766
      22A     -0.716891    23A     -0.659315    24A     -0.638035

  @DF-RHF Final Energy:  -322.35880236993461

   => Energetics <=

    Nuclear Repulsion Energy =            260.3119518585050400
    One-Electron Energy =                -946.1332924671644378
    Two-Electron Energy =                 363.4625382387247896
    Total Energy =                       -322.3588023699346081
  Basis Set: (AUG-CC-PVTZ AUX)
    Blend: AUG-CC-PVTZ-RI
    Molecular point group: c1

    Geometry (in Angstrom), charge = 1, multiplicity = 1:

       Center              X                  Y                   Z               Mass
    ------------   -----------------  -----------------  -----------------  -----------------
         O           -1.589205176071     0.852478034011    -0.280059543690    15.994914619570
         O           -1.050656176071    -1.245793965989     0.431971456310    15.994914619570
         N            1.520534823929    -0.985710965989    -0.159916543690    14.003074004430
         C            0.674235823929     0.228347034011    -0.399858543690    12.000000000000
         C            1.191929823929     1.416757034011     0.395953456310    12.000000000000
         C           -0.741364176071    -0.162067065989    -0.008632043690    12.000000000000
         H            0.741895723929     0.439490934011    -1.469593543690     1.007825032230
         H            1.192472823929    -1.793474965989    -0.703316543690     1.007825032230
         H            1.501364823929    -1.266856965989     0.827664456310     1.007825032230
         H            2.500728823929    -0.813931965989    -0.417510543690     1.007825032230
         H            1.148982823929     1.218123034011     1.469535456310     1.007825032230
         H            0.567122823929     2.280574034011     0.171094456310     1.007825032230
         H            2.219690823929     1.647671034011     0.109823456310     1.007825032230
         H           -2.495405176071     0.568160034011    -0.027435543690     1.007825032230

  Basis Set: AUG-CC-PVTZ
    Blend: AUG-CC-PVTZ
  Basis Set: (AUG-CC-PVTZ AUX)
    Blend: AUG-CC-PVTZ-JKFIT
	 Reference Energy          =    -322.3588023699346081 [Eh]
	 Singles Energy            =      -0.0000000000000000 [Eh]
	 Same-Spin Energy          =      -0.3114757788271161 [Eh]
	 Opposite-Spin Energy      =      -0.9975149934207596 [Eh]
	 Correlation Energy        =      -1.3089907722478755 [Eh]
	 Total Energy              =    -323.6677931421824610 [Eh]

	 ================> DF-SCS-MP2 Energies <==================
	-----------------------------------------------------------
	 SCS Same-Spin Scale       =       0.3333333333333333 [-]
	 SCS Opposite-Spin Scale   =       1.2000000000000000 [-]
	 SCS Same-Spin Energy      =      -0.1038252596090387 [Eh]
	 SCS Opposite-Spin Energy  =      -1.1970179921049113 [Eh]
	 SCS Correlation Energy    =      -1.3008432517139501 [Eh]
	 SCS Total Energy          =    -323.6596456216485649 [Eh]
	-----------------------------------------------------------

  Dipole Moment: [D]
     X:     5.7269      Y:    -1.2942      Z:    -1.0530     Total:     5.9650

*** Psi4 exiting successfully. Buy a developer a beer!
