                               Psi4 1.3.2 release

  ==> Input File <==

--------------------------------------------------------------------------
#psi4
#
memory 32 gb

molecule  {
1 1
  O       -1.6624030     0.8291070    -0.2765410
  O       -1.1238540    -1.2691650     0.4354900
  N        1.4473370    -1.0090820    -0.1563980
  C        0.6010380     0.2049760    -0.3963400
  C        1.1187320     1.3933860     0.3994720
  C       -0.8221020    -0.1825100    -0.0303730
  H        0.6546018     0.4312317    -1.5659237
  H        1.1192750    -1.8168460    -0.6997980
  H        1.4281670    -1.2902280     0.8311830
  H        2.4275310    -0.8373030    -0.4139920
  H        1.0757850     1.1947520     1.4730540
  H        0.4939250     2.2572030     0.1746130
  H        2.1464930     1.6243000     0.1133420
  H       -2.5686030     0.5447890    -0.0239170
units angstrom
no_reorient  #important for SAPT in psi4, default
symmetry c1  #important for SAPT in psi4, default
}

set PROPERTIES_ORIGIN ["COM"]
properties('MP2/aug-cc-pvtz', properties = ['dipole'])
--------------------------------------------------------------------------

    Molecular point group: c1
  Charge       = 1
  Multiplicity = 1
  Basis Set: AUG-CC-PVTZ
    Blend: AUG-CC-PVTZ
  Basis Set: (AUG-CC-PVTZ AUX)
    Blend: AUG-CC-PVTZ-JKFIT

    Orbital Energies [Eh]
    ---------------------

    Doubly Occupied:

       1A    -20.786495     2A    -20.734506     3A    -15.900745
       4A    -11.576364     5A    -11.518693     6A    -11.416821
       7A     -1.638880     8A     -1.544104     9A     -1.515004
      10A     -1.251570    11A     -1.105879    12A     -1.007657
      13A     -0.978114    14A     -0.965500    15A     -0.884645
      16A     -0.859538    17A     -0.836641    18A     -0.811209
      19A     -0.771125    20A     -0.736649    21A     -0.733647
      22A     -0.708181    23A     -0.656314    24A     -0.636013

  @DF-RHF Final Energy:  -322.35222872375817

   => Energetics <=

    Nuclear Repulsion Energy =            259.7684948584852691
    One-Electron Energy =                -945.0928586019736031
    Two-Electron Energy =                 362.9721350197301604
    Total Energy =                       -322.3522287237581736
  Basis Set: (AUG-CC-PVTZ AUX)
    Blend: AUG-CC-PVTZ-RI
    Molecular point group: c1

    Geometry (in Angstrom), charge = 1, multiplicity = 1:

       Center              X                  Y                   Z               Mass
    ------------   -----------------  -----------------  -----------------  -----------------
         O           -1.588042710720     0.851918742815    -0.275576263895    15.994914619570
         O           -1.049493710720    -1.246353257185     0.436454736105    15.994914619570
         N            1.521697289280    -0.986270257185    -0.155433263895    14.003074004430
         C            0.675398289280     0.227787742815    -0.395375263895    12.000000000000
         C            1.193092289280     1.416197742815     0.400436736105    12.000000000000
         C           -0.747741710720    -0.159698257185    -0.029408263895    12.000000000000
         H            0.728962089280     0.454043442815    -1.564958963895     1.007825032230
         H            1.193635289280    -1.794034257185    -0.698833263895     1.007825032230
         H            1.502527289280    -1.267416257185     0.832147736105     1.007825032230
         H            2.501891289280    -0.814491257185    -0.413027263895     1.007825032230
         H            1.150145289280     1.217563742815     1.474018736105     1.007825032230
         H            0.568285289280     2.280014742815     0.175577736105     1.007825032230
         H            2.220853289280     1.647111742815     0.114306736105     1.007825032230
         H           -2.494242710720     0.567600742815    -0.022952263895     1.007825032230

  Basis Set: AUG-CC-PVTZ
    Blend: AUG-CC-PVTZ
  Basis Set: (AUG-CC-PVTZ AUX)
    Blend: AUG-CC-PVTZ-JKFIT
	 Reference Energy          =    -322.3522287237581736 [Eh]
	 Singles Energy            =      -0.0000000000000000 [Eh]
	 Same-Spin Energy          =      -0.3118012381341583 [Eh]
	 Opposite-Spin Energy      =      -0.9985003369597666 [Eh]
	 Correlation Energy        =      -1.3103015750939249 [Eh]
	 Total Energy              =    -323.6625302988521184 [Eh]

	 ================> DF-SCS-MP2 Energies <==================
	-----------------------------------------------------------
	 SCS Same-Spin Scale       =       0.3333333333333333 [-]
	 SCS Opposite-Spin Scale   =       1.2000000000000000 [-]
	 SCS Same-Spin Energy      =      -0.1039337460447194 [Eh]
	 SCS Opposite-Spin Energy  =      -1.1982004043517198 [Eh]
	 SCS Correlation Energy    =      -1.3021341503964392 [Eh]
	 SCS Total Energy          =    -323.6543628741546286 [Eh]
	-----------------------------------------------------------

  Dipole Moment: [D]
     X:     5.6866      Y:    -1.2051      Z:    -1.1049     Total:     5.9170

*** Psi4 exiting successfully. Buy a developer a beer!
