                               Psi4 1.3.2 release

  ==> Input File <==

--------------------------------------------------------------------------
#psi4
#
memory 32 gb

molecule  {
1 1
  O       -1.6624030     0.8291070    -0.2765410
  O       -1.1238540    -1.2691650     0.4354900
  N        1.4473370    -1.0090820    -0.1563980
  C        0.6010380     0.2049760    -0.3963400
  C        1.1187320     1.3933860     0.3994720
  C       -0.8221020    -0.1825100    -0.0303730
  H        0.6501100     0.4122580    -1.4678430
  H        1.1192750    -1.8168460    -0.6997980
  H        1.4281670    -1.2902280     0.8311830
  H        2.4275310    -0.8373030    -0.4139920
  H        1.0757850     1.1947520     1.4730540
  H        0.4939250     2.2572030     0.1746130
  H        2.1464930     1.6243000     0.1133420
  H       -2.3841871     0.6026490    -0.0753271
units angstrom
no_reorient  #important for SAPT in psi4, default
symmetry c1  #important for SAPT in psi4, default
}

set PROPERTIES_ORIGIN ["COM"]
properties('MP2/aug-cc-pvtz', properties = ['dipole'])
--------------------------------------------------------------------------

    Molecular point group: c1
  Charge       = 1
  Multiplicity = 1
  Basis Set: AUG-CC-PVTZ
    Blend: AUG-CC-PVTZ
  Basis Set: (AUG-CC-PVTZ AUX)
    Blend: AUG-CC-PVTZ-JKFIT

    Orbital Energies [Eh]
    ---------------------

    Doubly Occupied:

       1A    -20.773003     2A    -20.739858     3A    -15.902457
       4A    -11.581571     5A    -11.511537     6A    -11.418509
       7A     -1.681443     8A     -1.565064     9A     -1.518624
      10A     -1.263265    11A     -1.122317    12A     -1.046696
      13A     -0.987637    14A     -0.967935    15A     -0.897374
      16A     -0.870444    17A     -0.855309    18A     -0.820103
      19A     -0.783495    20A     -0.741243    21A     -0.738732
      22A     -0.720167    23A     -0.664182    24A     -0.641370

  @DF-RHF Final Energy:  -322.31567836840514

   => Energetics <=

    Nuclear Repulsion Energy =            261.7088005028097655
    One-Electron Energy =                -948.4242894387654133
    Two-Electron Energy =                 364.3998105675504462
    Total Energy =                       -322.3156783684051447
  Basis Set: (AUG-CC-PVTZ AUX)
    Blend: AUG-CC-PVTZ-RI
    Molecular point group: c1

    Geometry (in Angstrom), charge = 1, multiplicity = 1:

       Center              X                  Y                   Z               Mass
    ------------   -----------------  -----------------  -----------------  -----------------
         O           -1.590056269080     0.851483560233    -0.276098561779    15.994914619570
         O           -1.051507269080    -1.246788439767     0.435932438221    15.994914619570
         N            1.519683730920    -0.986705439767    -0.155955561779    14.003074004430
         C            0.673384730920     0.227352560233    -0.395897561779    12.000000000000
         C            1.191078730920     1.415762560233     0.399914438221    12.000000000000
         C           -0.749755269080    -0.160133439767    -0.029930561779    12.000000000000
         H            0.722456730920     0.434634560233    -1.467400561779     1.007825032230
         H            1.191621730920    -1.794469439767    -0.699355561779     1.007825032230
         H            1.500513730920    -1.267851439767     0.831625438221     1.007825032230
         H            2.499877730920    -0.814926439767    -0.413549561779     1.007825032230
         H            1.148131730920     1.217128560233     1.473496438221     1.007825032230
         H            0.566271730920     2.279579560233     0.175055438221     1.007825032230
         H            2.218839730920     1.646676560233     0.113784438221     1.007825032230
         H           -2.311840369080     0.625025560233    -0.074884661779     1.007825032230

  Basis Set: AUG-CC-PVTZ
    Blend: AUG-CC-PVTZ
  Basis Set: (AUG-CC-PVTZ AUX)
    Blend: AUG-CC-PVTZ-JKFIT
	 Reference Energy          =    -322.3156783684051447 [Eh]
	 Singles Energy            =      -0.0000000000000000 [Eh]
	 Same-Spin Energy          =      -0.3091893088856202 [Eh]
	 Opposite-Spin Energy      =      -0.9925920104075556 [Eh]
	 Correlation Energy        =      -1.3017813192931758 [Eh]
	 Total Energy              =    -323.6174596876983287 [Eh]

	 ================> DF-SCS-MP2 Energies <==================
	-----------------------------------------------------------
	 SCS Same-Spin Scale       =       0.3333333333333333 [-]
	 SCS Opposite-Spin Scale   =       1.2000000000000000 [-]
	 SCS Same-Spin Energy      =      -0.1030631029618734 [Eh]
	 SCS Opposite-Spin Energy  =      -1.1911104124890668 [Eh]
	 SCS Correlation Energy    =      -1.2941735154509402 [Eh]
	 SCS Total Energy          =    -323.6098518838560949 [Eh]
	-----------------------------------------------------------

  Dipole Moment: [D]
     X:     6.0485      Y:    -1.2448      Z:    -1.1297     Total:     6.2778

*** Psi4 exiting successfully. Buy a developer a beer!
