                               Psi4 1.3.2 release

  ==> Input File <==

--------------------------------------------------------------------------
#psi4
#
memory 32 gb

molecule  {
1 1
  O       -1.6624030     0.8291070    -0.2765410
  O       -1.1238540    -1.2691650     0.4354900
  N        1.4320335    -1.0226874    -0.1726883
  C        0.6010380     0.2049760    -0.3963400
  C        1.0991611     1.4082941     0.3894977
  C       -0.8221020    -0.1825100    -0.0303730
  H        0.6501100     0.4122580    -1.4678430
  H        1.1192750    -1.8168460    -0.6997980
  H        1.4281670    -1.2902280     0.8311830
  H        2.4275310    -0.8373030    -0.4139920
  H        1.0757850     1.1947520     1.4730540
  H        0.4939250     2.2572030     0.1746130
  H        2.1464930     1.6243000     0.1133420
  H       -2.5686030     0.5447890    -0.0239170
units angstrom
no_reorient  #important for SAPT in psi4, default
symmetry c1  #important for SAPT in psi4, default
}

set PROPERTIES_ORIGIN ["COM"]
properties('MP2/aug-cc-pvtz', properties = ['dipole'])
--------------------------------------------------------------------------

    Molecular point group: c1
  Charge       = 1
  Multiplicity = 1
  Basis Set: AUG-CC-PVTZ
    Blend: AUG-CC-PVTZ
  Basis Set: (AUG-CC-PVTZ AUX)
    Blend: AUG-CC-PVTZ-JKFIT

    Orbital Energies [Eh]
    ---------------------

    Doubly Occupied:

       1A    -20.786427     2A    -20.733844     3A    -15.901330
       4A    -11.575279     5A    -11.509181     6A    -11.417682
       7A     -1.638767     8A     -1.544122     9A     -1.515417
      10A     -1.256727    11A     -1.107185    12A     -1.011916
      13A     -0.976541    14A     -0.972640    15A     -0.886123
      16A     -0.857392    17A     -0.845969    18A     -0.811488
      19A     -0.770303    20A     -0.747507    21A     -0.731227
      22A     -0.713141    23A     -0.656213    24A     -0.635605

  @DF-RHF Final Energy:  -322.35697307912403

   => Energetics <=

    Nuclear Repulsion Energy =            260.3148216518593472
    One-Electron Energy =                -946.1395360460364827
    Two-Electron Energy =                 363.4677413150531038
    Total Energy =                       -322.3569730791240318
  Basis Set: (AUG-CC-PVTZ AUX)
    Blend: AUG-CC-PVTZ-RI
    Molecular point group: c1

    Geometry (in Angstrom), charge = 1, multiplicity = 1:

       Center              X                  Y                   Z               Mass
    ------------   -----------------  -----------------  -----------------  -----------------
         O           -1.583004997600     0.852260114432    -0.272811772197    15.994914619570
         O           -1.044455997600    -1.246011885568     0.439219227803    15.994914619570
         N            1.511431502400    -0.999534285568    -0.168959072197    14.003074004430
         C            0.680436002400     0.228129114432    -0.392610772197    12.000000000000
         C            1.178559102400     1.431447214432     0.393226927803    12.000000000000
         C           -0.742703997600    -0.159356885568    -0.026643772197    12.000000000000
         H            0.729508002400     0.435411114432    -1.464113772197     1.007825032230
         H            1.198673002400    -1.793692885568    -0.696068772197     1.007825032230
         H            1.507565002400    -1.267074885568     0.834912227803     1.007825032230
         H            2.506929002400    -0.814149885568    -0.410262772197     1.007825032230
         H            1.155183002400     1.217905114432     1.476783227803     1.007825032230
         H            0.573323002400     2.280356114432     0.178342227803     1.007825032230
         H            2.225891002400     1.647453114432     0.117071227803     1.007825032230
         H           -2.489204997600     0.567942114432    -0.020187772197     1.007825032230

  Basis Set: AUG-CC-PVTZ
    Blend: AUG-CC-PVTZ
  Basis Set: (AUG-CC-PVTZ AUX)
    Blend: AUG-CC-PVTZ-JKFIT
	 Reference Energy          =    -322.3569730791240318 [Eh]
	 Singles Energy            =      -0.0000000000000000 [Eh]
	 Same-Spin Energy          =      -0.3115967905903348 [Eh]
	 Opposite-Spin Energy      =      -0.9976789334478129 [Eh]
	 Correlation Energy        =      -1.3092757240381476 [Eh]
	 Total Energy              =    -323.6662488031622047 [Eh]

	 ================> DF-SCS-MP2 Energies <==================
	-----------------------------------------------------------
	 SCS Same-Spin Scale       =       0.3333333333333333 [-]
	 SCS Opposite-Spin Scale   =       1.2000000000000000 [-]
	 SCS Same-Spin Energy      =      -0.1038655968634449 [Eh]
	 SCS Opposite-Spin Energy  =      -1.1972147201373755 [Eh]
	 SCS Correlation Energy    =      -1.3010803170008205 [Eh]
	 SCS Total Energy          =    -323.6580533961248420 [Eh]
	-----------------------------------------------------------

  Dipole Moment: [D]
     X:     5.7326      Y:    -1.2098      Z:    -1.0563     Total:     5.9534

*** Psi4 exiting successfully. Buy a developer a beer!
