                               Psi4 1.4a3.dev225

  ==> Input File <==

--------------------------------------------------------------------------
#psi4
#
memory 32 gb

molecule  {
1 1
  O       -1.6123010     0.9094490    -0.1675920
  O       -1.1928110    -1.2795120     0.3034070
  N        1.4156850    -1.0522820    -0.0637630
  C        0.6095860     0.1674070    -0.3957710
  C        1.1650120     1.3928430     0.3122100
  C       -0.8167639    -0.1813282    -0.0330487
  H        0.6656880     0.2905790    -1.4809690
  H        0.9122540    -1.9066690    -0.3390640
  H        1.5920220    -1.1264780     0.9462830
  H        2.3268530    -1.0442670    -0.5383350
  H        1.0907020     1.2862690     1.3970100
  H        0.5903660     2.2672430     0.0071660
  H        2.2096640     1.5504630     0.0359860
  H       -2.5330880     0.6393330     0.0432950
units angstrom
no_reorient  #important for SAPT in psi4, default
symmetry c1  #important for SAPT in psi4, default
}

set PROPERTIES_ORIGIN ["COM"]
properties('MP2/aug-cc-pvtz', properties = ['dipole'])
--------------------------------------------------------------------------

    Molecular point group: c1
  Charge       = 1
  Multiplicity = 1
  Basis Set: AUG-CC-PVTZ
    Blend: AUG-CC-PVTZ
  Basis Set: (AUG-CC-PVTZ AUX)
    Blend: AUG-CC-PVTZ-JKFIT

    Orbital Energies [Eh]
    ---------------------

    Doubly Occupied:

       1A    -20.782540     2A    -20.739265     3A    -15.899505
       4A    -11.576559     5A    -11.510164     6A    -11.416197
       7A     -1.637630     8A     -1.545912     9A     -1.516865
      10A     -1.256380    11A     -1.109348    12A     -1.010558
      13A     -0.978420    14A     -0.965087    15A     -0.887082
      16A     -0.856816    17A     -0.852804    18A     -0.805731
      19A     -0.773535    20A     -0.737712    21A     -0.734945
      22A     -0.716842    23A     -0.660661    24A     -0.640098

  @DF-RHF Final Energy:  -322.35841576671521

   => Energetics <=

    Nuclear Repulsion Energy =            260.4455492486067101
    One-Electron Energy =                -946.3866242851195238
    Two-Electron Energy =                 363.5826592697975457
    Total Energy =                       -322.3584157667152112
  Basis Set: (AUG-CC-PVTZ AUX)
    Blend: AUG-CC-PVTZ-RI
    Molecular point group: c1

    Geometry (in Angstrom), charge = 1, multiplicity = 1:

       Center              X                  Y                   Z               Mass
    ------------   -----------------  -----------------  -----------------  -----------------
         O           -1.538552275270     0.933161762253    -0.167059943783    15.994914619570
         O           -1.119062275270    -1.255799237747     0.303939056217    15.994914619570
         N            1.489433724730    -1.028569237747    -0.063230943783    14.003074004430
         C            0.683334724730     0.191119762253    -0.395238943783    12.000000000000
         C            1.238760724730     1.416555762253     0.312742056217    12.000000000000
         C           -0.743015175270    -0.157615437747    -0.032516643783    12.000000000000
         H            0.739436724730     0.314291762253    -1.480436943783     1.007825032230
         H            0.986002724730    -1.882956237747    -0.338531943783     1.007825032230
         H            1.665770724730    -1.102765237747     0.946815056217     1.007825032230
         H            2.400601724730    -1.020554237747    -0.537802943783     1.007825032230
         H            1.164450724730     1.309981762253     1.397542056217     1.007825032230
         H            0.664114724730     2.290955762253     0.007698056217     1.007825032230
         H            2.283412724730     1.574175762253     0.036518056217     1.007825032230
         H           -2.459339275270     0.663045762253     0.043827056217     1.007825032230

  Basis Set: AUG-CC-PVTZ
    Blend: AUG-CC-PVTZ
  Basis Set: (AUG-CC-PVTZ AUX)
    Blend: AUG-CC-PVTZ-JKFIT
	 Reference Energy          =    -322.3584157667152112 [Eh]
	 Singles Energy            =      -0.0000000000000000 [Eh]
	 Same-Spin Energy          =      -0.3116797182118349 [Eh]
	 Opposite-Spin Energy      =      -0.9978024307103304 [Eh]
	 Correlation Energy        =      -1.3094821489221653 [Eh]
	 Total Energy              =    -323.6678979156373543 [Eh]

	 ================> DF-SCS-MP2 Energies <==================
	-----------------------------------------------------------
	 SCS Same-Spin Scale       =       0.3333333333333333 [-]
	 SCS Opposite-Spin Scale   =       1.2000000000000000 [-]
	 SCS Same-Spin Energy      =      -0.1038932394039450 [Eh]
	 SCS Opposite-Spin Energy  =      -1.1973629168523965 [Eh]
	 SCS Correlation Energy    =      -1.3012561562563414 [Eh]
	 SCS Total Energy          =    -323.6596719229715404 [Eh]
	-----------------------------------------------------------

  Dipole Moment: [D]
     X:     5.7104      Y:    -1.4353      Z:    -0.6388     Total:     5.9226

*** Psi4 exiting successfully. Buy a developer a beer!
