                               Psi4 1.3.2 release

  ==> Input File <==

--------------------------------------------------------------------------
#psi4
#
memory 32 gb

molecule  {
1 1
  O       -1.6624030     0.8291070    -0.2765410
  O       -1.1846655    -1.2496705     0.4371928
  N        1.4473370    -1.0090820    -0.1563980
  C        0.5735221     0.2759172    -0.4195808
  C        1.1187320     1.3933860     0.3994720
  C       -0.8221020    -0.1825100    -0.0303730
  H        0.6501100     0.4122580    -1.4678430
  H        1.1192750    -1.8168460    -0.6997980
  H        1.4281670    -1.2902280     0.8311830
  H        2.4275310    -0.8373030    -0.4139920
  H        1.0757850     1.1947520     1.4730540
  H        0.4939250     2.2572030     0.1746130
  H        2.1464930     1.6243000     0.1133420
  H       -2.5686030     0.5447890    -0.0239170
units angstrom
no_reorient  #important for SAPT in psi4, default
symmetry c1  #important for SAPT in psi4, default
}

set PROPERTIES_ORIGIN ["COM"]
properties('MP2/aug-cc-pvtz', properties = ['dipole'])
--------------------------------------------------------------------------

    Molecular point group: c1
  Charge       = 1
  Multiplicity = 1
  Basis Set: AUG-CC-PVTZ
    Blend: AUG-CC-PVTZ
  Basis Set: (AUG-CC-PVTZ AUX)
    Blend: AUG-CC-PVTZ-JKFIT

    Orbital Energies [Eh]
    ---------------------

    Doubly Occupied:

       1A    -20.782176     2A    -20.736235     3A    -15.892182
       4A    -11.577160     5A    -11.518072     6A    -11.418261
       7A     -1.640209     8A     -1.537321     9A     -1.500147
      10A     -1.267605    11A     -1.112466    12A     -1.008722
      13A     -0.968256    14A     -0.954781    15A     -0.886375
      16A     -0.861987    17A     -0.839593    18A     -0.814889
      19A     -0.774236    20A     -0.746516    21A     -0.734184
      22A     -0.724129    23A     -0.654753    24A     -0.639262

  @DF-RHF Final Energy:  -322.35199185776611

   => Energetics <=

    Nuclear Repulsion Energy =            259.5955921776221089
    One-Electron Energy =                -944.7161324872362229
    Two-Electron Energy =                 362.7685484518480621
    Total Energy =                       -322.3519918577661088
  Basis Set: (AUG-CC-PVTZ AUX)
    Blend: AUG-CC-PVTZ-RI
    Molecular point group: c1

    Geometry (in Angstrom), charge = 1, multiplicity = 1:

       Center              X                  Y                   Z               Mass
    ------------   -----------------  -----------------  -----------------  -----------------
         O           -1.573525080503     0.839215631414    -0.273879473929    15.994914619570
         O           -1.095787580503    -1.239561868586     0.439854326071    15.994914619570
         N            1.536214919497    -0.998973368586    -0.153736473929    14.003074004430
         C            0.662400019497     0.286025831414    -0.416919273929    12.000000000000
         C            1.207609919497     1.403494631414     0.402133526071    12.000000000000
         C           -0.733224080503    -0.172401368586    -0.027711473929    12.000000000000
         H            0.738987919497     0.422366631414    -1.465181473929     1.007825032230
         H            1.208152919497    -1.806737368586    -0.697136473929     1.007825032230
         H            1.517044919497    -1.280119368586     0.833844526071     1.007825032230
         H            2.516408919497    -0.827194368586    -0.411330473929     1.007825032230
         H            1.164662919497     1.204860631414     1.475715526071     1.007825032230
         H            0.582802919497     2.267311631414     0.177274526071     1.007825032230
         H            2.235370919497     1.634408631414     0.116003526071     1.007825032230
         H           -2.479725080503     0.554897631414    -0.021255473929     1.007825032230

  Basis Set: AUG-CC-PVTZ
    Blend: AUG-CC-PVTZ
  Basis Set: (AUG-CC-PVTZ AUX)
    Blend: AUG-CC-PVTZ-JKFIT
	 Reference Energy          =    -322.3519918577661088 [Eh]
	 Singles Energy            =      -0.0000000000000000 [Eh]
	 Same-Spin Energy          =      -0.3116546135377526 [Eh]
	 Opposite-Spin Energy      =      -0.9983597149413712 [Eh]
	 Correlation Energy        =      -1.3100143284791237 [Eh]
	 Total Energy              =    -323.6620061862452076 [Eh]

	 ================> DF-SCS-MP2 Energies <==================
	-----------------------------------------------------------
	 SCS Same-Spin Scale       =       0.3333333333333333 [-]
	 SCS Opposite-Spin Scale   =       1.2000000000000000 [-]
	 SCS Same-Spin Energy      =      -0.1038848711792509 [Eh]
	 SCS Opposite-Spin Energy  =      -1.1980316579296455 [Eh]
	 SCS Correlation Energy    =      -1.3019165291088963 [Eh]
	 SCS Total Energy          =    -323.6539083868750026 [Eh]
	-----------------------------------------------------------

  Dipole Moment: [D]
     X:     5.7910      Y:    -1.1200      Z:    -1.0811     Total:     5.9966

*** Psi4 exiting successfully. Buy a developer a beer!
