                               Psi4 1.3.2 release

  ==> Input File <==

--------------------------------------------------------------------------
#psi4
#
memory 32 gb

molecule  {
1 1
  O       -1.6624030     0.8291070    -0.2765410
  O       -1.1238540    -1.2691650     0.4354900
  N        1.3826502    -1.0470734    -0.1333081
  C        0.6010380     0.2049760    -0.3963400
  C        1.1187320     1.3933860     0.3994720
  C       -0.7953619    -0.2551390    -0.0119362
  H        0.6501100     0.4122580    -1.4678430
  H        1.1192750    -1.8168460    -0.6997980
  H        1.4281670    -1.2902280     0.8311830
  H        2.4275310    -0.8373030    -0.4139920
  H        1.0757850     1.1947520     1.4730540
  H        0.4939250     2.2572030     0.1746130
  H        2.1464930     1.6243000     0.1133420
  H       -2.5686030     0.5447890    -0.0239170
units angstrom
no_reorient  #important for SAPT in psi4, default
symmetry c1  #important for SAPT in psi4, default
}

set PROPERTIES_ORIGIN ["COM"]
properties('MP2/aug-cc-pvtz', properties = ['dipole'])
--------------------------------------------------------------------------

    Molecular point group: c1
  Charge       = 1
  Multiplicity = 1
  Basis Set: AUG-CC-PVTZ
    Blend: AUG-CC-PVTZ
  Basis Set: (AUG-CC-PVTZ AUX)
    Blend: AUG-CC-PVTZ-JKFIT

    Orbital Energies [Eh]
    ---------------------

    Doubly Occupied:

       1A    -20.762952     2A    -20.748537     3A    -15.901942
       4A    -11.569242     5A    -11.510958     6A    -11.417991
       7A     -1.651127     8A     -1.535976     9A     -1.522986
      10A     -1.255965    11A     -1.107967    12A     -1.006220
      13A     -0.988440    14A     -0.951205    15A     -0.894157
      16A     -0.852988    17A     -0.838923    18A     -0.810066
      19A     -0.771501    20A     -0.739500    21A     -0.738660
      22A     -0.718492    23A     -0.666178    24A     -0.638018

  @DF-RHF Final Energy:  -322.34260661825277

   => Energetics <=

    Nuclear Repulsion Energy =            260.9741286815864214
    One-Electron Energy =                -947.4334853868510891
    Two-Electron Energy =                 364.1167500870118943
    Total Energy =                       -322.3426066182527734
  Basis Set: (AUG-CC-PVTZ AUX)
    Blend: AUG-CC-PVTZ-RI
    Molecular point group: c1

    Geometry (in Angstrom), charge = 1, multiplicity = 1:

       Center              X                  Y                   Z               Mass
    ------------   -----------------  -----------------  -----------------  -----------------
         O           -1.581497194088     0.867716406480    -0.282720961754    15.994914619570
         O           -1.042948194088    -1.230555593520     0.429310038246    15.994914619570
         N            1.463556005912    -1.008463993520    -0.139488061754    14.003074004430
         C            0.681943805912     0.243585406480    -0.402519961754    12.000000000000
         C            1.199637805912     1.431995406480     0.393292038246    12.000000000000
         C           -0.714456094088    -0.216529593520    -0.018116161754    12.000000000000
         H            0.731015805912     0.450867406480    -1.474022961754     1.007825032230
         H            1.200180805912    -1.778236593520    -0.705977961754     1.007825032230
         H            1.509072805912    -1.251618593520     0.825003038246     1.007825032230
         H            2.508436805912    -0.798693593520    -0.420171961754     1.007825032230
         H            1.156690805912     1.233361406480     1.466874038246     1.007825032230
         H            0.574830805912     2.295812406480     0.168433038246     1.007825032230
         H            2.227398805912     1.662909406480     0.107162038246     1.007825032230
         H           -2.487697194088     0.583398406480    -0.030096961754     1.007825032230

  Basis Set: AUG-CC-PVTZ
    Blend: AUG-CC-PVTZ
  Basis Set: (AUG-CC-PVTZ AUX)
    Blend: AUG-CC-PVTZ-JKFIT
	 Reference Energy          =    -322.3426066182527734 [Eh]
	 Singles Energy            =      -0.0000000000000000 [Eh]
	 Same-Spin Energy          =      -0.3110712897793763 [Eh]
	 Opposite-Spin Energy      =      -0.9971850365659868 [Eh]
	 Correlation Energy        =      -1.3082563263453630 [Eh]
	 Total Energy              =    -323.6508629445981455 [Eh]

	 ================> DF-SCS-MP2 Energies <==================
	-----------------------------------------------------------
	 SCS Same-Spin Scale       =       0.3333333333333333 [-]
	 SCS Opposite-Spin Scale   =       1.2000000000000000 [-]
	 SCS Same-Spin Energy      =      -0.1036904299264587 [Eh]
	 SCS Opposite-Spin Energy  =      -1.1966220438791841 [Eh]
	 SCS Correlation Energy    =      -1.3003124738056429 [Eh]
	 SCS Total Energy          =    -323.6429190920584347 [Eh]
	-----------------------------------------------------------

  Dipole Moment: [D]
     X:     6.0613      Y:    -1.6674      Z:    -0.9505     Total:     6.3579

*** Psi4 exiting successfully. Buy a developer a beer!
