                               Psi4 1.3.2 release

  ==> Input File <==

--------------------------------------------------------------------------
#psi4
#
memory 32 gb

molecule  {
1 1
  O       -1.6534660     0.8355043    -0.2804812
  O       -1.1136568    -1.2721813     0.4349375
  N        1.4473370    -1.0090820    -0.1563980
  C        0.6010380     0.2049760    -0.3963400
  C        1.1187320     1.3933860     0.3994720
  C       -0.8221020    -0.1825100    -0.0303730
  H        0.6501100     0.4122580    -1.4678430
  H        1.1192750    -1.8168460    -0.6997980
  H        1.4281670    -1.2902280     0.8311830
  H        2.4275310    -0.8373030    -0.4139920
  H        1.0757850     1.1947520     1.4730540
  H        0.4939250     2.2572030     0.1746130
  H        2.1464930     1.6243000     0.1133420
  H       -2.5686030     0.5447890    -0.0239170
units angstrom
no_reorient  #important for SAPT in psi4, default
symmetry c1  #important for SAPT in psi4, default
}

set PROPERTIES_ORIGIN ["COM"]
properties('MP2/aug-cc-pvtz', properties = ['dipole'])
--------------------------------------------------------------------------

    Molecular point group: c1
  Charge       = 1
  Multiplicity = 1
  Basis Set: AUG-CC-PVTZ
    Blend: AUG-CC-PVTZ
  Basis Set: (AUG-CC-PVTZ AUX)
    Blend: AUG-CC-PVTZ-JKFIT

    Orbital Energies [Eh]
    ---------------------

    Doubly Occupied:

       1A    -20.789239     2A    -20.735149     3A    -15.899639
       4A    -11.576309     5A    -11.508038     6A    -11.415943
       7A     -1.638511     8A     -1.544953     9A     -1.514889
      10A     -1.255081    11A     -1.106735    12A     -1.010797
      13A     -0.978133    14A     -0.964950    15A     -0.887421
      16A     -0.859005    17A     -0.847323    18A     -0.811694
      19A     -0.771680    20A     -0.736204    21A     -0.733912
      22A     -0.716328    23A     -0.657538    24A     -0.636608

  @DF-RHF Final Energy:  -322.35801700910679

   => Energetics <=

    Nuclear Repulsion Energy =            260.3261367904581789
    One-Electron Energy =                -946.1761511807923171
    Two-Electron Energy =                 363.4919973812272929
    Total Energy =                       -322.3580170091067885
  Basis Set: (AUG-CC-PVTZ AUX)
    Blend: AUG-CC-PVTZ-RI
    Molecular point group: c1

    Geometry (in Angstrom), charge = 1, multiplicity = 1:

       Center              X                  Y                   Z               Mass
    ------------   -----------------  -----------------  -----------------  -----------------
         O           -1.582453900838     0.857927875128    -0.279816143877    15.994914619570
         O           -1.042644700838    -1.249757724872     0.435602556123    15.994914619570
         N            1.518349099162    -0.986658424872    -0.155732943877    14.003074004430
         C            0.672050099162     0.227399575128    -0.395674943877    12.000000000000
         C            1.189744099162     1.415809575128     0.400137056123    12.000000000000
         C           -0.751089900838    -0.160086424872    -0.029707943877    12.000000000000
         H            0.721122099162     0.434681575128    -1.467177943877     1.007825032230
         H            1.190287099162    -1.794422424872    -0.699132943877     1.007825032230
         H            1.499179099162    -1.267804424872     0.831848056123     1.007825032230
         H            2.498543099162    -0.814879424872    -0.413326943877     1.007825032230
         H            1.146797099162     1.217175575128     1.473719056123     1.007825032230
         H            0.564937099162     2.279626575128     0.175278056123     1.007825032230
         H            2.217505099162     1.646723575128     0.114007056123     1.007825032230
         H           -2.497590900838     0.567212575128    -0.023251943877     1.007825032230

  Basis Set: AUG-CC-PVTZ
    Blend: AUG-CC-PVTZ
  Basis Set: (AUG-CC-PVTZ AUX)
    Blend: AUG-CC-PVTZ-JKFIT
	 Reference Energy          =    -322.3580170091067885 [Eh]
	 Singles Energy            =      -0.0000000000000000 [Eh]
	 Same-Spin Energy          =      -0.3118335956037061 [Eh]
	 Opposite-Spin Energy      =      -0.9981173016445097 [Eh]
	 Correlation Energy        =      -1.3099508972482159 [Eh]
	 Total Energy              =    -323.6679679063549884 [Eh]

	 ================> DF-SCS-MP2 Energies <==================
	-----------------------------------------------------------
	 SCS Same-Spin Scale       =       0.3333333333333333 [-]
	 SCS Opposite-Spin Scale   =       1.2000000000000000 [-]
	 SCS Same-Spin Energy      =      -0.1039445318679020 [Eh]
	 SCS Opposite-Spin Energy  =      -1.1977407619734117 [Eh]
	 SCS Correlation Energy    =      -1.3016852938413137 [Eh]
	 SCS Total Energy          =    -323.6597023029481193 [Eh]
	-----------------------------------------------------------

  Dipole Moment: [D]
     X:     5.6054      Y:    -1.2184      Z:    -1.0783     Total:     5.8368

*** Psi4 exiting successfully. Buy a developer a beer!
