                               Psi4 1.3.2 release

  ==> Input File <==

--------------------------------------------------------------------------
#psi4
#
memory 32 gb

molecule  {
1 1
  O       -1.6624030     0.8291070    -0.2765410
  O       -1.1238540    -1.2691650     0.4354900
  N        1.4006717    -1.0487723    -0.2054684
  C        0.6010380     0.2049760    -0.3963400
  C        1.0595702     1.4370064     0.3688342
  C       -0.8221020    -0.1825100    -0.0303730
  H        0.6501100     0.4122580    -1.4678430
  H        1.1192750    -1.8168460    -0.6997980
  H        1.4281670    -1.2902280     0.8311830
  H        2.4275310    -0.8373030    -0.4139920
  H        1.0757850     1.1947520     1.4730540
  H        0.4939250     2.2572030     0.1746130
  H        2.1464930     1.6243000     0.1133420
  H       -2.5686030     0.5447890    -0.0239170
units angstrom
no_reorient  #important for SAPT in psi4, default
symmetry c1  #important for SAPT in psi4, default
}

set PROPERTIES_ORIGIN ["COM"]
properties('MP2/aug-cc-pvtz', properties = ['dipole'])
--------------------------------------------------------------------------

    Molecular point group: c1
  Charge       = 1
  Multiplicity = 1
  Basis Set: AUG-CC-PVTZ
    Blend: AUG-CC-PVTZ
  Basis Set: (AUG-CC-PVTZ AUX)
    Blend: AUG-CC-PVTZ-JKFIT

    Orbital Energies [Eh]
    ---------------------

    Doubly Occupied:

       1A    -20.785560     2A    -20.732761     3A    -15.903124
       4A    -11.573698     5A    -11.509630     6A    -11.420813
       7A     -1.638095     8A     -1.544093     9A     -1.515830
      10A     -1.258982    11A     -1.106888    12A     -1.014494
      13A     -0.991116    14A     -0.962604    15A     -0.884615
      16A     -0.852087    17A     -0.841541    18A     -0.812403
      19A     -0.775841    20A     -0.761054    21A     -0.725555
      22A     -0.703803    23A     -0.655607    24A     -0.633413

  @DF-RHF Final Energy:  -322.34071968826970

   => Energetics <=

    Nuclear Repulsion Energy =            260.4555804072952014
    One-Electron Energy =                -946.3853865971302639
    Two-Electron Energy =                 363.5890865015653617
    Total Energy =                       -322.3407196882697008
  Basis Set: (AUG-CC-PVTZ AUX)
    Blend: AUG-CC-PVTZ-RI
    Molecular point group: c1

    Geometry (in Angstrom), charge = 1, multiplicity = 1:

       Center              X                  Y                   Z               Mass
    ------------   -----------------  -----------------  -----------------  -----------------
         O           -1.572852898386     0.852490207922    -0.264961234043    15.994914619570
         O           -1.034303898386    -1.245781792078     0.447069765957    15.994914619570
         N            1.490221801614    -1.025389092078    -0.193888634043    14.003074004430
         C            0.690588101614     0.228359207922    -0.384760234043    12.000000000000
         C            1.149120301614     1.460389607922     0.380413965957    12.000000000000
         C           -0.732551898386    -0.159126792078    -0.018793234043    12.000000000000
         H            0.739660101614     0.435641207922    -1.456263234043     1.007825032230
         H            1.208825101614    -1.793462792078    -0.688218234043     1.007825032230
         H            1.517717101614    -1.266844792078     0.842762765957     1.007825032230
         H            2.517081101614    -0.813919792078    -0.402412234043     1.007825032230
         H            1.165335101614     1.218135207922     1.484633765957     1.007825032230
         H            0.583475101614     2.280586207922     0.186192765957     1.007825032230
         H            2.236043101614     1.647683207922     0.124921765957     1.007825032230
         H           -2.479052898386     0.568172207922    -0.012337234043     1.007825032230

  Basis Set: AUG-CC-PVTZ
    Blend: AUG-CC-PVTZ
  Basis Set: (AUG-CC-PVTZ AUX)
    Blend: AUG-CC-PVTZ-JKFIT
	 Reference Energy          =    -322.3407196882697008 [Eh]
	 Singles Energy            =      -0.0000000000000000 [Eh]
	 Same-Spin Energy          =      -0.3118443198684335 [Eh]
	 Opposite-Spin Energy      =      -0.9984349502982863 [Eh]
	 Correlation Energy        =      -1.3102792701667199 [Eh]
	 Total Energy              =    -323.6509989584364462 [Eh]

	 ================> DF-SCS-MP2 Energies <==================
	-----------------------------------------------------------
	 SCS Same-Spin Scale       =       0.3333333333333333 [-]
	 SCS Opposite-Spin Scale   =       1.2000000000000000 [-]
	 SCS Same-Spin Energy      =      -0.1039481066228112 [Eh]
	 SCS Opposite-Spin Energy  =      -1.1981219403579435 [Eh]
	 SCS Correlation Energy    =      -1.3020700469807547 [Eh]
	 SCS Total Energy          =    -323.6427897352504601 [Eh]
	-----------------------------------------------------------

  Dipole Moment: [D]
     X:     5.8296      Y:    -1.1930      Z:    -0.9923     Total:     6.0326

*** Psi4 exiting successfully. Buy a developer a beer!
