                               Psi4 1.3.2 release

  ==> Input File <==

--------------------------------------------------------------------------
#psi4
#
memory 32 gb

molecule  {
1 1
  O       -1.6624030     0.8291070    -0.2765410
  O       -1.1238540    -1.2691650     0.4354900
  N        1.4473370    -1.0090820    -0.1563980
  C        0.6010380     0.2049760    -0.3963400
  C        1.1187320     1.3933860     0.3994720
  C       -0.6348064    -0.1315140    -0.0785369
  H        0.6501100     0.4122580    -1.4678430
  H        1.1192750    -1.8168460    -0.6997980
  H        1.4281670    -1.2902280     0.8311830
  H        2.4275310    -0.8373030    -0.4139920
  H        1.0757850     1.1947520     1.4730540
  H        0.4939250     2.2572030     0.1746130
  H        2.1464930     1.6243000     0.1133420
  H       -2.5686030     0.5447890    -0.0239170
units angstrom
no_reorient  #important for SAPT in psi4, default
symmetry c1  #important for SAPT in psi4, default
}

set PROPERTIES_ORIGIN ["COM"]
properties('MP2/aug-cc-pvtz', properties = ['dipole'])
--------------------------------------------------------------------------

    Molecular point group: c1
  Charge       = 1
  Multiplicity = 1
  Basis Set: AUG-CC-PVTZ
    Blend: AUG-CC-PVTZ
  Basis Set: (AUG-CC-PVTZ AUX)
    Blend: AUG-CC-PVTZ-JKFIT

    Orbital Energies [Eh]
    ---------------------

    Doubly Occupied:

       1A    -20.769224     2A    -20.730484     3A    -15.913222
       4A    -11.589039     5A    -11.518146     6A    -11.433196
       7A     -1.592247     8A     -1.538176     9A     -1.465368
      10A     -1.311564    11A     -1.147242    12A     -1.020645
      13A     -0.988471    14A     -0.976344    15A     -0.887485
      16A     -0.870915    17A     -0.833249    18A     -0.802942
      19A     -0.756476    20A     -0.749148    21A     -0.721769
      22A     -0.717893    23A     -0.627679    24A     -0.620824

  @DF-RHF Final Energy:  -322.27873633135960

   => Energetics <=

    Nuclear Repulsion Energy =            260.6688629673502078
    One-Electron Energy =                -946.7317004499616360
    Two-Electron Energy =                 363.7841011512518890
    Total Energy =                       -322.2787363313595961
  Basis Set: (AUG-CC-PVTZ AUX)
    Blend: AUG-CC-PVTZ-RI
    Molecular point group: c1

    Geometry (in Angstrom), charge = 1, multiplicity = 1:

       Center              X                  Y                   Z               Mass
    ------------   -----------------  -----------------  -----------------  -----------------
         O           -1.612949797620     0.845335804436    -0.270256004758    15.994914619570
         O           -1.074400797620    -1.252936195564     0.441774995242    15.994914619570
         N            1.496790202380    -0.992853195564    -0.150113004758    14.003074004430
         C            0.650491202380     0.221204804436    -0.390055004758    12.000000000000
         C            1.168185202380     1.409614804436     0.405756995242    12.000000000000
         C           -0.585353197620    -0.115285195564    -0.072251904758    12.000000000000
         H            0.699563202380     0.428486804436    -1.461558004758     1.007825032230
         H            1.168728202380    -1.800617195564    -0.693513004758     1.007825032230
         H            1.477620202380    -1.273999195564     0.837467995242     1.007825032230
         H            2.476984202380    -0.821074195564    -0.407707004758     1.007825032230
         H            1.125238202380     1.210980804436     1.479338995242     1.007825032230
         H            0.543378202380     2.273431804436     0.180897995242     1.007825032230
         H            2.195946202380     1.640528804436     0.119626995242     1.007825032230
         H           -2.519149797620     0.561017804436    -0.017632004758     1.007825032230

  Basis Set: AUG-CC-PVTZ
    Blend: AUG-CC-PVTZ
  Basis Set: (AUG-CC-PVTZ AUX)
    Blend: AUG-CC-PVTZ-JKFIT
	 Reference Energy          =    -322.2787363313595961 [Eh]
	 Singles Energy            =      -0.0000000000000000 [Eh]
	 Same-Spin Energy          =      -0.3177314080122651 [Eh]
	 Opposite-Spin Energy      =      -1.0098984638350395 [Eh]
	 Correlation Energy        =      -1.3276298718473045 [Eh]
	 Total Energy              =    -323.6063662032069033 [Eh]

	 ================> DF-SCS-MP2 Energies <==================
	-----------------------------------------------------------
	 SCS Same-Spin Scale       =       0.3333333333333333 [-]
	 SCS Opposite-Spin Scale   =       1.2000000000000000 [-]
	 SCS Same-Spin Energy      =      -0.1059104693374217 [Eh]
	 SCS Opposite-Spin Energy  =      -1.2118781566020473 [Eh]
	 SCS Correlation Energy    =      -1.3177886259394691 [Eh]
	 SCS Total Energy          =    -323.5965249572990388 [Eh]
	-----------------------------------------------------------

  Dipole Moment: [D]
     X:     6.5727      Y:    -1.1076      Z:    -1.1740     Total:     6.7679

*** Psi4 exiting successfully. Buy a developer a beer!
