                               Psi4 1.3.2 release

  ==> Input File <==

--------------------------------------------------------------------------
#psi4
#
memory 32 gb

molecule  {
1 1
  O       -1.6624030     0.8291070    -0.2765410
  O       -1.1238540    -1.2691650     0.4354900
  N        1.4473370    -1.0090820    -0.1563980
  C        0.6010380     0.2049760    -0.3963400
  C        1.1187320     1.3933860     0.3994720
  C       -0.7973724    -0.0934549    -0.0685521
  H        0.6501100     0.4122580    -1.4678430
  H        1.1192750    -1.8168460    -0.6997980
  H        1.4281670    -1.2902280     0.8311830
  H        2.4275310    -0.8373030    -0.4139920
  H        1.0757850     1.1947520     1.4730540
  H        0.4939250     2.2572030     0.1746130
  H        2.1464930     1.6243000     0.1133420
  H       -2.5686030     0.5447890    -0.0239170
units angstrom
no_reorient  #important for SAPT in psi4, default
symmetry c1  #important for SAPT in psi4, default
}

set PROPERTIES_ORIGIN ["COM"]
properties('MP2/aug-cc-pvtz', properties = ['dipole'])
--------------------------------------------------------------------------

    Molecular point group: c1
  Charge       = 1
  Multiplicity = 1
  Basis Set: AUG-CC-PVTZ
    Blend: AUG-CC-PVTZ
  Basis Set: (AUG-CC-PVTZ AUX)
    Blend: AUG-CC-PVTZ-JKFIT

    Orbital Energies [Eh]
    ---------------------

    Doubly Occupied:

       1A    -20.803976     2A    -20.715343     3A    -15.902566
       4A    -11.582345     5A    -11.512948     6A    -11.420988
       7A     -1.658003     8A     -1.529568     9A     -1.476865
      10A     -1.269987    11A     -1.119286    12A     -1.031609
      13A     -0.984324    14A     -0.966600    15A     -0.889811
      16A     -0.871375    17A     -0.852883    18A     -0.817290
      19A     -0.764615    20A     -0.740863    21A     -0.728095
      22A     -0.711269    23A     -0.625716    24A     -0.623834

  @DF-RHF Final Energy:  -322.33616200818005

   => Energetics <=

    Nuclear Repulsion Energy =            260.2452092540986541
    One-Electron Energy =                -945.9624259303936924
    Two-Electron Energy =                 363.3810546681149845
    Total Energy =                       -322.3361620081800538
  Basis Set: (AUG-CC-PVTZ AUX)
    Blend: AUG-CC-PVTZ-RI
    Molecular point group: c1

    Geometry (in Angstrom), charge = 1, multiplicity = 1:

       Center              X                  Y                   Z               Mass
    ------------   -----------------  -----------------  -----------------  -----------------
         O           -1.591287690096     0.840264385342    -0.271586490906    15.994914619570
         O           -1.052738690096    -1.258007614658     0.440444509094    15.994914619570
         N            1.518452309904    -0.997924614658    -0.151443490906    14.003074004430
         C            0.672153309904     0.216133385342    -0.391385490906    12.000000000000
         C            1.189847309904     1.404543385342     0.404426509094    12.000000000000
         C           -0.726257090096    -0.082297514658    -0.063597590906    12.000000000000
         H            0.721225309904     0.423415385342    -1.462888490906     1.007825032230
         H            1.190390309904    -1.805688614658    -0.694843490906     1.007825032230
         H            1.499282309904    -1.279070614658     0.836137509094     1.007825032230
         H            2.498646309904    -0.826145614658    -0.409037490906     1.007825032230
         H            1.146900309904     1.205909385342     1.478008509094     1.007825032230
         H            0.565040309904     2.268360385342     0.179567509094     1.007825032230
         H            2.217608309904     1.635457385342     0.118296509094     1.007825032230
         H           -2.497487690096     0.555946385342    -0.018962490906     1.007825032230

  Basis Set: AUG-CC-PVTZ
    Blend: AUG-CC-PVTZ
  Basis Set: (AUG-CC-PVTZ AUX)
    Blend: AUG-CC-PVTZ-JKFIT
	 Reference Energy          =    -322.3361620081800538 [Eh]
	 Singles Energy            =      -0.0000000000000000 [Eh]
	 Same-Spin Energy          =      -0.3137941495680691 [Eh]
	 Opposite-Spin Energy      =      -1.0014670753988315 [Eh]
	 Correlation Energy        =      -1.3152612249669007 [Eh]
	 Total Energy              =    -323.6514232331469429 [Eh]

	 ================> DF-SCS-MP2 Energies <==================
	-----------------------------------------------------------
	 SCS Same-Spin Scale       =       0.3333333333333333 [-]
	 SCS Opposite-Spin Scale   =       1.2000000000000000 [-]
	 SCS Same-Spin Energy      =      -0.1045980498560230 [Eh]
	 SCS Opposite-Spin Energy  =      -1.2017604904785977 [Eh]
	 SCS Correlation Energy    =      -1.3063585403346207 [Eh]
	 SCS Total Energy          =    -323.6425205485146535 [Eh]
	-----------------------------------------------------------

  Dipole Moment: [D]
     X:     5.6674      Y:    -0.6709      Z:    -1.2777     Total:     5.8482

*** Psi4 exiting successfully. Buy a developer a beer!
