                               Psi4 1.3.2 release

  ==> Input File <==

--------------------------------------------------------------------------
#psi4
#
memory 32 gb

molecule  {
1 1
  O       -1.6624030     0.8291070    -0.2765410
  O       -1.1238540    -1.2691650     0.4354900
  N        1.4473370    -1.0090820    -0.1563980
  C        0.6010380     0.2049760    -0.3963400
  C        1.1187320     1.3933860     0.3994720
  C       -0.8132157    -0.1760048    -0.0342506
  H        0.6501100     0.4122580    -1.4678430
  H        1.1192750    -1.8168460    -0.6997980
  H        1.4281670    -1.2902280     0.8311830
  H        2.4275310    -0.8373030    -0.4139920
  H        1.0757850     1.1947520     1.4730540
  H        0.4939250     2.2572030     0.1746130
  H        2.1464930     1.6243000     0.1133420
  H       -2.5716331     0.5524455    -0.0263148
units angstrom
no_reorient  #important for SAPT in psi4, default
symmetry c1  #important for SAPT in psi4, default
}

set PROPERTIES_ORIGIN ["COM"]
properties('MP2/aug-cc-pvtz', properties = ['dipole'])
--------------------------------------------------------------------------

    Molecular point group: c1
  Charge       = 1
  Multiplicity = 1
  Basis Set: AUG-CC-PVTZ
    Blend: AUG-CC-PVTZ
  Basis Set: (AUG-CC-PVTZ AUX)
    Blend: AUG-CC-PVTZ-JKFIT

    Orbital Energies [Eh]
    ---------------------

    Doubly Occupied:

       1A    -20.786736     2A    -20.733133     3A    -15.901060
       4A    -11.576881     5A    -11.510115     6A    -11.417319
       7A     -1.636782     8A     -1.540804     9A     -1.514263
      10A     -1.258457    11A     -1.109783    12A     -1.013906
      13A     -0.980278    14A     -0.966165    15A     -0.885648
      16A     -0.860650    17A     -0.847906    18A     -0.810577
      19A     -0.770594    20A     -0.737408    21A     -0.733036
      22A     -0.717158    23A     -0.653333    24A     -0.636700

  @DF-RHF Final Energy:  -322.35761895282889

   => Energetics <=

    Nuclear Repulsion Energy =            260.2495262644965237
    One-Electron Energy =                -946.0169074876084778
    Two-Electron Energy =                 363.4097622702830108
    Total Energy =                       -322.3576189528288864
  Basis Set: (AUG-CC-PVTZ AUX)
    Blend: AUG-CC-PVTZ-RI
    Molecular point group: c1

    Geometry (in Angstrom), charge = 1, multiplicity = 1:

       Center              X                  Y                   Z               Mass
    ------------   -----------------  -----------------  -----------------  -----------------
         O           -1.589142641730     0.851178569922    -0.276130371305    15.994914619570
         O           -1.050593641730    -1.247093430078     0.435900628695    15.994914619570
         N            1.520597358270    -0.987010430078    -0.155987371305    14.003074004430
         C            0.674298358270     0.227047569922    -0.395929371305    12.000000000000
         C            1.191992358270     1.415457569922     0.399882628695    12.000000000000
         C           -0.739955341730    -0.153933230078    -0.033839971305    12.000000000000
         H            0.723370358270     0.434329569922    -1.467432371305     1.007825032230
         H            1.192535358270    -1.794774430078    -0.699387371305     1.007825032230
         H            1.501427358270    -1.268156430078     0.831593628695     1.007825032230
         H            2.500791358270    -0.815231430078    -0.413581371305     1.007825032230
         H            1.149045358270     1.216823569922     1.473464628695     1.007825032230
         H            0.567185358270     2.279274569922     0.175023628695     1.007825032230
         H            2.219753358270     1.646371569922     0.113752628695     1.007825032230
         H           -2.498372741730     0.574517069922    -0.025904171305     1.007825032230

  Basis Set: AUG-CC-PVTZ
    Blend: AUG-CC-PVTZ
  Basis Set: (AUG-CC-PVTZ AUX)
    Blend: AUG-CC-PVTZ-JKFIT
	 Reference Energy          =    -322.3576189528288864 [Eh]
	 Singles Energy            =      -0.0000000000000000 [Eh]
	 Same-Spin Energy          =      -0.3118399538851619 [Eh]
	 Opposite-Spin Energy      =      -0.9981035387226906 [Eh]
	 Correlation Energy        =      -1.3099434926078526 [Eh]
	 Total Energy              =    -323.6675624454367153 [Eh]

	 ================> DF-SCS-MP2 Energies <==================
	-----------------------------------------------------------
	 SCS Same-Spin Scale       =       0.3333333333333333 [-]
	 SCS Opposite-Spin Scale   =       1.2000000000000000 [-]
	 SCS Same-Spin Energy      =      -0.1039466512950540 [Eh]
	 SCS Opposite-Spin Energy  =      -1.1977242464672286 [Eh]
	 SCS Correlation Energy    =      -1.3016708977622826 [Eh]
	 SCS Total Energy          =    -323.6592898505911648 [Eh]
	-----------------------------------------------------------

  Dipole Moment: [D]
     X:     5.7145      Y:    -1.1715      Z:    -1.1060     Total:     5.9372

*** Psi4 exiting successfully. Buy a developer a beer!
