                               Psi4 1.3.2 release

  ==> Input File <==

--------------------------------------------------------------------------
#psi4
#
memory 32 gb

molecule  {
1 1
  O       -1.6624030     0.8291070    -0.2765410
  O       -1.1238540    -1.2691650     0.4354900
  N        1.4473370    -1.0090820    -0.1563980
  C        0.6010380     0.2049760    -0.3963400
  C        1.1187320     1.3933860     0.3994720
  C       -0.8221020    -0.1825100    -0.0303730
  H        0.6501100     0.4122580    -1.4678430
  H        1.1512087    -1.7382179    -0.6469032
  H        1.4281670    -1.2902280     0.8311830
  H        2.4275310    -0.8373030    -0.4139920
  H        1.0757850     1.1947520     1.4730540
  H        0.4939250     2.2572030     0.1746130
  H        2.1464930     1.6243000     0.1133420
  H       -2.5686030     0.5447890    -0.0239170
units angstrom
no_reorient  #important for SAPT in psi4, default
symmetry c1  #important for SAPT in psi4, default
}

set PROPERTIES_ORIGIN ["COM"]
properties('MP2/aug-cc-pvtz', properties = ['dipole'])
--------------------------------------------------------------------------

    Molecular point group: c1
  Charge       = 1
  Multiplicity = 1
  Basis Set: AUG-CC-PVTZ
    Blend: AUG-CC-PVTZ
  Basis Set: (AUG-CC-PVTZ AUX)
    Blend: AUG-CC-PVTZ-JKFIT

    Orbital Energies [Eh]
    ---------------------

    Doubly Occupied:

       1A    -20.787482     2A    -20.735126     3A    -15.894366
       4A    -11.576949     5A    -11.510689     6A    -11.417390
       7A     -1.639967     8A     -1.550220     9A     -1.528218
      10A     -1.261391    11A     -1.108991    12A     -1.015889
      13A     -0.996608    14A     -0.982020    15A     -0.887954
      16A     -0.861563    17A     -0.849732    18A     -0.813295
      19A     -0.772578    20A     -0.739135    21A     -0.735174
      22A     -0.717829    23A     -0.657018    24A     -0.637342

  @DF-RHF Final Energy:  -322.35256831187132

   => Energetics <=

    Nuclear Repulsion Energy =            260.8131854354224402
    One-Electron Energy =                -946.9776558861923377
    Two-Electron Energy =                 363.8119021388985175
    Total Energy =                       -322.3525683118713232
  Basis Set: (AUG-CC-PVTZ AUX)
    Blend: AUG-CC-PVTZ-RI
    Molecular point group: c1

    Geometry (in Angstrom), charge = 1, multiplicity = 1:

       Center              X                  Y                   Z               Mass
    ------------   -----------------  -----------------  -----------------  -----------------
         O           -1.588349817257     0.851251141222    -0.277265854006    15.994914619570
         O           -1.049800817257    -1.247020858778     0.434765145994    15.994914619570
         N            1.521390182743    -0.986937858778    -0.157122854006    14.003074004430
         C            0.675091182743     0.227120141222    -0.397064854006    12.000000000000
         C            1.192785182743     1.415530141222     0.398747145994    12.000000000000
         C           -0.748048817257    -0.160365858778    -0.031097854006    12.000000000000
         H            0.724163182743     0.434402141222    -1.468567854006     1.007825032230
         H            1.225261882743    -1.716073758778    -0.647628054006     1.007825032230
         H            1.502220182743    -1.268083858778     0.830458145994     1.007825032230
         H            2.501584182743    -0.815158858778    -0.414716854006     1.007825032230
         H            1.149838182743     1.216896141222     1.472329145994     1.007825032230
         H            0.567978182743     2.279347141222     0.173888145994     1.007825032230
         H            2.220546182743     1.646444141222     0.112617145994     1.007825032230
         H           -2.494549817257     0.566933141222    -0.024641854006     1.007825032230

  Basis Set: AUG-CC-PVTZ
    Blend: AUG-CC-PVTZ
  Basis Set: (AUG-CC-PVTZ AUX)
    Blend: AUG-CC-PVTZ-JKFIT
	 Reference Energy          =    -322.3525683118713232 [Eh]
	 Singles Energy            =      -0.0000000000000000 [Eh]
	 Same-Spin Energy          =      -0.3110559631597244 [Eh]
	 Opposite-Spin Energy      =      -0.9961418906750246 [Eh]
	 Correlation Energy        =      -1.3071978538347491 [Eh]
	 Total Energy              =    -323.6597661657060598 [Eh]

	 ================> DF-SCS-MP2 Energies <==================
	-----------------------------------------------------------
	 SCS Same-Spin Scale       =       0.3333333333333333 [-]
	 SCS Opposite-Spin Scale   =       1.2000000000000000 [-]
	 SCS Same-Spin Energy      =      -0.1036853210532415 [Eh]
	 SCS Opposite-Spin Energy  =      -1.1953702688100294 [Eh]
	 SCS Correlation Energy    =      -1.2990555898632707 [Eh]
	 SCS Total Energy          =    -323.6516239017345811 [Eh]
	-----------------------------------------------------------

  Dipole Moment: [D]
     X:     5.7190      Y:    -1.0982      Z:    -1.0113     Total:     5.9107

*** Psi4 exiting successfully. Buy a developer a beer!
