                               Psi4 1.3.2 release

  ==> Input File <==

--------------------------------------------------------------------------
#psi4
#
memory 32 gb

molecule  {
1 1
  O       -1.6077083     0.8666385    -0.2990429
  O       -1.1238540    -1.2691650     0.4354900
  N        1.4473370    -1.0090820    -0.1563980
  C        0.5736656     0.2762714    -0.4186476
  C        1.1187320     1.3933860     0.3994720
  C       -0.8221020    -0.1825100    -0.0303730
  H        0.6501100     0.4122580    -1.4678430
  H        1.1192750    -1.8168460    -0.6997980
  H        1.4281670    -1.2902280     0.8311830
  H        2.4275310    -0.8373030    -0.4139920
  H        1.0757850     1.1947520     1.4730540
  H        0.4939250     2.2572030     0.1746130
  H        2.1464930     1.6243000     0.1133420
  H       -2.5686030     0.5447890    -0.0239170
units angstrom
no_reorient  #important for SAPT in psi4, default
symmetry c1  #important for SAPT in psi4, default
}

set PROPERTIES_ORIGIN ["COM"]
properties('MP2/aug-cc-pvtz', properties = ['dipole'])
--------------------------------------------------------------------------

    Molecular point group: c1
  Charge       = 1
  Multiplicity = 1
  Basis Set: AUG-CC-PVTZ
    Blend: AUG-CC-PVTZ
  Basis Set: (AUG-CC-PVTZ AUX)
    Blend: AUG-CC-PVTZ-JKFIT

    Orbital Energies [Eh]
    ---------------------

    Doubly Occupied:

       1A    -20.795912     2A    -20.740636     3A    -15.887223
       4A    -11.578501     5A    -11.510980     6A    -11.414989
       7A     -1.636816     8A     -1.543170     9A     -1.495507
      10A     -1.262367    11A     -1.107223    12A     -0.998981
      13A     -0.960610    14A     -0.950736    15A     -0.889210
      16A     -0.859492    17A     -0.835353    18A     -0.814705
      19A     -0.771974    20A     -0.744534    21A     -0.732380
      22A     -0.722065    23A     -0.660877    24A     -0.639739

  @DF-RHF Final Energy:  -322.34353261700824

   => Energetics <=

    Nuclear Repulsion Energy =            259.9914597108297016
    One-Electron Energy =                -945.5620249687315209
    Two-Electron Energy =                 363.2270326408935261
    Total Energy =                       -322.3435326170082362
  Basis Set: (AUG-CC-PVTZ AUX)
    Blend: AUG-CC-PVTZ-RI
    Molecular point group: c1

    Geometry (in Angstrom), charge = 1, multiplicity = 1:

       Center              X                  Y                   Z               Mass
    ------------   -----------------  -----------------  -----------------  -----------------
         O           -1.539364759138     0.873496350911    -0.292206685039    15.994914619570
         O           -1.055510459138    -1.262307149089     0.442326214961    15.994914619570
         N            1.515680540862    -1.002224149089    -0.149561785039    14.003074004430
         C            0.642009140862     0.283129250911    -0.411811385039    12.000000000000
         C            1.187075540862     1.400243850911     0.406308214961    12.000000000000
         C           -0.753758459138    -0.175652149089    -0.023536785039    12.000000000000
         H            0.718453540862     0.419115850911    -1.461006785039     1.007825032230
         H            1.187618540862    -1.809988149089    -0.692961785039     1.007825032230
         H            1.496510540862    -1.283370149089     0.838019214961     1.007825032230
         H            2.495874540862    -0.830445149089    -0.407155785039     1.007825032230
         H            1.144128540862     1.201609850911     1.479890214961     1.007825032230
         H            0.562268540862     2.264060850911     0.181449214961     1.007825032230
         H            2.214836540862     1.631157850911     0.120178214961     1.007825032230
         H           -2.500259459138     0.551646850911    -0.017080785039     1.007825032230

  Basis Set: AUG-CC-PVTZ
    Blend: AUG-CC-PVTZ
  Basis Set: (AUG-CC-PVTZ AUX)
    Blend: AUG-CC-PVTZ-JKFIT
	 Reference Energy          =    -322.3435326170082362 [Eh]
	 Singles Energy            =      -0.0000000000000000 [Eh]
	 Same-Spin Energy          =      -0.3131359618944790 [Eh]
	 Opposite-Spin Energy      =      -1.0014083470747099 [Eh]
	 Correlation Energy        =      -1.3145443089691891 [Eh]
	 Total Energy              =    -323.6580769259774115 [Eh]

	 ================> DF-SCS-MP2 Energies <==================
	-----------------------------------------------------------
	 SCS Same-Spin Scale       =       0.3333333333333333 [-]
	 SCS Opposite-Spin Scale   =       1.2000000000000000 [-]
	 SCS Same-Spin Energy      =      -0.1043786539648263 [Eh]
	 SCS Opposite-Spin Energy  =      -1.2016900164896518 [Eh]
	 SCS Correlation Energy    =      -1.3060686704544782 [Eh]
	 SCS Total Energy          =    -323.6496012874627013 [Eh]
	-----------------------------------------------------------

  Dipole Moment: [D]
     X:     5.3330      Y:    -1.1134      Z:    -1.0320     Total:     5.5448

*** Psi4 exiting successfully. Buy a developer a beer!
