                               Psi4 1.3.2 release

  ==> Input File <==

--------------------------------------------------------------------------
#psi4
#
memory 32 gb

molecule  {
1 1
  O       -1.6624030     0.8291070    -0.2765410
  O       -1.1238540    -1.2691650     0.4354900
  N        1.4355788    -1.0060899    -0.1054931
  C        0.6010380     0.2049760    -0.3963400
  C        1.1187320     1.3933860     0.3994720
  C       -0.8221020    -0.1825100    -0.0303730
  H        0.6271155     0.4421914    -1.4624270
  H        1.1192750    -1.8168460    -0.6997980
  H        1.4281670    -1.2902280     0.8311830
  H        2.4275310    -0.8373030    -0.4139920
  H        1.0757850     1.1947520     1.4730540
  H        0.4939250     2.2572030     0.1746130
  H        2.1464930     1.6243000     0.1133420
  H       -2.5686030     0.5447890    -0.0239170
units angstrom
no_reorient  #important for SAPT in psi4, default
symmetry c1  #important for SAPT in psi4, default
}

set PROPERTIES_ORIGIN ["COM"]
properties('MP2/aug-cc-pvtz', properties = ['dipole'])
--------------------------------------------------------------------------

    Molecular point group: c1
  Charge       = 1
  Multiplicity = 1
  Basis Set: AUG-CC-PVTZ
    Blend: AUG-CC-PVTZ
  Basis Set: (AUG-CC-PVTZ AUX)
    Blend: AUG-CC-PVTZ-JKFIT

    Orbital Energies [Eh]
    ---------------------

    Doubly Occupied:

       1A    -20.786363     2A    -20.733750     3A    -15.901258
       4A    -11.575033     5A    -11.509356     6A    -11.415539
       7A     -1.638750     8A     -1.544268     9A     -1.515514
      10A     -1.256439    11A     -1.107146    12A     -1.017783
      13A     -0.982757    14A     -0.953204    15A     -0.890320
      16A     -0.856398    17A     -0.854707    18A     -0.810528
      19A     -0.770677    20A     -0.734719    21A     -0.732292
      22A     -0.716811    23A     -0.656083    24A     -0.635988

  @DF-RHF Final Energy:  -322.35424982329431

   => Energetics <=

    Nuclear Repulsion Energy =            260.5033288801617459
    One-Electron Energy =                -946.5237939400224150
    Two-Electron Energy =                 363.6662152365664156
    Total Energy =                       -322.3542498232943103
  Basis Set: (AUG-CC-PVTZ AUX)
    Blend: AUG-CC-PVTZ-RI
    Molecular point group: c1

    Geometry (in Angstrom), charge = 1, multiplicity = 1:

       Center              X                  Y                   Z               Mass
    ------------   -----------------  -----------------  -----------------  -----------------
         O           -1.585906779895     0.851330838071    -0.284649908649    15.994914619570
         O           -1.047357779895    -1.246941161929     0.427381091351    15.994914619570
         N            1.512075020105    -0.983866061929    -0.113602008649    14.003074004430
         C            0.677534220105     0.227199838071    -0.404448908649    12.000000000000
         C            1.195228220105     1.415609838071     0.391363091351    12.000000000000
         C           -0.745605779895    -0.160286161929    -0.038481908649    12.000000000000
         H            0.703611720105     0.464415238071    -1.470535908649     1.007825032230
         H            1.195771220105    -1.794622161929    -0.707906908649     1.007825032230
         H            1.504663220105    -1.268004161929     0.823074091351     1.007825032230
         H            2.504027220105    -0.815079161929    -0.422100908649     1.007825032230
         H            1.152281220105     1.216975838071     1.464945091351     1.007825032230
         H            0.570421220105     2.279426838071     0.166504091351     1.007825032230
         H            2.222989220105     1.646523838071     0.105233091351     1.007825032230
         H           -2.492106779895     0.567012838071    -0.032025908649     1.007825032230

  Basis Set: AUG-CC-PVTZ
    Blend: AUG-CC-PVTZ
  Basis Set: (AUG-CC-PVTZ AUX)
    Blend: AUG-CC-PVTZ-JKFIT
	 Reference Energy          =    -322.3542498232943103 [Eh]
	 Singles Energy            =      -0.0000000000000000 [Eh]
	 Same-Spin Energy          =      -0.3117133190244741 [Eh]
	 Opposite-Spin Energy      =      -0.9978784709567240 [Eh]
	 Correlation Energy        =      -1.3095917899811980 [Eh]
	 Total Energy              =    -323.6638416132755083 [Eh]

	 ================> DF-SCS-MP2 Energies <==================
	-----------------------------------------------------------
	 SCS Same-Spin Scale       =       0.3333333333333333 [-]
	 SCS Opposite-Spin Scale   =       1.2000000000000000 [-]
	 SCS Same-Spin Energy      =      -0.1039044396748247 [Eh]
	 SCS Opposite-Spin Energy  =      -1.1974541651480688 [Eh]
	 SCS Correlation Energy    =      -1.3013586048228936 [Eh]
	 SCS Total Energy          =    -323.6556084281172048 [Eh]
	-----------------------------------------------------------

  Dipole Moment: [D]
     X:     5.7046      Y:    -1.2298      Z:    -1.1690     Total:     5.9516

*** Psi4 exiting successfully. Buy a developer a beer!
