                               Psi4 1.3.2 release

  ==> Input File <==

--------------------------------------------------------------------------
#psi4
#
memory 32 gb

molecule  {
1 1
  O       -1.6624030     0.8291070    -0.2765410
  O       -1.0622154    -1.2856810     0.4325103
  N        1.4473370    -1.0090820    -0.1563980
  C        0.6246532     0.1329727    -0.3720961
  C        1.1187320     1.3933860     0.3994720
  C       -0.8221020    -0.1825100    -0.0303730
  H        0.6501100     0.4122580    -1.4678430
  H        1.1192750    -1.8168460    -0.6997980
  H        1.4281670    -1.2902280     0.8311830
  H        2.4275310    -0.8373030    -0.4139920
  H        1.0757850     1.1947520     1.4730540
  H        0.4939250     2.2572030     0.1746130
  H        2.1464930     1.6243000     0.1133420
  H       -2.5686030     0.5447890    -0.0239170
units angstrom
no_reorient  #important for SAPT in psi4, default
symmetry c1  #important for SAPT in psi4, default
}

set PROPERTIES_ORIGIN ["COM"]
properties('MP2/aug-cc-pvtz', properties = ['dipole'])
--------------------------------------------------------------------------

    Molecular point group: c1
  Charge       = 1
  Multiplicity = 1
  Basis Set: AUG-CC-PVTZ
    Blend: AUG-CC-PVTZ
  Basis Set: (AUG-CC-PVTZ AUX)
    Blend: AUG-CC-PVTZ-JKFIT

    Orbital Energies [Eh]
    ---------------------

    Doubly Occupied:

       1A    -20.792154     2A    -20.732726     3A    -15.905694
       4A    -11.576116     5A    -11.502281     6A    -11.415746
       7A     -1.639362     8A     -1.555631     9A     -1.528350
      10A     -1.244325    11A     -1.104082    12A     -1.020035
      13A     -0.990553    14A     -0.975787    15A     -0.888049
      16A     -0.871863    17A     -0.841427    18A     -0.809767
      19A     -0.768947    20A     -0.737151    21A     -0.728204
      22A     -0.700736    23A     -0.657975    24A     -0.632181

  @DF-RHF Final Energy:  -322.35134966962539

   => Energetics <=

    Nuclear Repulsion Energy =            261.0587935277291649
    One-Electron Energy =                -947.5820003233275202
    Two-Electron Energy =                 364.1718571259729060
    Total Energy =                       -322.3513496696253924
  Basis Set: (AUG-CC-PVTZ AUX)
    Blend: AUG-CC-PVTZ-RI
    Molecular point group: c1

    Geometry (in Angstrom), charge = 1, multiplicity = 1:

       Center              X                  Y                   Z               Mass
    ------------   -----------------  -----------------  -----------------  -----------------
         O           -1.602086933967     0.864659038911    -0.279375198155    15.994914619570
         O           -1.001899333967    -1.250128961089     0.429676101845    15.994914619570
         N            1.507653066033    -0.973529961089    -0.159232198155    14.003074004430
         C            0.684969266033     0.168524738911    -0.374930298155    12.000000000000
         C            1.179048066033     1.428938038911     0.396637801845    12.000000000000
         C           -0.761785933967    -0.146957961089    -0.033207198155    12.000000000000
         H            0.710426066033     0.447810038911    -1.470677198155     1.007825032230
         H            1.179591066033    -1.781293961089    -0.702632198155     1.007825032230
         H            1.488483066033    -1.254675961089     0.828348801845     1.007825032230
         H            2.487847066033    -0.801750961089    -0.416826198155     1.007825032230
         H            1.136101066033     1.230304038911     1.470219801845     1.007825032230
         H            0.554241066033     2.292755038911     0.171778801845     1.007825032230
         H            2.206809066033     1.659852038911     0.110507801845     1.007825032230
         H           -2.508286933967     0.580341038911    -0.026751198155     1.007825032230

  Basis Set: AUG-CC-PVTZ
    Blend: AUG-CC-PVTZ
  Basis Set: (AUG-CC-PVTZ AUX)
    Blend: AUG-CC-PVTZ-JKFIT
	 Reference Energy          =    -322.3513496696253924 [Eh]
	 Singles Energy            =      -0.0000000000000000 [Eh]
	 Same-Spin Energy          =      -0.3120157768037485 [Eh]
	 Opposite-Spin Energy      =      -0.9977710798521353 [Eh]
	 Correlation Energy        =      -1.3097868566558839 [Eh]
	 Total Energy              =    -323.6611365262812683 [Eh]

	 ================> DF-SCS-MP2 Energies <==================
	-----------------------------------------------------------
	 SCS Same-Spin Scale       =       0.3333333333333333 [-]
	 SCS Opposite-Spin Scale   =       1.2000000000000000 [-]
	 SCS Same-Spin Energy      =      -0.1040052589345828 [Eh]
	 SCS Opposite-Spin Energy  =      -1.1973252958225624 [Eh]
	 SCS Correlation Energy    =      -1.3013305547571452 [Eh]
	 SCS Total Energy          =    -323.6526802243825500 [Eh]
	-----------------------------------------------------------

  Dipole Moment: [D]
     X:     5.5401      Y:    -1.2738      Z:    -1.0863     Total:     5.7875

*** Psi4 exiting successfully. Buy a developer a beer!
