                               Psi4 1.3.2 release

  ==> Input File <==

--------------------------------------------------------------------------
#psi4
#
memory 32 gb

molecule  {
1 1
  O       -1.7146576     0.7891227    -0.2525166
  O       -1.1845274    -1.2493378     0.4380584
  N        1.4473370    -1.0090820    -0.1563980
  C        0.6010380     0.2049760    -0.3963400
  C        1.1187320     1.3933860     0.3994720
  C       -0.8221020    -0.1825100    -0.0303730
  H        0.6501100     0.4122580    -1.4678430
  H        1.1192750    -1.8168460    -0.6997980
  H        1.4281670    -1.2902280     0.8311830
  H        2.4275310    -0.8373030    -0.4139920
  H        1.0757850     1.1947520     1.4730540
  H        0.4939250     2.2572030     0.1746130
  H        2.1464930     1.6243000     0.1133420
  H       -2.5686030     0.5447890    -0.0239170
units angstrom
no_reorient  #important for SAPT in psi4, default
symmetry c1  #important for SAPT in psi4, default
}

set PROPERTIES_ORIGIN ["COM"]
properties('MP2/aug-cc-pvtz', properties = ['dipole'])
--------------------------------------------------------------------------

    Molecular point group: c1
  Charge       = 1
  Multiplicity = 1
  Basis Set: AUG-CC-PVTZ
    Blend: AUG-CC-PVTZ
  Basis Set: (AUG-CC-PVTZ AUX)
    Blend: AUG-CC-PVTZ-JKFIT

    Orbital Energies [Eh]
    ---------------------

    Doubly Occupied:

       1A    -20.771810     2A    -20.730007     3A    -15.905224
       4A    -11.575399     5A    -11.516466     6A    -11.419790
       7A     -1.643972     8A     -1.541069     9A     -1.518125
      10A     -1.261376    11A     -1.113149    12A     -1.024951
      13A     -0.986489    14A     -0.969860    15A     -0.883814
      16A     -0.866991    17A     -0.850634    18A     -0.810498
      19A     -0.771396    20A     -0.739830    21A     -0.733562
      22A     -0.719106    23A     -0.650201    24A     -0.635125

  @DF-RHF Final Energy:  -322.35597133339081

   => Energetics <=

    Nuclear Repulsion Energy =            259.9798930666378283
    One-Electron Energy =                -945.3940451905137934
    Two-Electron Energy =                 363.0581807904851530
    Total Energy =                       -322.3559713333908121
  Basis Set: (AUG-CC-PVTZ AUX)
    Blend: AUG-CC-PVTZ-RI
    Molecular point group: c1

    Geometry (in Angstrom), charge = 1, multiplicity = 1:

       Center              X                  Y                   Z               Mass
    ------------   -----------------  -----------------  -----------------  -----------------
         O           -1.620189703786     0.815726918011    -0.257372693603    15.994914619570
         O           -1.090059503786    -1.222733581989     0.433202306397    15.994914619570
         N            1.541804896214    -0.982477781989    -0.161254093603    14.003074004430
         C            0.695505896214     0.231580218011    -0.401196093603    12.000000000000
         C            1.213199896214     1.419990218011     0.394615906397    12.000000000000
         C           -0.727634103786    -0.155905781989    -0.035229093603    12.000000000000
         H            0.744577896214     0.438862218011    -1.472699093603     1.007825032230
         H            1.213742896214    -1.790241781989    -0.704654093603     1.007825032230
         H            1.522634896214    -1.263623781989     0.826326906397     1.007825032230
         H            2.521998896214    -0.810698781989    -0.418848093603     1.007825032230
         H            1.170252896214     1.221356218011     1.468197906397     1.007825032230
         H            0.588392896214     2.283807218011     0.169756906397     1.007825032230
         H            2.240960896214     1.650904218011     0.108485906397     1.007825032230
         H           -2.474135103786     0.571393218011    -0.028773093603     1.007825032230

  Basis Set: AUG-CC-PVTZ
    Blend: AUG-CC-PVTZ
  Basis Set: (AUG-CC-PVTZ AUX)
    Blend: AUG-CC-PVTZ-JKFIT
	 Reference Energy          =    -322.3559713333908121 [Eh]
	 Singles Energy            =      -0.0000000000000000 [Eh]
	 Same-Spin Energy          =      -0.3103454961912343 [Eh]
	 Opposite-Spin Energy      =      -0.9951045267844051 [Eh]
	 Correlation Energy        =      -1.3054500229756394 [Eh]
	 Total Energy              =    -323.6614213563664748 [Eh]

	 ================> DF-SCS-MP2 Energies <==================
	-----------------------------------------------------------
	 SCS Same-Spin Scale       =       0.3333333333333333 [-]
	 SCS Opposite-Spin Scale   =       1.2000000000000000 [-]
	 SCS Same-Spin Energy      =      -0.1034484987304114 [Eh]
	 SCS Opposite-Spin Energy  =      -1.1941254321412860 [Eh]
	 SCS Correlation Energy    =      -1.2975739308716974 [Eh]
	 SCS Total Energy          =    -323.6535452642625046 [Eh]
	-----------------------------------------------------------

  Dipole Moment: [D]
     X:     6.1488      Y:    -1.2211      Z:    -1.1436     Total:     6.3723

*** Psi4 exiting successfully. Buy a developer a beer!
