                               Psi4 1.4a3.dev225

  ==> Input File <==

--------------------------------------------------------------------------
#psi4
#
memory 32 gb

molecule  {
1 1
  O       -1.6123010     0.9094490    -0.1675920
  O       -1.1928110    -1.2795120     0.3034070
  N        1.4156850    -1.0522820    -0.0637630
  C        0.5827021     0.2080844    -0.4068437
  C        1.1650120     1.3928430     0.3122100
  C       -0.8284910    -0.1652490    -0.0350320
  H        0.6656880     0.2905790    -1.4809690
  H        0.9122540    -1.9066690    -0.3390640
  H        1.5920220    -1.1264780     0.9462830
  H        2.3268530    -1.0442670    -0.5383350
  H        1.0907020     1.2862690     1.3970100
  H        0.5903660     2.2672430     0.0071660
  H        2.2096640     1.5504630     0.0359860
  H       -2.5330880     0.6393330     0.0432950
units angstrom
no_reorient  #important for SAPT in psi4, default
symmetry c1  #important for SAPT in psi4, default
}

set PROPERTIES_ORIGIN ["COM"]
properties('MP2/aug-cc-pvtz', properties = ['dipole'])
--------------------------------------------------------------------------

    Molecular point group: c1
  Charge       = 1
  Multiplicity = 1
  Basis Set: AUG-CC-PVTZ
    Blend: AUG-CC-PVTZ
  Basis Set: (AUG-CC-PVTZ AUX)
    Blend: AUG-CC-PVTZ-JKFIT

    Orbital Energies [Eh]
    ---------------------

    Doubly Occupied:

       1A    -20.788692     2A    -20.737803     3A    -15.892233
       4A    -11.578329     5A    -11.512822     6A    -11.416265
       7A     -1.642795     8A     -1.545217     9A     -1.502672
      10A     -1.261591    11A     -1.111690    12A     -1.010543
      13A     -0.971952    14A     -0.955335    15A     -0.887675
      16A     -0.859688    17A     -0.848690    18A     -0.809865
      19A     -0.775673    20A     -0.742521    21A     -0.733685
      22A     -0.720077    23A     -0.659231    24A     -0.641676

  @DF-RHF Final Energy:  -322.35683105645518

   => Energetics <=

    Nuclear Repulsion Energy =            260.2922947706568380
    One-Electron Energy =                -946.0848086232915648
    Two-Electron Energy =                 363.4356827961796057
    Total Energy =                       -322.3568310564551780
  Basis Set: (AUG-CC-PVTZ AUX)
    Blend: AUG-CC-PVTZ-RI
    Molecular point group: c1

    Geometry (in Angstrom), charge = 1, multiplicity = 1:

       Center              X                  Y                   Z               Mass
    ------------   -----------------  -----------------  -----------------  -----------------
         O           -1.533407314863     0.925598879658    -0.165320216683    15.994914619570
         O           -1.113917314863    -1.263362120342     0.305678783317    15.994914619570
         N            1.494578685137    -1.036132120342    -0.061491216683    14.003074004430
         C            0.661595785137     0.224234279658    -0.404571916683    12.000000000000
         C            1.243905685137     1.408992879658     0.314481783317    12.000000000000
         C           -0.749597314863    -0.149099120342    -0.032760216683    12.000000000000
         H            0.744581685137     0.306728879658    -1.478697216683     1.007825032230
         H            0.991147685137    -1.890519120342    -0.336792216683     1.007825032230
         H            1.670915685137    -1.110328120342     0.948554783317     1.007825032230
         H            2.405746685137    -1.028117120342    -0.536063216683     1.007825032230
         H            1.169595685137     1.302418879658     1.399281783317     1.007825032230
         H            0.669259685137     2.283392879658     0.009437783317     1.007825032230
         H            2.288557685137     1.566612879658     0.038257783317     1.007825032230
         H           -2.454194314863     0.655482879658     0.045566783317     1.007825032230

  Basis Set: AUG-CC-PVTZ
    Blend: AUG-CC-PVTZ
  Basis Set: (AUG-CC-PVTZ AUX)
    Blend: AUG-CC-PVTZ-JKFIT
	 Reference Energy          =    -322.3568310564551780 [Eh]
	 Singles Energy            =      -0.0000000000000000 [Eh]
	 Same-Spin Energy          =      -0.3118193755513401 [Eh]
	 Opposite-Spin Energy      =      -0.9983370015584565 [Eh]
	 Correlation Energy        =      -1.3101563771097966 [Eh]
	 Total Energy              =    -323.6669874335649979 [Eh]

	 ================> DF-SCS-MP2 Energies <==================
	-----------------------------------------------------------
	 SCS Same-Spin Scale       =       0.3333333333333333 [-]
	 SCS Opposite-Spin Scale   =       1.2000000000000000 [-]
	 SCS Same-Spin Energy      =      -0.1039397918504467 [Eh]
	 SCS Opposite-Spin Energy  =      -1.1980044018701477 [Eh]
	 SCS Correlation Energy    =      -1.3019441937205944 [Eh]
	 SCS Total Energy          =    -323.6587752501757791 [Eh]
	-----------------------------------------------------------

  Dipole Moment: [D]
     X:     5.5536      Y:    -1.2208      Z:    -0.6642     Total:     5.7249

*** Psi4 exiting successfully. Buy a developer a beer!
