                               Psi4 1.3.2 release

  ==> Input File <==

--------------------------------------------------------------------------
#psi4
#
memory 32 gb

molecule  {
1 1
  O       -1.6624030     0.8291070    -0.2765410
  O       -1.1238540    -1.2691650     0.4354900
  N        1.4771661    -0.9807660    -0.1240415
  C        0.6010380     0.2049760    -0.3963400
  C        1.1573948     1.3624884     0.4186903
  C       -0.8221020    -0.1825100    -0.0303730
  H        0.6501100     0.4122580    -1.4678430
  H        1.1192750    -1.8168460    -0.6997980
  H        1.4281670    -1.2902280     0.8311830
  H        2.4275310    -0.8373030    -0.4139920
  H        1.0757850     1.1947520     1.4730540
  H        0.4939250     2.2572030     0.1746130
  H        2.1464930     1.6243000     0.1133420
  H       -2.5686030     0.5447890    -0.0239170
units angstrom
no_reorient  #important for SAPT in psi4, default
symmetry c1  #important for SAPT in psi4, default
}

set PROPERTIES_ORIGIN ["COM"]
properties('MP2/aug-cc-pvtz', properties = ['dipole'])
--------------------------------------------------------------------------

    Molecular point group: c1
  Charge       = 1
  Multiplicity = 1
  Basis Set: AUG-CC-PVTZ
    Blend: AUG-CC-PVTZ
  Basis Set: (AUG-CC-PVTZ AUX)
    Blend: AUG-CC-PVTZ-JKFIT

    Orbital Energies [Eh]
    ---------------------

    Doubly Occupied:

       1A    -20.787892     2A    -20.735723     3A    -15.898777
       4A    -11.577858     5A    -11.509943     6A    -11.414917
       7A     -1.640023     8A     -1.544762     9A     -1.516056
      10A     -1.255158    11A     -1.108850    12A     -1.015626
      13A     -0.989966    14A     -0.945509    15A     -0.888379
      16A     -0.864690    17A     -0.851786    18A     -0.811799
      19A     -0.776435    20A     -0.739127    21A     -0.726962
      22A     -0.709309    23A     -0.657155    24A     -0.638578

  @DF-RHF Final Energy:  -322.35190869650603

   => Energetics <=

    Nuclear Repulsion Energy =            260.1890583762105962
    One-Electron Energy =                -945.8713821903455710
    Two-Electron Energy =                 363.3304151176289452
    Total Energy =                       -322.3519086965060296
  Basis Set: (AUG-CC-PVTZ AUX)
    Blend: AUG-CC-PVTZ-RI
    Molecular point group: c1

    Geometry (in Angstrom), charge = 1, multiplicity = 1:

       Center              X                  Y                   Z               Mass
    ------------   -----------------  -----------------  -----------------  -----------------
         O           -1.597782545735     0.851845258425    -0.284265996540    15.994914619570
         O           -1.059233545735    -1.246426741575     0.427765003460    15.994914619570
         N            1.541786554265    -0.958027741575    -0.131766496540    14.003074004430
         C            0.665658454265     0.227714258425    -0.404064996540    12.000000000000
         C            1.222015254265     1.385226658425     0.410965303460    12.000000000000
         C           -0.757481545735    -0.159771741575    -0.038097996540    12.000000000000
         H            0.714730454265     0.434996258425    -1.475567996540     1.007825032230
         H            1.183895454265    -1.794107741575    -0.707522996540     1.007825032230
         H            1.492787454265    -1.267489741575     0.823458003460     1.007825032230
         H            2.492151454265    -0.814564741575    -0.421716996540     1.007825032230
         H            1.140405454265     1.217490258425     1.465329003460     1.007825032230
         H            0.558545454265     2.279941258425     0.166888003460     1.007825032230
         H            2.211113454265     1.647038258425     0.105617003460     1.007825032230
         H           -2.503982545735     0.567527258425    -0.031641996540     1.007825032230

  Basis Set: AUG-CC-PVTZ
    Blend: AUG-CC-PVTZ
  Basis Set: (AUG-CC-PVTZ AUX)
    Blend: AUG-CC-PVTZ-JKFIT
	 Reference Energy          =    -322.3519086965060296 [Eh]
	 Singles Energy            =      -0.0000000000000000 [Eh]
	 Same-Spin Energy          =      -0.3118424076839281 [Eh]
	 Opposite-Spin Energy      =      -0.9981767729791944 [Eh]
	 Correlation Energy        =      -1.3100191806631225 [Eh]
	 Total Energy              =    -323.6619278771691484 [Eh]

	 ================> DF-SCS-MP2 Energies <==================
	-----------------------------------------------------------
	 SCS Same-Spin Scale       =       0.3333333333333333 [-]
	 SCS Opposite-Spin Scale   =       1.2000000000000000 [-]
	 SCS Same-Spin Energy      =      -0.1039474692279760 [Eh]
	 SCS Opposite-Spin Energy  =      -1.1978121275750333 [Eh]
	 SCS Correlation Energy    =      -1.3017595968030093 [Eh]
	 SCS Total Energy          =    -323.6536682933090106 [Eh]
	-----------------------------------------------------------

  Dipole Moment: [D]
     X:     5.5807      Y:    -1.2353      Z:    -1.1485     Total:     5.8300

*** Psi4 exiting successfully. Buy a developer a beer!
