                               Psi4 1.3.2 release

  ==> Input File <==

--------------------------------------------------------------------------
#psi4
#
memory 32 gb

molecule  {
1 1
  O       -1.6624030     0.8291070    -0.2765410
  O       -1.1238540    -1.2691650     0.4354900
  N        1.5097042    -0.9677630    -0.1801456
  C        0.6010380     0.2049760    -0.3963400
  C        1.1187320     1.3933860     0.3994720
  C       -0.8449414    -0.1088189    -0.0498129
  H        0.6501100     0.4122580    -1.4678430
  H        1.1192750    -1.8168460    -0.6997980
  H        1.4281670    -1.2902280     0.8311830
  H        2.4275310    -0.8373030    -0.4139920
  H        1.0757850     1.1947520     1.4730540
  H        0.4939250     2.2572030     0.1746130
  H        2.1464930     1.6243000     0.1133420
  H       -2.5686030     0.5447890    -0.0239170
units angstrom
no_reorient  #important for SAPT in psi4, default
symmetry c1  #important for SAPT in psi4, default
}

set PROPERTIES_ORIGIN ["COM"]
properties('MP2/aug-cc-pvtz', properties = ['dipole'])
--------------------------------------------------------------------------

    Molecular point group: c1
  Charge       = 1
  Multiplicity = 1
  Basis Set: AUG-CC-PVTZ
    Blend: AUG-CC-PVTZ
  Basis Set: (AUG-CC-PVTZ AUX)
    Blend: AUG-CC-PVTZ-JKFIT

    Orbital Energies [Eh]
    ---------------------

    Doubly Occupied:

       1A    -20.809710     2A    -20.719252     3A    -15.898870
       4A    -11.582502     5A    -11.509589     6A    -11.415467
       7A     -1.672251     8A     -1.528554     9A     -1.495836
      10A     -1.258057    11A     -1.110937    12A     -1.033305
      13A     -0.994510    14A     -0.943799    15A     -0.897871
      16A     -0.876829    17A     -0.846550    18A     -0.822384
      19A     -0.767461    20A     -0.733981    21A     -0.726719
      22A     -0.711780    23A     -0.635361    24A     -0.626652

  @DF-RHF Final Energy:  -322.33669456605753

   => Energetics <=

    Nuclear Repulsion Energy =            259.7991059021687192
    One-Electron Energy =                -945.0351497237624017
    Two-Electron Energy =                 362.8993492555362081
    Total Energy =                       -322.3366945660575311
  Basis Set: (AUG-CC-PVTZ AUX)
    Blend: AUG-CC-PVTZ-RI
    Molecular point group: c1

    Geometry (in Angstrom), charge = 1, multiplicity = 1:

       Center              X                  Y                   Z               Mass
    ------------   -----------------  -----------------  -----------------  -----------------
         O           -1.594646779827     0.835886807077    -0.270390906005    15.994914619570
         O           -1.056097779827    -1.262385192923     0.441640093995    15.994914619570
         N            1.577460420173    -0.960983192923    -0.173995506005    14.003074004430
         C            0.668794220173     0.211755807077    -0.390189906005    12.000000000000
         C            1.186488220173     1.400165807077     0.405622093995    12.000000000000
         C           -0.777185179827    -0.102039092923    -0.043662806005    12.000000000000
         H            0.717866220173     0.419037807077    -1.461692906005     1.007825032230
         H            1.187031220173    -1.810066192923    -0.693647906005     1.007825032230
         H            1.495923220173    -1.283448192923     0.837333093995     1.007825032230
         H            2.495287220173    -0.830523192923    -0.407841906005     1.007825032230
         H            1.143541220173     1.201531807077     1.479204093995     1.007825032230
         H            0.561681220173     2.263982807077     0.180763093995     1.007825032230
         H            2.214249220173     1.631079807077     0.119492093995     1.007825032230
         H           -2.500846779827     0.551568807077    -0.017766906005     1.007825032230

  Basis Set: AUG-CC-PVTZ
    Blend: AUG-CC-PVTZ
  Basis Set: (AUG-CC-PVTZ AUX)
    Blend: AUG-CC-PVTZ-JKFIT
	 Reference Energy          =    -322.3366945660575311 [Eh]
	 Singles Energy            =      -0.0000000000000000 [Eh]
	 Same-Spin Energy          =      -0.3128276757644883 [Eh]
	 Opposite-Spin Energy      =      -0.9996513900162545 [Eh]
	 Correlation Energy        =      -1.3124790657807428 [Eh]
	 Total Energy              =    -323.6491736318382664 [Eh]

	 ================> DF-SCS-MP2 Energies <==================
	-----------------------------------------------------------
	 SCS Same-Spin Scale       =       0.3333333333333333 [-]
	 SCS Opposite-Spin Scale   =       1.2000000000000000 [-]
	 SCS Same-Spin Energy      =      -0.1042758919214961 [Eh]
	 SCS Opposite-Spin Energy  =      -1.1995816680195053 [Eh]
	 SCS Correlation Energy    =      -1.3038575599410014 [Eh]
	 SCS Total Energy          =    -323.6405521259985107 [Eh]
	-----------------------------------------------------------

  Dipole Moment: [D]
     X:     5.3177      Y:    -0.7825      Z:    -1.2175     Total:     5.5111

*** Psi4 exiting successfully. Buy a developer a beer!
