                               Psi4 1.3.2 release

  ==> Input File <==

--------------------------------------------------------------------------
#psi4
#
memory 32 gb

molecule  {
1 1
  O       -1.6975043     0.8027523    -0.2605956
  O       -1.1644051    -1.2562746     0.4373447
  N        1.4473370    -1.0090820    -0.1563980
  C        0.6010380     0.2049760    -0.3963400
  C        1.1187320     1.3933860     0.3994720
  C       -0.8221020    -0.1825100    -0.0303730
  H        0.6501100     0.4122580    -1.4678430
  H        1.1192750    -1.8168460    -0.6997980
  H        1.4281670    -1.2902280     0.8311830
  H        2.4275310    -0.8373030    -0.4139920
  H        1.0757850     1.1947520     1.4730540
  H        0.4939250     2.2572030     0.1746130
  H        2.1464930     1.6243000     0.1133420
  H       -2.5686030     0.5447890    -0.0239170
units angstrom
no_reorient  #important for SAPT in psi4, default
symmetry c1  #important for SAPT in psi4, default
}

set PROPERTIES_ORIGIN ["COM"]
properties('MP2/aug-cc-pvtz', properties = ['dipole'])
--------------------------------------------------------------------------

    Molecular point group: c1
  Charge       = 1
  Multiplicity = 1
  Basis Set: AUG-CC-PVTZ
    Blend: AUG-CC-PVTZ
  Basis Set: (AUG-CC-PVTZ AUX)
    Blend: AUG-CC-PVTZ-JKFIT

    Orbital Energies [Eh]
    ---------------------

    Doubly Occupied:

       1A    -20.777035     2A    -20.731518     3A    -15.903642
       4A    -11.575548     5A    -11.514078     6A    -11.418697
       7A     -1.642183     8A     -1.541928     9A     -1.517433
      10A     -1.259584    11A     -1.111255    12A     -1.020569
      13A     -0.984164    14A     -0.968453    15A     -0.884752
      16A     -0.864439    17A     -0.849994    18A     -0.810871
      19A     -0.771669    20A     -0.738794    21A     -0.733675
      22A     -0.718408    23A     -0.652375    24A     -0.635954

  @DF-RHF Final Energy:  -322.35870894187025

   => Energetics <=

    Nuclear Repulsion Energy =            260.0544713992367747
    One-Electron Energy =                -945.5723276442976157
    Two-Electron Energy =                 363.1591473031905366
    Total Energy =                       -322.3587089418702476
  Basis Set: (AUG-CC-PVTZ AUX)
    Blend: AUG-CC-PVTZ-RI
    Molecular point group: c1

    Geometry (in Angstrom), charge = 1, multiplicity = 1:

       Center              X                  Y                   Z               Mass
    ------------   -----------------  -----------------  -----------------  -----------------
         O           -1.609656987940     0.828167798161    -0.263890006862    15.994914619570
         O           -1.076557787940    -1.230859101839     0.434050293138    15.994914619570
         N            1.535184312060    -0.983666501839    -0.159692406862    14.003074004430
         C            0.688885312060     0.230391498161    -0.399634406862    12.000000000000
         C            1.206579312060     1.418801498161     0.396177593138    12.000000000000
         C           -0.734254687940    -0.157094501839    -0.033667406862    12.000000000000
         H            0.737957312060     0.437673498161    -1.471137406862     1.007825032230
         H            1.207122312060    -1.791430501839    -0.703092406862     1.007825032230
         H            1.516014312060    -1.264812501839     0.827888593138     1.007825032230
         H            2.515378312060    -0.811887501839    -0.417286406862     1.007825032230
         H            1.163632312060     1.220167498161     1.469759593138     1.007825032230
         H            0.581772312060     2.282618498161     0.171318593138     1.007825032230
         H            2.234340312060     1.649715498161     0.110047593138     1.007825032230
         H           -2.480755687940     0.570204498161    -0.027211406862     1.007825032230

  Basis Set: AUG-CC-PVTZ
    Blend: AUG-CC-PVTZ
  Basis Set: (AUG-CC-PVTZ AUX)
    Blend: AUG-CC-PVTZ-JKFIT
	 Reference Energy          =    -322.3587089418702476 [Eh]
	 Singles Energy            =      -0.0000000000000000 [Eh]
	 Same-Spin Energy          =      -0.3107286463875940 [Eh]
	 Opposite-Spin Energy      =      -0.9958683698186199 [Eh]
	 Correlation Energy        =      -1.3065970162062139 [Eh]
	 Total Energy              =    -323.6653059580764875 [Eh]

	 ================> DF-SCS-MP2 Energies <==================
	-----------------------------------------------------------
	 SCS Same-Spin Scale       =       0.3333333333333333 [-]
	 SCS Opposite-Spin Scale   =       1.2000000000000000 [-]
	 SCS Same-Spin Energy      =      -0.1035762154625313 [Eh]
	 SCS Opposite-Spin Energy  =      -1.1950420437823439 [Eh]
	 SCS Correlation Energy    =      -1.2986182592448752 [Eh]
	 SCS Total Energy          =    -323.6573272011150948 [Eh]
	-----------------------------------------------------------

  Dipole Moment: [D]
     X:     5.9930      Y:    -1.2197      Z:    -1.1251     Total:     6.2184

*** Psi4 exiting successfully. Buy a developer a beer!
