                               Psi4 1.4a3.dev225

  ==> Input File <==

--------------------------------------------------------------------------
#psi4
#
memory 32 gb

molecule  {
1 1
  O       -1.6123010     0.9094490    -0.1675920
  O       -1.1928110    -1.2795120     0.3034070
  N        1.4156850    -1.0522820    -0.0637630
  C        0.6095860     0.1674070    -0.3957710
  C        1.1650120     1.3928430     0.3122100
  C       -0.8284910    -0.1652490    -0.0350320
  H        0.6656880     0.2905790    -1.4809690
  H        0.9220372    -1.8900657    -0.3337141
  H        1.5920220    -1.1264780     0.9462830
  H        2.3268530    -1.0442670    -0.5383350
  H        1.0907020     1.2862690     1.3970100
  H        0.5903660     2.2672430     0.0071660
  H        2.2096640     1.5504630     0.0359860
  H       -2.5330880     0.6393330     0.0432950
units angstrom
no_reorient  #important for SAPT in psi4, default
symmetry c1  #important for SAPT in psi4, default
}

set PROPERTIES_ORIGIN ["COM"]
properties('MP2/aug-cc-pvtz', properties = ['dipole'])
--------------------------------------------------------------------------

    Molecular point group: c1
  Charge       = 1
  Multiplicity = 1
  Basis Set: AUG-CC-PVTZ
    Blend: AUG-CC-PVTZ
  Basis Set: (AUG-CC-PVTZ AUX)
    Blend: AUG-CC-PVTZ-JKFIT

    Orbital Energies [Eh]
    ---------------------

    Doubly Occupied:

       1A    -20.788326     2A    -20.735713     3A    -15.897838
       4A    -11.577277     5A    -11.509753     6A    -11.415910
       7A     -1.641336     8A     -1.546487     9A     -1.517221
      10A     -1.256146    11A     -1.108326    12A     -1.014325
      13A     -0.980124    14A     -0.969556    15A     -0.887234
      16A     -0.859501    17A     -0.853503    18A     -0.808264
      19A     -0.773181    20A     -0.736640    21A     -0.735183
      22A     -0.716769    23A     -0.657879    24A     -0.638310

  @DF-RHF Final Energy:  -322.35918627548523

   => Energetics <=

    Nuclear Repulsion Energy =            260.4970877701578615
    One-Electron Energy =                -946.4629439157120032
    Two-Electron Energy =                 363.6066698700689699
    Total Energy =                       -322.3591862754852286
  Basis Set: (AUG-CC-PVTZ AUX)
    Blend: AUG-CC-PVTZ-RI
    Molecular point group: c1

    Geometry (in Angstrom), charge = 1, multiplicity = 1:

       Center              X                  Y                   Z               Mass
    ------------   -----------------  -----------------  -----------------  -----------------
         O           -1.537099110932     0.930833380164    -0.166855538321    15.994914619570
         O           -1.117609110932    -1.258127619836     0.304143461679    15.994914619570
         N            1.490886889068    -1.030897619836    -0.063026538321    14.003074004430
         C            0.684787889068     0.188791380164    -0.395034538321    12.000000000000
         C            1.240213889068     1.414227380164     0.312946461679    12.000000000000
         C           -0.753289110932    -0.143864619836    -0.034295538321    12.000000000000
         H            0.740889889068     0.311963380164    -1.480232538321     1.007825032230
         H            0.997239089068    -1.868681319836    -0.332977638321     1.007825032230
         H            1.667223889068    -1.105093619836     0.947019461679     1.007825032230
         H            2.402054889068    -1.022882619836    -0.537598538321     1.007825032230
         H            1.165903889068     1.307653380164     1.397746461679     1.007825032230
         H            0.665567889068     2.288627380164     0.007902461679     1.007825032230
         H            2.284865889068     1.571847380164     0.036722461679     1.007825032230
         H           -2.457886110932     0.660717380164     0.044031461679     1.007825032230

  Basis Set: AUG-CC-PVTZ
    Blend: AUG-CC-PVTZ
  Basis Set: (AUG-CC-PVTZ AUX)
    Blend: AUG-CC-PVTZ-JKFIT
	 Reference Energy          =    -322.3591862754852286 [Eh]
	 Singles Energy            =      -0.0000000000000000 [Eh]
	 Same-Spin Energy          =      -0.3116317139665340 [Eh]
	 Opposite-Spin Energy      =      -0.9975010254029653 [Eh]
	 Correlation Energy        =      -1.3091327393694994 [Eh]
	 Total Energy              =    -323.6683190148547169 [Eh]

	 ================> DF-SCS-MP2 Energies <==================
	-----------------------------------------------------------
	 SCS Same-Spin Scale       =       0.3333333333333333 [-]
	 SCS Opposite-Spin Scale   =       1.2000000000000000 [-]
	 SCS Same-Spin Energy      =      -0.1038772379888447 [Eh]
	 SCS Opposite-Spin Energy  =      -1.1970012304835582 [Eh]
	 SCS Correlation Energy    =      -1.3008784684724028 [Eh]
	 SCS Total Energy          =    -323.6600647439576051 [Eh]
	-----------------------------------------------------------

  Dipole Moment: [D]
     X:     5.6375      Y:    -1.2921      Z:    -0.6502     Total:     5.8201

*** Psi4 exiting successfully. Buy a developer a beer!
