                               Psi4 1.3.2 release

  ==> Input File <==

--------------------------------------------------------------------------
#psi4
#
memory 32 gb

molecule  {
1 1
  O       -1.6624030     0.8291070    -0.2765410
  O       -1.1238540    -1.2691650     0.4354900
  N        1.4044594    -1.0347859    -0.1409277
  C        0.6010380     0.2049760    -0.3963400
  C        1.1187320     1.3933860     0.3994720
  C       -0.8047044    -0.2310597    -0.0179672
  H        0.6501100     0.4122580    -1.4678430
  H        1.1192750    -1.8168460    -0.6997980
  H        1.4281670    -1.2902280     0.8311830
  H        2.4275310    -0.8373030    -0.4139920
  H        1.0757850     1.1947520     1.4730540
  H        0.4939250     2.2572030     0.1746130
  H        2.1464930     1.6243000     0.1133420
  H       -2.5686030     0.5447890    -0.0239170
units angstrom
no_reorient  #important for SAPT in psi4, default
symmetry c1  #important for SAPT in psi4, default
}

set PROPERTIES_ORIGIN ["COM"]
properties('MP2/aug-cc-pvtz', properties = ['dipole'])
--------------------------------------------------------------------------

    Molecular point group: c1
  Charge       = 1
  Multiplicity = 1
  Basis Set: AUG-CC-PVTZ
    Blend: AUG-CC-PVTZ
  Basis Set: (AUG-CC-PVTZ AUX)
    Blend: AUG-CC-PVTZ-JKFIT

    Orbital Energies [Eh]
    ---------------------

    Doubly Occupied:

       1A    -20.771133     2A    -20.743916     3A    -15.901399
       4A    -11.571500     5A    -11.510138     6A    -11.417434
       7A     -1.641622     8A     -1.543134     9A     -1.520728
      10A     -1.255766    11A     -1.107469    12A     -1.006400
      13A     -0.983850    14A     -0.958907    15A     -0.890878
      16A     -0.851414    17A     -0.844815    18A     -0.809379
      19A     -0.772134    20A     -0.738522    21A     -0.737269
      22A     -0.717764    23A     -0.664971    24A     -0.638704

  @DF-RHF Final Energy:  -322.35216310679431

   => Energetics <=

    Nuclear Repulsion Energy =            260.7105934573770583
    One-Electron Energy =                -946.9270187259944578
    Two-Electron Energy =                 363.8642621618230919
    Total Energy =                       -322.3521631067943076
  Basis Set: (AUG-CC-PVTZ AUX)
    Blend: AUG-CC-PVTZ-RI
    Molecular point group: c1

    Geometry (in Angstrom), charge = 1, multiplicity = 1:

       Center              X                  Y                   Z               Mass
    ------------   -----------------  -----------------  -----------------  -----------------
         O           -1.583643490917     0.862597181626    -0.280732523339    15.994914619570
         O           -1.045094490917    -1.235674818374     0.431298476661    15.994914619570
         N            1.483218909083    -1.001295718374    -0.145119223339    14.003074004430
         C            0.679797509083     0.238466181626    -0.400531523339    12.000000000000
         C            1.197491509083     1.426876181626     0.395280476661    12.000000000000
         C           -0.725944890917    -0.197569518374    -0.022158723339    12.000000000000
         H            0.728869509083     0.445748181626    -1.472034523339     1.007825032230
         H            1.198034509083    -1.783355818374    -0.703989523339     1.007825032230
         H            1.506926509083    -1.256737818374     0.826991476661     1.007825032230
         H            2.506290509083    -0.803812818374    -0.418183523339     1.007825032230
         H            1.154544509083     1.228242181626     1.468862476661     1.007825032230
         H            0.572684509083     2.290693181626     0.170421476661     1.007825032230
         H            2.225252509083     1.657790181626     0.109150476661     1.007825032230
         H           -2.489843490917     0.578279181626    -0.028108523339     1.007825032230

  Basis Set: AUG-CC-PVTZ
    Blend: AUG-CC-PVTZ
  Basis Set: (AUG-CC-PVTZ AUX)
    Blend: AUG-CC-PVTZ-JKFIT
	 Reference Energy          =    -322.3521631067943076 [Eh]
	 Singles Energy            =      -0.0000000000000000 [Eh]
	 Same-Spin Energy          =      -0.3111548648060193 [Eh]
	 Opposite-Spin Energy      =      -0.9971344765757368 [Eh]
	 Correlation Energy        =      -1.3082893413817560 [Eh]
	 Total Energy              =    -323.6604524481760450 [Eh]

	 ================> DF-SCS-MP2 Energies <==================
	-----------------------------------------------------------
	 SCS Same-Spin Scale       =       0.3333333333333333 [-]
	 SCS Opposite-Spin Scale   =       1.2000000000000000 [-]
	 SCS Same-Spin Energy      =      -0.1037182882686731 [Eh]
	 SCS Opposite-Spin Energy  =      -1.1965613718908841 [Eh]
	 SCS Correlation Energy    =      -1.3002796601595572 [Eh]
	 SCS Total Energy          =    -323.6524427669538682 [Eh]
	-----------------------------------------------------------

  Dipole Moment: [D]
     X:     5.9325      Y:    -1.5153      Z:    -0.9973     Total:     6.2036

*** Psi4 exiting successfully. Buy a developer a beer!
