                               Psi4 1.4a3.dev225

  ==> Input File <==

--------------------------------------------------------------------------
#psi4
#
memory 32 gb

molecule  {
1 1
  O       -1.6123010     0.9094490    -0.1675920
  O       -1.1928110    -1.2795120     0.3034070
  N        1.4156850    -1.0522820    -0.0637630
  C        0.6364699     0.1267296    -0.3846983
  C        1.1650120     1.3928430     0.3122100
  C       -0.8284910    -0.1652490    -0.0350320
  H        0.6656880     0.2905790    -1.4809690
  H        0.9122540    -1.9066690    -0.3390640
  H        1.5920220    -1.1264780     0.9462830
  H        2.3268530    -1.0442670    -0.5383350
  H        1.0907020     1.2862690     1.3970100
  H        0.5903660     2.2672430     0.0071660
  H        2.2096640     1.5504630     0.0359860
  H       -2.5330880     0.6393330     0.0432950
units angstrom
no_reorient  #important for SAPT in psi4, default
symmetry c1  #important for SAPT in psi4, default
}

set PROPERTIES_ORIGIN ["COM"]
properties('MP2/aug-cc-pvtz', properties = ['dipole'])
--------------------------------------------------------------------------

    Molecular point group: c1
  Charge       = 1
  Multiplicity = 1
  Basis Set: AUG-CC-PVTZ
    Blend: AUG-CC-PVTZ
  Basis Set: (AUG-CC-PVTZ AUX)
    Blend: AUG-CC-PVTZ-JKFIT

    Orbital Energies [Eh]
    ---------------------

    Doubly Occupied:

       1A    -20.788136     2A    -20.733722     3A    -15.904054
       4A    -11.576393     5A    -11.506769     6A    -11.415577
       7A     -1.640047     8A     -1.549264     9A     -1.524748
      10A     -1.248665    11A     -1.105140    12A     -1.018202
      13A     -0.986329    14A     -0.972540    15A     -0.887474
      16A     -0.865472    17A     -0.849270    18A     -0.806054
      19A     -0.770401    20A     -0.737664    21A     -0.728733
      22A     -0.710901    23A     -0.656649    24A     -0.634557

  @DF-RHF Final Energy:  -322.35639779007681

   => Energetics <=

    Nuclear Repulsion Energy =            260.5161179516683774
    One-Electron Energy =                -946.5115052436564156
    Two-Electron Energy =                 363.6389895019111691
    Total Energy =                       -322.3563977900768123
  Basis Set: (AUG-CC-PVTZ AUX)
    Blend: AUG-CC-PVTZ-RI
    Molecular point group: c1

    Geometry (in Angstrom), charge = 1, multiplicity = 1:

       Center              X                  Y                   Z               Mass
    ------------   -----------------  -----------------  -----------------  -----------------
         O           -1.540571936401     0.936439500853    -0.168271116846    15.994914619570
         O           -1.121081936401    -1.252521499147     0.302727883154    15.994914619570
         N            1.487414063599    -1.025291499147    -0.064442116846    14.003074004430
         C            0.708198963599     0.153720100853    -0.385377416846    12.000000000000
         C            1.236741063599     1.419833500853     0.311530883154    12.000000000000
         C           -0.756761936401    -0.138258499147    -0.035711116846    12.000000000000
         H            0.737417063599     0.317569500853    -1.481648116846     1.007825032230
         H            0.983983063599    -1.879678499147    -0.339743116846     1.007825032230
         H            1.663751063599    -1.099487499147     0.945603883154     1.007825032230
         H            2.398582063599    -1.017276499147    -0.539014116846     1.007825032230
         H            1.162431063599     1.313259500853     1.396330883154     1.007825032230
         H            0.662095063599     2.294233500853     0.006486883154     1.007825032230
         H            2.281393063599     1.577453500853     0.035306883154     1.007825032230
         H           -2.461358936401     0.666323500853     0.042615883154     1.007825032230

  Basis Set: AUG-CC-PVTZ
    Blend: AUG-CC-PVTZ
  Basis Set: (AUG-CC-PVTZ AUX)
    Blend: AUG-CC-PVTZ-JKFIT
	 Reference Energy          =    -322.3563977900768123 [Eh]
	 Singles Energy            =      -0.0000000000000000 [Eh]
	 Same-Spin Energy          =      -0.3118665743126116 [Eh]
	 Opposite-Spin Energy      =      -0.9975945655188296 [Eh]
	 Correlation Energy        =      -1.3094611398314413 [Eh]
	 Total Energy              =    -323.6658589299082678 [Eh]

	 ================> DF-SCS-MP2 Energies <==================
	-----------------------------------------------------------
	 SCS Same-Spin Scale       =       0.3333333333333333 [-]
	 SCS Opposite-Spin Scale   =       1.2000000000000000 [-]
	 SCS Same-Spin Energy      =      -0.1039555247708705 [Eh]
	 SCS Opposite-Spin Energy  =      -1.1971134786225954 [Eh]
	 SCS Correlation Energy    =      -1.3010690033934660 [Eh]
	 SCS Total Energy          =    -323.6574667934702916 [Eh]
	-----------------------------------------------------------

  Dipole Moment: [D]
     X:     5.6747      Y:    -1.3945      Z:    -0.6509     Total:     5.8797

*** Psi4 exiting successfully. Buy a developer a beer!
