                               Psi4 1.3.2 release

  ==> Input File <==

--------------------------------------------------------------------------
#psi4
#
memory 32 gb

molecule  {
1 1
  O       -1.6261866     0.8544426    -0.2916211
  O       -1.1238540    -1.2691650     0.4354900
  N        1.4473370    -1.0090820    -0.1563980
  C        0.5832187     0.2526364    -0.4113270
  C        1.1187320     1.3933860     0.3994720
  C       -0.8221020    -0.1825100    -0.0303730
  H        0.6501100     0.4122580    -1.4678430
  H        1.1192750    -1.8168460    -0.6997980
  H        1.4281670    -1.2902280     0.8311830
  H        2.4275310    -0.8373030    -0.4139920
  H        1.0757850     1.1947520     1.4730540
  H        0.4939250     2.2572030     0.1746130
  H        2.1464930     1.6243000     0.1133420
  H       -2.5686030     0.5447890    -0.0239170
units angstrom
no_reorient  #important for SAPT in psi4, default
symmetry c1  #important for SAPT in psi4, default
}

set PROPERTIES_ORIGIN ["COM"]
properties('MP2/aug-cc-pvtz', properties = ['dipole'])
--------------------------------------------------------------------------

    Molecular point group: c1
  Charge       = 1
  Multiplicity = 1
  Basis Set: AUG-CC-PVTZ
    Blend: AUG-CC-PVTZ
  Basis Set: (AUG-CC-PVTZ AUX)
    Blend: AUG-CC-PVTZ-JKFIT

    Orbital Energies [Eh]
    ---------------------

    Doubly Occupied:

       1A    -20.792939     2A    -20.738534     3A    -15.892013
       4A    -11.577538     5A    -11.510167     6A    -11.415348
       7A     -1.637320     8A     -1.542911     9A     -1.502469
      10A     -1.260245    11A     -1.107207    12A     -1.002836
      13A     -0.966837    14A     -0.955790    15A     -0.888558
      16A     -0.858272    17A     -0.840070    18A     -0.813753
      19A     -0.772418    20A     -0.740844    21A     -0.733665
      22A     -0.721299    23A     -0.659412    24A     -0.638800

  @DF-RHF Final Energy:  -322.35091416817670

   => Energetics <=

    Nuclear Repulsion Energy =            260.0640693776248327
    One-Electron Energy =                -945.6914779373944384
    Two-Electron Energy =                 363.2764943915929052
    Total Energy =                       -322.3509141681767005
  Basis Set: (AUG-CC-PVTZ AUX)
    Blend: AUG-CC-PVTZ-RI
    Molecular point group: c1

    Geometry (in Angstrom), charge = 1, multiplicity = 1:

       Center              X                  Y                   Z               Mass
    ------------   -----------------  -----------------  -----------------  -----------------
         O           -1.555834057758     0.866615977010    -0.287078562264    15.994914619570
         O           -1.053501457758    -1.256991622990     0.440032537736    15.994914619570
         N            1.517689542242    -0.996908622990    -0.151855462264    14.003074004430
         C            0.653571242242     0.264809777010    -0.406784462264    12.000000000000
         C            1.189084542242     1.405559377010     0.404014537736    12.000000000000
         C           -0.751749457758    -0.170336622990    -0.025830462264    12.000000000000
         H            0.720462542242     0.424431377010    -1.463300462264     1.007825032230
         H            1.189627542242    -1.804672622990    -0.695255462264     1.007825032230
         H            1.498519542242    -1.278054622990     0.835725537736     1.007825032230
         H            2.497883542242    -0.825129622990    -0.409449462264     1.007825032230
         H            1.146137542242     1.206925377010     1.477596537736     1.007825032230
         H            0.564277542242     2.269376377010     0.179155537736     1.007825032230
         H            2.216845542242     1.636473377010     0.117884537736     1.007825032230
         H           -2.498250457758     0.556962377010    -0.019374462264     1.007825032230

  Basis Set: AUG-CC-PVTZ
    Blend: AUG-CC-PVTZ
  Basis Set: (AUG-CC-PVTZ AUX)
    Blend: AUG-CC-PVTZ-JKFIT
	 Reference Energy          =    -322.3509141681767005 [Eh]
	 Singles Energy            =      -0.0000000000000000 [Eh]
	 Same-Spin Energy          =      -0.3125585501128662 [Eh]
	 Opposite-Spin Energy      =      -1.0000294401926615 [Eh]
	 Correlation Energy        =      -1.3125879903055278 [Eh]
	 Total Energy              =    -323.6635021584822312 [Eh]

	 ================> DF-SCS-MP2 Energies <==================
	-----------------------------------------------------------
	 SCS Same-Spin Scale       =       0.3333333333333333 [-]
	 SCS Opposite-Spin Scale   =       1.2000000000000000 [-]
	 SCS Same-Spin Energy      =      -0.1041861833709554 [Eh]
	 SCS Opposite-Spin Energy  =      -1.2000353282311937 [Eh]
	 SCS Correlation Energy    =      -1.3042215116021492 [Eh]
	 SCS Total Energy          =    -323.6551356797788230 [Eh]
	-----------------------------------------------------------

  Dipole Moment: [D]
     X:     5.4523      Y:    -1.1552      Z:    -1.0505     Total:     5.6714

*** Psi4 exiting successfully. Buy a developer a beer!
