                               Psi4 1.3.2 release

  ==> Input File <==

--------------------------------------------------------------------------
#psi4
#
memory 32 gb

molecule  {
1 1
  O       -1.6624030     0.8291070    -0.2765410
  O       -1.1238540    -1.2691650     0.4354900
  N        1.4473370    -1.0090820    -0.1563980
  C        0.6010380     0.2049760    -0.3963400
  C        1.0846971     1.3152559     0.3471526
  C       -0.8221020    -0.1825100    -0.0303730
  H        0.6501100     0.4122580    -1.4678430
  H        1.1192750    -1.8168460    -0.6997980
  H        1.4281670    -1.2902280     0.8311830
  H        2.4275310    -0.8373030    -0.4139920
  H        1.0757850     1.1947520     1.4730540
  H        0.4939250     2.2572030     0.1746130
  H        2.1464930     1.6243000     0.1133420
  H       -2.5686030     0.5447890    -0.0239170
units angstrom
no_reorient  #important for SAPT in psi4, default
symmetry c1  #important for SAPT in psi4, default
}

set PROPERTIES_ORIGIN ["COM"]
properties('MP2/aug-cc-pvtz', properties = ['dipole'])
--------------------------------------------------------------------------

    Molecular point group: c1
  Charge       = 1
  Multiplicity = 1
  Basis Set: AUG-CC-PVTZ
    Blend: AUG-CC-PVTZ
  Basis Set: (AUG-CC-PVTZ AUX)
    Blend: AUG-CC-PVTZ-JKFIT

    Orbital Energies [Eh]
    ---------------------

    Doubly Occupied:

       1A    -20.787573     2A    -20.735511     3A    -15.900223
       4A    -11.576969     5A    -11.507247     6A    -11.417939
       7A     -1.640201     8A     -1.545369     9A     -1.517711
      10A     -1.274763    11A     -1.102586    12A     -1.013802
      13A     -0.980656    14A     -0.965550    15A     -0.889031
      16A     -0.862304    17A     -0.852004    18A     -0.820732
      19A     -0.772509    20A     -0.754982    21A     -0.717369
      22A     -0.698526    23A     -0.657544    24A     -0.634309

  @DF-RHF Final Energy:  -322.34726305415620

   => Energetics <=

    Nuclear Repulsion Energy =            261.9140258593997146
    One-Electron Energy =                -949.2717574479778477
    Two-Electron Energy =                 365.0104685344219888
    Total Energy =                       -322.3472630541562012
  Basis Set: (AUG-CC-PVTZ AUX)
    Blend: AUG-CC-PVTZ-RI
    Molecular point group: c1

    Geometry (in Angstrom), charge = 1, multiplicity = 1:

       Center              X                  Y                   Z               Mass
    ------------   -----------------  -----------------  -----------------  -----------------
         O           -1.583457252504     0.862542006609    -0.269702279576    15.994914619570
         O           -1.044908252504    -1.235729993391     0.442328720424    15.994914619570
         N            1.526282747496    -0.975646993391    -0.149559279576    14.003074004430
         C            0.679983747496     0.238411006609    -0.389501279576    12.000000000000
         C            1.163642847496     1.348690906609     0.353991320424    12.000000000000
         C           -0.743156252504    -0.149074993391    -0.023534279576    12.000000000000
         H            0.729055747496     0.445693006609    -1.461004279576     1.007825032230
         H            1.198220747496    -1.783410993391    -0.692959279576     1.007825032230
         H            1.507112747496    -1.256792993391     0.838021720424     1.007825032230
         H            2.506476747496    -0.803867993391    -0.407153279576     1.007825032230
         H            1.154730747496     1.228187006609     1.479892720424     1.007825032230
         H            0.572870747496     2.290638006609     0.181451720424     1.007825032230
         H            2.225438747496     1.657735006609     0.120180720424     1.007825032230
         H           -2.489657252504     0.578224006609    -0.017078279576     1.007825032230

  Basis Set: AUG-CC-PVTZ
    Blend: AUG-CC-PVTZ
  Basis Set: (AUG-CC-PVTZ AUX)
    Blend: AUG-CC-PVTZ-JKFIT
	 Reference Energy          =    -322.3472630541562012 [Eh]
	 Singles Energy            =      -0.0000000000000000 [Eh]
	 Same-Spin Energy          =      -0.3128629553207676 [Eh]
	 Opposite-Spin Energy      =      -0.9990716368751422 [Eh]
	 Correlation Energy        =      -1.3119345921959098 [Eh]
	 Total Energy              =    -323.6591976463520837 [Eh]

	 ================> DF-SCS-MP2 Energies <==================
	-----------------------------------------------------------
	 SCS Same-Spin Scale       =       0.3333333333333333 [-]
	 SCS Opposite-Spin Scale   =       1.2000000000000000 [-]
	 SCS Same-Spin Energy      =      -0.1042876517735892 [Eh]
	 SCS Opposite-Spin Energy  =      -1.1988859642501706 [Eh]
	 SCS Correlation Energy    =      -1.3031736160237597 [Eh]
	 SCS Total Energy          =    -323.6504366701799427 [Eh]
	-----------------------------------------------------------

  Dipole Moment: [D]
     X:     5.6573      Y:    -1.1357      Z:    -1.0600     Total:     5.8667

*** Psi4 exiting successfully. Buy a developer a beer!
