                               Psi4 1.3.2 release

  ==> Input File <==

--------------------------------------------------------------------------
#psi4
#
memory 32 gb

molecule  {
1 1
  O       -1.6624030     0.8291070    -0.2765410
  O       -1.1238540    -1.2691650     0.4354900
  N        1.4473370    -1.0090820    -0.1563980
  C        0.5936118     0.1980915    -0.4046242
  C        1.1187320     1.3933860     0.3994720
  C       -0.8221020    -0.1825100    -0.0303730
  H        0.6501100     0.4122580    -1.4678430
  H        1.1126895    -1.8118182    -0.7032221
  H        1.4281670    -1.2902280     0.8311830
  H        2.4275310    -0.8373030    -0.4139920
  H        1.0757850     1.1947520     1.4730540
  H        0.4939250     2.2572030     0.1746130
  H        2.1464930     1.6243000     0.1133420
  H       -2.5686030     0.5447890    -0.0239170
units angstrom
no_reorient  #important for SAPT in psi4, default
symmetry c1  #important for SAPT in psi4, default
}

set PROPERTIES_ORIGIN ["COM"]
properties('MP2/aug-cc-pvtz', properties = ['dipole'])
--------------------------------------------------------------------------

    Molecular point group: c1
  Charge       = 1
  Multiplicity = 1
  Basis Set: AUG-CC-PVTZ
    Blend: AUG-CC-PVTZ
  Basis Set: (AUG-CC-PVTZ AUX)
    Blend: AUG-CC-PVTZ-JKFIT

    Orbital Energies [Eh]
    ---------------------

    Doubly Occupied:

       1A    -20.786958     2A    -20.734450     3A    -15.900496
       4A    -11.576021     5A    -11.508757     6A    -11.417193
       7A     -1.639424     8A     -1.544464     9A     -1.515397
      10A     -1.254683    11A     -1.108085    12A     -1.013229
      13A     -0.979461    14A     -0.965691    15A     -0.887317
      16A     -0.860792    17A     -0.848906    18A     -0.811116
      19A     -0.771721    20A     -0.735784    21A     -0.731903
      22A     -0.717752    23A     -0.656530    24A     -0.637412

  @DF-RHF Final Energy:  -322.35894152875295

   => Energetics <=

    Nuclear Repulsion Energy =            260.2800598261284222
    One-Electron Energy =                -946.0709208661345428
    Two-Electron Energy =                 363.4319195112531702
    Total Energy =                       -322.3589415287529505
  Basis Set: (AUG-CC-PVTZ AUX)
    Blend: AUG-CC-PVTZ-RI
    Molecular point group: c1

    Geometry (in Angstrom), charge = 1, multiplicity = 1:

       Center              X                  Y                   Z               Mass
    ------------   -----------------  -----------------  -----------------  -----------------
         O           -1.586929193208     0.852992181121    -0.275531701276    15.994914619570
         O           -1.048380193208    -1.245279818879     0.436499298724    15.994914619570
         N            1.522810806792    -0.985196818879    -0.155388701276    14.003074004430
         C            0.669085606792     0.221976681121    -0.403614901276    12.000000000000
         C            1.194205806792     1.417271181121     0.400481298724    12.000000000000
         C           -0.746628193208    -0.158624818879    -0.029363701276    12.000000000000
         H            0.725583806792     0.436143181121    -1.466833701276     1.007825032230
         H            1.188163306792    -1.787933018879    -0.702212801276     1.007825032230
         H            1.503640806792    -1.266342818879     0.832192298724     1.007825032230
         H            2.503004806792    -0.813417818879    -0.412982701276     1.007825032230
         H            1.151258806792     1.218637181121     1.474063298724     1.007825032230
         H            0.569398806792     2.281088181121     0.175622298724     1.007825032230
         H            2.221966806792     1.648185181121     0.114351298724     1.007825032230
         H           -2.493129193208     0.568674181121    -0.022907701276     1.007825032230

  Basis Set: AUG-CC-PVTZ
    Blend: AUG-CC-PVTZ
  Basis Set: (AUG-CC-PVTZ AUX)
    Blend: AUG-CC-PVTZ-JKFIT
	 Reference Energy          =    -322.3589415287529505 [Eh]
	 Singles Energy            =      -0.0000000000000000 [Eh]
	 Same-Spin Energy          =      -0.3115327135610939 [Eh]
	 Opposite-Spin Energy      =      -0.9975793247943935 [Eh]
	 Correlation Energy        =      -1.3091120383554875 [Eh]
	 Total Energy              =    -323.6680535671084158 [Eh]

	 ================> DF-SCS-MP2 Energies <==================
	-----------------------------------------------------------
	 SCS Same-Spin Scale       =       0.3333333333333333 [-]
	 SCS Opposite-Spin Scale   =       1.2000000000000000 [-]
	 SCS Same-Spin Energy      =      -0.1038442378536980 [Eh]
	 SCS Opposite-Spin Energy  =      -1.1970951897532722 [Eh]
	 SCS Correlation Energy    =      -1.3009394276069701 [Eh]
	 SCS Total Energy          =    -323.6598809563599275 [Eh]
	-----------------------------------------------------------

  Dipole Moment: [D]
     X:     5.6838      Y:    -1.2143      Z:    -1.0941     Total:     5.9141

*** Psi4 exiting successfully. Buy a developer a beer!
