                               Psi4 1.3.2 release

  ==> Input File <==

--------------------------------------------------------------------------
#psi4
#
memory 32 gb

molecule  {
1 1
  O       -1.6624030     0.8291070    -0.2765410
  O       -1.1238540    -1.2691650     0.4354900
  N        1.4473370    -1.0090820    -0.1563980
  C        0.6010380     0.2049760    -0.3963400
  C        1.1187320     1.3933860     0.3994720
  C       -0.8358793    -0.1763007    -0.0812187
  H        0.6128950     0.4043461    -1.4703994
  H        1.1192750    -1.8168460    -0.6997980
  H        1.4281670    -1.2902280     0.8311830
  H        2.4275310    -0.8373030    -0.4139920
  H        1.0757850     1.1947520     1.4730540
  H        0.4939250     2.2572030     0.1746130
  H        2.1464930     1.6243000     0.1133420
  H       -2.5686030     0.5447890    -0.0239170
units angstrom
no_reorient  #important for SAPT in psi4, default
symmetry c1  #important for SAPT in psi4, default
}

set PROPERTIES_ORIGIN ["COM"]
properties('MP2/aug-cc-pvtz', properties = ['dipole'])
--------------------------------------------------------------------------

    Molecular point group: c1
  Charge       = 1
  Multiplicity = 1
  Basis Set: AUG-CC-PVTZ
    Blend: AUG-CC-PVTZ
  Basis Set: (AUG-CC-PVTZ AUX)
    Blend: AUG-CC-PVTZ-JKFIT

    Orbital Energies [Eh]
    ---------------------

    Doubly Occupied:

       1A    -20.793300     2A    -20.729121     3A    -15.900426
       4A    -11.577226     5A    -11.509363     6A    -11.417089
       7A     -1.644836     8A     -1.538606     9A     -1.510708
      10A     -1.255927    11A     -1.110356    12A     -1.016028
      13A     -0.979457    14A     -0.965392    15A     -0.887345
      16A     -0.861098    17A     -0.849138    18A     -0.813317
      19A     -0.769291    20A     -0.736951    21A     -0.733699
      22A     -0.715553    23A     -0.649574    24A     -0.633040

  @DF-RHF Final Energy:  -322.35521793921640

   => Energetics <=

    Nuclear Repulsion Energy =            260.1247242071693222
    One-Electron Energy =                -945.7662024747711484
    Two-Electron Energy =                 363.2862603283853673
    Total Energy =                       -322.3552179392164021
  Basis Set: (AUG-CC-PVTZ AUX)
    Blend: AUG-CC-PVTZ-RI
    Molecular point group: c1

    Geometry (in Angstrom), charge = 1, multiplicity = 1:

       Center              X                  Y                   Z               Mass
    ------------   -----------------  -----------------  -----------------  -----------------
         O           -1.585740122328     0.851392227305    -0.269870042739    15.994914619570
         O           -1.047191122328    -1.246879772695     0.442160957261    15.994914619570
         N            1.523999877672    -0.986796772695    -0.149727042739    14.003074004430
         C            0.677700877672     0.227261227305    -0.389669042739    12.000000000000
         C            1.195394877672     1.415671227305     0.406142957261    12.000000000000
         C           -0.759216422328    -0.154015472695    -0.074547742739    12.000000000000
         H            0.689557877672     0.426631327305    -1.463728442739     1.007825032230
         H            1.195937877672    -1.794560772695    -0.693127042739     1.007825032230
         H            1.504829877672    -1.267942772695     0.837853957261     1.007825032230
         H            2.504193877672    -0.815017772695    -0.407321042739     1.007825032230
         H            1.152447877672     1.217037227305     1.479724957261     1.007825032230
         H            0.570587877672     2.279488227305     0.181283957261     1.007825032230
         H            2.223155877672     1.646585227305     0.120012957261     1.007825032230
         H           -2.491940122328     0.567074227305    -0.017246042739     1.007825032230

  Basis Set: AUG-CC-PVTZ
    Blend: AUG-CC-PVTZ
  Basis Set: (AUG-CC-PVTZ AUX)
    Blend: AUG-CC-PVTZ-JKFIT
	 Reference Energy          =    -322.3552179392164021 [Eh]
	 Singles Energy            =      -0.0000000000000000 [Eh]
	 Same-Spin Energy          =      -0.3120077755610324 [Eh]
	 Opposite-Spin Energy      =      -0.9982774110717754 [Eh]
	 Correlation Energy        =      -1.3102851866328078 [Eh]
	 Total Energy              =    -323.6655031258492272 [Eh]

	 ================> DF-SCS-MP2 Energies <==================
	-----------------------------------------------------------
	 SCS Same-Spin Scale       =       0.3333333333333333 [-]
	 SCS Opposite-Spin Scale   =       1.2000000000000000 [-]
	 SCS Same-Spin Energy      =      -0.1040025918536775 [Eh]
	 SCS Opposite-Spin Energy  =      -1.1979328932861304 [Eh]
	 SCS Correlation Energy    =      -1.3019354851398079 [Eh]
	 SCS Total Energy          =    -323.6571534243562382 [Eh]
	-----------------------------------------------------------

  Dipole Moment: [D]
     X:     5.6002      Y:    -1.0701      Z:    -1.1514     Total:     5.8167

*** Psi4 exiting successfully. Buy a developer a beer!
