                               Psi4 1.4a3.dev225

  ==> Input File <==

--------------------------------------------------------------------------
#psi4
#
memory 32 gb

molecule  {
1 1
  O       -1.6123010     0.9094490    -0.1675920
  O       -1.1928110    -1.2795120     0.3034070
  N        1.4156850    -1.0522820    -0.0637630
  C        0.6095860     0.1674070    -0.3957710
  C        1.1650120     1.3928430     0.3122100
  C       -0.8758120    -0.1761953    -0.0231616
  H        0.6656880     0.2905790    -1.4809690
  H        0.9122540    -1.9066690    -0.3390640
  H        1.5920220    -1.1264780     0.9462830
  H        2.3268530    -1.0442670    -0.5383350
  H        1.0907020     1.2862690     1.3970100
  H        0.5903660     2.2672430     0.0071660
  H        2.2096640     1.5504630     0.0359860
  H       -2.5330880     0.6393330     0.0432950
units angstrom
no_reorient  #important for SAPT in psi4, default
symmetry c1  #important for SAPT in psi4, default
}

set PROPERTIES_ORIGIN ["COM"]
properties('MP2/aug-cc-pvtz', properties = ['dipole'])
--------------------------------------------------------------------------

    Molecular point group: c1
  Charge       = 1
  Multiplicity = 1
  Basis Set: AUG-CC-PVTZ
    Blend: AUG-CC-PVTZ
  Basis Set: (AUG-CC-PVTZ AUX)
    Blend: AUG-CC-PVTZ-JKFIT

    Orbital Energies [Eh]
    ---------------------

    Doubly Occupied:

       1A    -20.793123     2A    -20.737495     3A    -15.895422
       4A    -11.575046     5A    -11.504628     6A    -11.411840
       7A     -1.654195     8A     -1.561582     9A     -1.513285
      10A     -1.244605    11A     -1.098603    12A     -1.012821
      13A     -0.976255    14A     -0.960905    15A     -0.892470
      16A     -0.861093    17A     -0.851909    18A     -0.813714
      19A     -0.774193    20A     -0.737665    21A     -0.731942
      22A     -0.713977    23A     -0.667400    24A     -0.633263

  @DF-RHF Final Energy:  -322.35983183558886

   => Energetics <=

    Nuclear Repulsion Energy =            260.3628793030571273
    One-Electron Energy =                -946.2105578195852331
    Two-Electron Energy =                 363.4878466809391853
    Total Energy =                       -322.3598318355888637
  Basis Set: (AUG-CC-PVTZ AUX)
    Blend: AUG-CC-PVTZ-RI
    Molecular point group: c1

    Geometry (in Angstrom), charge = 1, multiplicity = 1:

       Center              X                  Y                   Z               Mass
    ------------   -----------------  -----------------  -----------------  -----------------
         O           -1.530684047650     0.932477797391    -0.168377411294    15.994914619570
         O           -1.111194047650    -1.256483202609     0.302621588706    15.994914619570
         N            1.497301952350    -1.029253202609    -0.064548411294    14.003074004430
         C            0.691202952350     0.190435797391    -0.396556411294    12.000000000000
         C            1.246628952350     1.415871797391     0.311424588706    12.000000000000
         C           -0.794195047650    -0.153166502609    -0.023947011294    12.000000000000
         H            0.747304952350     0.313607797391    -1.481754411294     1.007825032230
         H            0.993870952350    -1.883640202609    -0.339849411294     1.007825032230
         H            1.673638952350    -1.103449202609     0.945497588706     1.007825032230
         H            2.408469952350    -1.021238202609    -0.539120411294     1.007825032230
         H            1.172318952350     1.309297797391     1.396224588706     1.007825032230
         H            0.671982952350     2.290271797391     0.006380588706     1.007825032230
         H            2.291280952350     1.573491797391     0.035200588706     1.007825032230
         H           -2.451471047650     0.662361797391     0.042509588706     1.007825032230

  Basis Set: AUG-CC-PVTZ
    Blend: AUG-CC-PVTZ
  Basis Set: (AUG-CC-PVTZ AUX)
    Blend: AUG-CC-PVTZ-JKFIT
	 Reference Energy          =    -322.3598318355888637 [Eh]
	 Singles Energy            =      -0.0000000000000000 [Eh]
	 Same-Spin Energy          =      -0.3109946073493433 [Eh]
	 Opposite-Spin Energy      =      -0.9962270125934877 [Eh]
	 Correlation Energy        =      -1.3072216199428310 [Eh]
	 Total Energy              =    -323.6670534555316863 [Eh]

	 ================> DF-SCS-MP2 Energies <==================
	-----------------------------------------------------------
	 SCS Same-Spin Scale       =       0.3333333333333333 [-]
	 SCS Opposite-Spin Scale   =       1.2000000000000000 [-]
	 SCS Same-Spin Energy      =      -0.1036648691164478 [Eh]
	 SCS Opposite-Spin Energy  =      -1.1954724151121852 [Eh]
	 SCS Correlation Energy    =      -1.2991372842286328 [Eh]
	 SCS Total Energy          =    -323.6589691198174705 [Eh]
	-----------------------------------------------------------

  Dipole Moment: [D]
     X:     5.3604      Y:    -1.3662      Z:    -0.6159     Total:     5.5659

*** Psi4 exiting successfully. Buy a developer a beer!
