                               Psi4 1.3.2 release

  ==> Input File <==

--------------------------------------------------------------------------
#psi4
#
memory 32 gb

molecule  {
1 1
  O       -1.6624030     0.8291070    -0.2765410
  O       -1.1238540    -1.2691650     0.4354900
  N        1.4473370    -1.0090820    -0.1563980
  C        0.6057060     0.2182957    -0.4188245
  C        1.1187320     1.3933860     0.3994720
  C       -0.8221020    -0.1825100    -0.0303730
  H        0.6501100     0.4122580    -1.4678430
  H        1.1192750    -1.8168460    -0.6997980
  H        1.4281670    -1.2902280     0.8311830
  H        2.4275310    -0.8373030    -0.4139920
  H        1.0830323     1.2120749     1.4763796
  H        0.4939250     2.2572030     0.1746130
  H        2.1464930     1.6243000     0.1133420
  H       -2.5686030     0.5447890    -0.0239170
units angstrom
no_reorient  #important for SAPT in psi4, default
symmetry c1  #important for SAPT in psi4, default
}

set PROPERTIES_ORIGIN ["COM"]
properties('MP2/aug-cc-pvtz', properties = ['dipole'])
--------------------------------------------------------------------------

    Molecular point group: c1
  Charge       = 1
  Multiplicity = 1
  Basis Set: AUG-CC-PVTZ
    Blend: AUG-CC-PVTZ
  Basis Set: (AUG-CC-PVTZ AUX)
    Blend: AUG-CC-PVTZ-JKFIT

    Orbital Energies [Eh]
    ---------------------

    Doubly Occupied:

       1A    -20.786807     2A    -20.734988     3A    -15.898878
       4A    -11.576753     5A    -11.509734     6A    -11.416321
       7A     -1.638877     8A     -1.543454     9A     -1.512737
      10A     -1.255750    11A     -1.106377    12A     -1.013142
      13A     -0.976748    14A     -0.963531    15A     -0.887724
      16A     -0.857281    17A     -0.850806    18A     -0.811215
      19A     -0.771117    20A     -0.736564    21A     -0.733507
      22A     -0.720931    23A     -0.656761    24A     -0.636003

  @DF-RHF Final Energy:  -322.35830665058631

   => Energetics <=

    Nuclear Repulsion Energy =            259.9528756347751255
    One-Electron Energy =                -945.4303490686189662
    Two-Electron Energy =                 363.1191667832575831
    Total Energy =                       -322.3583066505863144
  Basis Set: (AUG-CC-PVTZ AUX)
    Blend: AUG-CC-PVTZ-RI
    Molecular point group: c1

    Geometry (in Angstrom), charge = 1, multiplicity = 1:

       Center              X                  Y                   Z               Mass
    ------------   -----------------  -----------------  -----------------  -----------------
         O           -1.588695564345     0.850162351742    -0.273715031811    15.994914619570
         O           -1.050146564345    -1.248109648258     0.438315968189    15.994914619570
         N            1.521044435655    -0.988026648258    -0.153572031811    14.003074004430
         C            0.679413435655     0.239351051742    -0.415998531811    12.000000000000
         C            1.192439435655     1.414441351742     0.402297968189    12.000000000000
         C           -0.748394564345    -0.161454648258    -0.027547031811    12.000000000000
         H            0.723817435655     0.433313351742    -1.465017031811     1.007825032230
         H            1.192982435655    -1.795790648258    -0.696972031811     1.007825032230
         H            1.501874435655    -1.269172648258     0.834008968189     1.007825032230
         H            2.501238435655    -0.816247648258    -0.411166031811     1.007825032230
         H            1.156739735655     1.233130251742     1.479205568189     1.007825032230
         H            0.567632435655     2.278258351742     0.177438968189     1.007825032230
         H            2.220200435655     1.645355351742     0.116167968189     1.007825032230
         H           -2.494895564345     0.565844351742    -0.021091031811     1.007825032230

  Basis Set: AUG-CC-PVTZ
    Blend: AUG-CC-PVTZ
  Basis Set: (AUG-CC-PVTZ AUX)
    Blend: AUG-CC-PVTZ-JKFIT
	 Reference Energy          =    -322.3583066505863144 [Eh]
	 Singles Energy            =      -0.0000000000000000 [Eh]
	 Same-Spin Energy          =      -0.3114955057130128 [Eh]
	 Opposite-Spin Energy      =      -0.9976255403461257 [Eh]
	 Correlation Energy        =      -1.3091210460591385 [Eh]
	 Total Energy              =    -323.6674276966454613 [Eh]

	 ================> DF-SCS-MP2 Energies <==================
	-----------------------------------------------------------
	 SCS Same-Spin Scale       =       0.3333333333333333 [-]
	 SCS Opposite-Spin Scale   =       1.2000000000000000 [-]
	 SCS Same-Spin Energy      =      -0.1038318352376709 [Eh]
	 SCS Opposite-Spin Energy  =      -1.1971506484153509 [Eh]
	 SCS Correlation Energy    =      -1.3009824836530219 [Eh]
	 SCS Total Energy          =    -323.6592891342393159 [Eh]
	-----------------------------------------------------------

  Dipole Moment: [D]
     X:     5.6508      Y:    -1.2057      Z:    -1.0791     Total:     5.8779

*** Psi4 exiting successfully. Buy a developer a beer!
