                               Psi4 1.3.2 release

  ==> Input File <==

--------------------------------------------------------------------------
#psi4
#
memory 32 gb

molecule  {
1 1
  O       -1.6624030     0.8291070    -0.2765410
  O       -1.1340512    -1.2661214     0.4358627
  N        1.4473370    -1.0090820    -0.1563980
  C        0.5967210     0.2168786    -0.4002849
  C        1.1187320     1.3933860     0.3994720
  C       -0.8221020    -0.1825100    -0.0303730
  H        0.6501100     0.4122580    -1.4678430
  H        1.1192750    -1.8168460    -0.6997980
  H        1.4281670    -1.2902280     0.8311830
  H        2.4275310    -0.8373030    -0.4139920
  H        1.0757850     1.1947520     1.4730540
  H        0.4939250     2.2572030     0.1746130
  H        2.1464930     1.6243000     0.1133420
  H       -2.5686030     0.5447890    -0.0239170
units angstrom
no_reorient  #important for SAPT in psi4, default
symmetry c1  #important for SAPT in psi4, default
}

set PROPERTIES_ORIGIN ["COM"]
properties('MP2/aug-cc-pvtz', properties = ['dipole'])
--------------------------------------------------------------------------

    Molecular point group: c1
  Charge       = 1
  Multiplicity = 1
  Basis Set: AUG-CC-PVTZ
    Blend: AUG-CC-PVTZ
  Basis Set: (AUG-CC-PVTZ AUX)
    Blend: AUG-CC-PVTZ-JKFIT

    Orbital Energies [Eh]
    ---------------------

    Doubly Occupied:

       1A    -20.786069     2A    -20.734732     3A    -15.899285
       4A    -11.576215     5A    -11.510598     6A    -11.416714
       7A     -1.639245     8A     -1.542874     9A     -1.513035
      10A     -1.257929    11A     -1.108339    12A     -1.011716
      13A     -0.977496    14A     -0.963893    15A     -0.886788
      16A     -0.859067    17A     -0.847806    18A     -0.811985
      19A     -0.772196    20A     -0.736852    21A     -0.735100
      22A     -0.718671    23A     -0.656239    24A     -0.637179

  @DF-RHF Final Energy:  -322.35870563177599

   => Energetics <=

    Nuclear Repulsion Energy =            260.1425944602385698
    One-Electron Energy =                -945.8025562852602661
    Two-Electron Energy =                 363.3012561932457061
    Total Energy =                       -322.3587056317759902
  Basis Set: (AUG-CC-PVTZ AUX)
    Blend: AUG-CC-PVTZ-RI
    Molecular point group: c1

    Geometry (in Angstrom), charge = 1, multiplicity = 1:

       Center              X                  Y                   Z               Mass
    ------------   -----------------  -----------------  -----------------  -----------------
         O           -1.585606054622     0.850004466112    -0.276214433547    15.994914619570
         O           -1.057254254622    -1.245223933888     0.436189266453    15.994914619570
         N            1.524133945378    -0.988184533888    -0.156071433547    14.003074004430
         C            0.673517945378     0.237776066112    -0.399958333547    12.000000000000
         C            1.195528945378     1.414283466112     0.399798566453    12.000000000000
         C           -0.745305054622    -0.161612533888    -0.030046433547    12.000000000000
         H            0.726906945378     0.433155466112    -1.467516433547     1.007825032230
         H            1.196071945378    -1.795948533888    -0.699471433547     1.007825032230
         H            1.504963945378    -1.269330533888     0.831509566453     1.007825032230
         H            2.504327945378    -0.816405533888    -0.413665433547     1.007825032230
         H            1.152581945378     1.215649466112     1.473380566453     1.007825032230
         H            0.570721945378     2.278100466112     0.174939566453     1.007825032230
         H            2.223289945378     1.645197466112     0.113668566453     1.007825032230
         H           -2.491806054622     0.565686466112    -0.023590433547     1.007825032230

  Basis Set: AUG-CC-PVTZ
    Blend: AUG-CC-PVTZ
  Basis Set: (AUG-CC-PVTZ AUX)
    Blend: AUG-CC-PVTZ-JKFIT
	 Reference Energy          =    -322.3587056317759902 [Eh]
	 Singles Energy            =      -0.0000000000000000 [Eh]
	 Same-Spin Energy          =      -0.3115755085386671 [Eh]
	 Opposite-Spin Energy      =      -0.9976971184727534 [Eh]
	 Correlation Energy        =      -1.3092726270114206 [Eh]
	 Total Energy              =    -323.6679782587874001 [Eh]

	 ================> DF-SCS-MP2 Energies <==================
	-----------------------------------------------------------
	 SCS Same-Spin Scale       =       0.3333333333333333 [-]
	 SCS Opposite-Spin Scale   =       1.2000000000000000 [-]
	 SCS Same-Spin Energy      =      -0.1038585028462224 [Eh]
	 SCS Opposite-Spin Energy  =      -1.1972365421673041 [Eh]
	 SCS Correlation Energy    =      -1.3010950450135266 [Eh]
	 SCS Total Energy          =    -323.6598006767895299 [Eh]
	-----------------------------------------------------------

  Dipole Moment: [D]
     X:     5.7032      Y:    -1.2051      Z:    -1.0871     Total:     5.9297

*** Psi4 exiting successfully. Buy a developer a beer!
