                               Psi4 1.3.2 release

  ==> Input File <==

--------------------------------------------------------------------------
#psi4
#
memory 32 gb

molecule  {
1 1
  O       -1.6624030     0.8291070    -0.2765410
  O       -1.1238540    -1.2691650     0.4354900
  N        1.4473370    -1.0090820    -0.1563980
  C        0.5445896     0.2859540    -0.4123442
  C        1.1187320     1.3933860     0.3994720
  C       -0.8221020    -0.1825100    -0.0303730
  H        0.6501100     0.4122580    -1.4678430
  H        1.1192750    -1.8168460    -0.6997980
  H        1.4281670    -1.2902280     0.8311830
  H        2.4275310    -0.8373030    -0.4139920
  H        1.0757850     1.1947520     1.4730540
  H        0.4939250     2.2572030     0.1746130
  H        2.1464930     1.6243000     0.1133420
  H       -2.5686030     0.5447890    -0.0239170
units angstrom
no_reorient  #important for SAPT in psi4, default
symmetry c1  #important for SAPT in psi4, default
}

set PROPERTIES_ORIGIN ["COM"]
properties('MP2/aug-cc-pvtz', properties = ['dipole'])
--------------------------------------------------------------------------

    Molecular point group: c1
  Charge       = 1
  Multiplicity = 1
  Basis Set: AUG-CC-PVTZ
    Blend: AUG-CC-PVTZ
  Basis Set: (AUG-CC-PVTZ AUX)
    Blend: AUG-CC-PVTZ-JKFIT

    Orbital Energies [Eh]
    ---------------------

    Doubly Occupied:

       1A    -20.788106     2A    -20.738898     3A    -15.886073
       4A    -11.578719     5A    -11.516723     6A    -11.417903
       7A     -1.642663     8A     -1.543954     9A     -1.491651
      10A     -1.268810    11A     -1.115506    12A     -1.006851
      13A     -0.965015    14A     -0.948502    15A     -0.888592
      16A     -0.863806    17A     -0.835618    18A     -0.817441
      19A     -0.776330    20A     -0.747890    21A     -0.732285
      22A     -0.722777    23A     -0.659194    24A     -0.643406

  @DF-RHF Final Energy:  -322.35110595875057

   => Energetics <=

    Nuclear Repulsion Energy =            260.0680994056902477
    One-Electron Energy =                -945.6449877540337638
    Two-Electron Energy =                 363.2257823895930073
    Total Energy =                       -322.3511059587505656
  Basis Set: (AUG-CC-PVTZ AUX)
    Blend: AUG-CC-PVTZ-RI
    Molecular point group: c1

    Geometry (in Angstrom), charge = 1, multiplicity = 1:

       Center              X                  Y                   Z               Mass
    ------------   -----------------  -----------------  -----------------  -----------------
         O           -1.580470627705     0.841340668259    -0.274541321979    15.994914619570
         O           -1.041921627705    -1.256931331741     0.437489678021    15.994914619570
         N            1.529269372295    -0.996848331741    -0.154398321979    14.003074004430
         C            0.626521972295     0.298187668259    -0.410344521979    12.000000000000
         C            1.200664372295     1.405619668259     0.401471678021    12.000000000000
         C           -0.740169627705    -0.170276331741    -0.028373321979    12.000000000000
         H            0.732042372295     0.424491668259    -1.465843321979     1.007825032230
         H            1.201207372295    -1.804612331741    -0.697798321979     1.007825032230
         H            1.510099372295    -1.277994331741     0.833182678021     1.007825032230
         H            2.509463372295    -0.825069331741    -0.411992321979     1.007825032230
         H            1.157717372295     1.206985668259     1.475053678021     1.007825032230
         H            0.575857372295     2.269436668259     0.176612678021     1.007825032230
         H            2.228425372295     1.636533668259     0.115341678021     1.007825032230
         H           -2.486670627705     0.557022668259    -0.021917321979     1.007825032230

  Basis Set: AUG-CC-PVTZ
    Blend: AUG-CC-PVTZ
  Basis Set: (AUG-CC-PVTZ AUX)
    Blend: AUG-CC-PVTZ-JKFIT
	 Reference Energy          =    -322.3511059587505656 [Eh]
	 Singles Energy            =      -0.0000000000000000 [Eh]
	 Same-Spin Energy          =      -0.3118404252817784 [Eh]
	 Opposite-Spin Energy      =      -0.9987892073552440 [Eh]
	 Correlation Energy        =      -1.3106296326370224 [Eh]
	 Total Energy              =    -323.6617355913875826 [Eh]

	 ================> DF-SCS-MP2 Energies <==================
	-----------------------------------------------------------
	 SCS Same-Spin Scale       =       0.3333333333333333 [-]
	 SCS Opposite-Spin Scale   =       1.2000000000000000 [-]
	 SCS Same-Spin Energy      =      -0.1039468084272595 [Eh]
	 SCS Opposite-Spin Energy  =      -1.1985470488262928 [Eh]
	 SCS Correlation Energy    =      -1.3024938572535523 [Eh]
	 SCS Total Energy          =    -323.6535998160041459 [Eh]
	-----------------------------------------------------------

  Dipole Moment: [D]
     X:     5.5233      Y:    -1.0063      Z:    -1.0767     Total:     5.7166

*** Psi4 exiting successfully. Buy a developer a beer!
