                               Psi4 1.3.2 release

  ==> Input File <==

--------------------------------------------------------------------------
#psi4
#
memory 32 gb

molecule  {
1 1
  O       -1.6624030     0.8291070    -0.2765410
  O       -1.1238540    -1.2691650     0.4354900
  N        1.4473370    -1.0090820    -0.1563980
  C        0.6010380     0.2049760    -0.3963400
  C        1.1187320     1.3933860     0.3994720
  C       -0.8468316    -0.2715651     0.0078061
  H        0.6501100     0.4122580    -1.4678430
  H        1.1192750    -1.8168460    -0.6997980
  H        1.4281670    -1.2902280     0.8311830
  H        2.4275310    -0.8373030    -0.4139920
  H        1.0757850     1.1947520     1.4730540
  H        0.4939250     2.2572030     0.1746130
  H        2.1464930     1.6243000     0.1133420
  H       -2.5686030     0.5447890    -0.0239170
units angstrom
no_reorient  #important for SAPT in psi4, default
symmetry c1  #important for SAPT in psi4, default
}

set PROPERTIES_ORIGIN ["COM"]
properties('MP2/aug-cc-pvtz', properties = ['dipole'])
--------------------------------------------------------------------------

    Molecular point group: c1
  Charge       = 1
  Multiplicity = 1
  Basis Set: AUG-CC-PVTZ
    Blend: AUG-CC-PVTZ
  Basis Set: (AUG-CC-PVTZ AUX)
    Blend: AUG-CC-PVTZ-JKFIT

    Orbital Energies [Eh]
    ---------------------

    Doubly Occupied:

       1A    -20.768792     2A    -20.752510     3A    -15.898146
       4A    -11.567825     5A    -11.504325     6A    -11.411805
       7A     -1.675534     8A     -1.550573     9A     -1.519040
      10A     -1.242986    11A     -1.095665    12A     -0.998894
      13A     -0.970853    14A     -0.964618    15A     -0.899474
      16A     -0.861254    17A     -0.846515    18A     -0.818097
      19A     -0.774993    20A     -0.742879    21A     -0.731827
      22A     -0.714319    23A     -0.676810    24A     -0.632377

  @DF-RHF Final Energy:  -322.34719391483964

   => Energetics <=

    Nuclear Repulsion Energy =            260.5425588347886787
    One-Electron Energy =                -946.5392854766922710
    Two-Electron Energy =                 363.6495327270639564
    Total Energy =                       -322.3471939148396359
  Basis Set: (AUG-CC-PVTZ AUX)
    Blend: AUG-CC-PVTZ-RI
    Molecular point group: c1

    Geometry (in Angstrom), charge = 1, multiplicity = 1:

       Center              X                  Y                   Z               Mass
    ------------   -----------------  -----------------  -----------------  -----------------
         O           -1.584697194491     0.863997775495    -0.281761309372    15.994914619570
         O           -1.046148194491    -1.234274224505     0.430269690628    15.994914619570
         N            1.525042805509    -0.974191224505    -0.161618309372    14.003074004430
         C            0.678743805509     0.239866775495    -0.401560309372    12.000000000000
         C            1.196437805509     1.428276775495     0.394251690628    12.000000000000
         C           -0.769125794491    -0.236674324505     0.002585790628    12.000000000000
         H            0.727815805509     0.447148775495    -1.473063309372     1.007825032230
         H            1.196980805509    -1.781955224505    -0.705018309372     1.007825032230
         H            1.505872805509    -1.255337224505     0.825962690628     1.007825032230
         H            2.505236805509    -0.802412224505    -0.419212309372     1.007825032230
         H            1.153490805509     1.229642775495     1.467833690628     1.007825032230
         H            0.571630805509     2.292093775495     0.169392690628     1.007825032230
         H            2.224198805509     1.659190775495     0.108121690628     1.007825032230
         H           -2.490897194491     0.579679775495    -0.029137309372     1.007825032230

  Basis Set: AUG-CC-PVTZ
    Blend: AUG-CC-PVTZ
  Basis Set: (AUG-CC-PVTZ AUX)
    Blend: AUG-CC-PVTZ-JKFIT
	 Reference Energy          =    -322.3471939148396359 [Eh]
	 Singles Energy            =      -0.0000000000000000 [Eh]
	 Same-Spin Energy          =      -0.3097836442683741 [Eh]
	 Opposite-Spin Energy      =      -0.9944647084233242 [Eh]
	 Correlation Energy        =      -1.3042483526916984 [Eh]
	 Total Energy              =    -323.6514422675313085 [Eh]

	 ================> DF-SCS-MP2 Energies <==================
	-----------------------------------------------------------
	 SCS Same-Spin Scale       =       0.3333333333333333 [-]
	 SCS Opposite-Spin Scale   =       1.2000000000000000 [-]
	 SCS Same-Spin Energy      =      -0.1032612147561247 [Eh]
	 SCS Opposite-Spin Energy  =      -1.1933576501079890 [Eh]
	 SCS Correlation Energy    =      -1.2966188648641137 [Eh]
	 SCS Total Energy          =    -323.6438127797037509 [Eh]
	-----------------------------------------------------------

  Dipole Moment: [D]
     X:     5.6617      Y:    -1.8511      Z:    -0.8615     Total:     6.0186

*** Psi4 exiting successfully. Buy a developer a beer!
