                               Psi4 1.3.2 release

  ==> Input File <==

--------------------------------------------------------------------------
#psi4
#
memory 32 gb

molecule  {
1 1
  O       -1.6624030     0.8291070    -0.2765410
  O       -1.1238540    -1.2691650     0.4354900
  N        1.4473370    -1.0090820    -0.1563980
  C        0.6313817     0.2315842    -0.3630267
  C        1.1187320     1.3933860     0.3994720
  C       -0.8221020    -0.1825100    -0.0303730
  H        0.6501100     0.4122580    -1.4678430
  H        1.1458617    -1.8363384    -0.6856904
  H        1.4281670    -1.2902280     0.8311830
  H        2.4275310    -0.8373030    -0.4139920
  H        1.0757850     1.1947520     1.4730540
  H        0.4939250     2.2572030     0.1746130
  H        2.1464930     1.6243000     0.1133420
  H       -2.5686030     0.5447890    -0.0239170
units angstrom
no_reorient  #important for SAPT in psi4, default
symmetry c1  #important for SAPT in psi4, default
}

set PROPERTIES_ORIGIN ["COM"]
properties('MP2/aug-cc-pvtz', properties = ['dipole'])
--------------------------------------------------------------------------

    Molecular point group: c1
  Charge       = 1
  Multiplicity = 1
  Basis Set: AUG-CC-PVTZ
    Blend: AUG-CC-PVTZ
  Basis Set: (AUG-CC-PVTZ AUX)
    Blend: AUG-CC-PVTZ-JKFIT

    Orbital Energies [Eh]
    ---------------------

    Doubly Occupied:

       1A    -20.786578     2A    -20.734273     3A    -15.900255
       4A    -11.576426     5A    -11.511483     6A    -11.413832
       7A     -1.638009     8A     -1.543445     9A     -1.515848
      10A     -1.262342    11A     -1.105269    12A     -1.010668
      13A     -0.979120    14A     -0.965023    15A     -0.885170
      16A     -0.856713    17A     -0.844529    18A     -0.813628
      19A     -0.772533    20A     -0.747914    21A     -0.733954
      22A     -0.711389    23A     -0.656379    24A     -0.632758

  @DF-RHF Final Energy:  -322.35481737460373

   => Energetics <=

    Nuclear Repulsion Energy =            260.1946282988231474
    One-Electron Energy =                -945.9038160077038810
    Two-Electron Energy =                 363.3543703342770641
    Total Energy =                       -322.3548173746037264
  Basis Set: (AUG-CC-PVTZ AUX)
    Blend: AUG-CC-PVTZ-RI
    Molecular point group: c1

    Geometry (in Angstrom), charge = 1, multiplicity = 1:

       Center              X                  Y                   Z               Mass
    ------------   -----------------  -----------------  -----------------  -----------------
         O           -1.592333311275     0.848803649449    -0.281270816222    15.994914619570
         O           -1.053784311275    -1.249468350551     0.430760183778    15.994914619570
         N            1.517406688725    -0.989385350551    -0.161127816222    14.003074004430
         C            0.701451388725     0.251280849449    -0.367756516222    12.000000000000
         C            1.188801688725     1.413082649449     0.394742183778    12.000000000000
         C           -0.752032311275    -0.162813350551    -0.035102816222    12.000000000000
         H            0.720179688725     0.431954649449    -1.472572816222     1.007825032230
         H            1.215931388725    -1.816641750551    -0.690420216222     1.007825032230
         H            1.498236688725    -1.270531350551     0.826453183778     1.007825032230
         H            2.497600688725    -0.817606350551    -0.418721816222     1.007825032230
         H            1.145854688725     1.214448649449     1.468324183778     1.007825032230
         H            0.563994688725     2.276899649449     0.169883183778     1.007825032230
         H            2.216562688725     1.643996649449     0.108612183778     1.007825032230
         H           -2.498533311275     0.564485649449    -0.028646816222     1.007825032230

  Basis Set: AUG-CC-PVTZ
    Blend: AUG-CC-PVTZ
  Basis Set: (AUG-CC-PVTZ AUX)
    Blend: AUG-CC-PVTZ-JKFIT
	 Reference Energy          =    -322.3548173746037264 [Eh]
	 Singles Energy            =      -0.0000000000000000 [Eh]
	 Same-Spin Energy          =      -0.3120122789704716 [Eh]
	 Opposite-Spin Energy      =      -0.9981198488531214 [Eh]
	 Correlation Energy        =      -1.3101321278235929 [Eh]
	 Total Energy              =    -323.6649495024273051 [Eh]

	 ================> DF-SCS-MP2 Energies <==================
	-----------------------------------------------------------
	 SCS Same-Spin Scale       =       0.3333333333333333 [-]
	 SCS Opposite-Spin Scale   =       1.2000000000000000 [-]
	 SCS Same-Spin Energy      =      -0.1040040929901572 [Eh]
	 SCS Opposite-Spin Energy  =      -1.1977438186237457 [Eh]
	 SCS Correlation Energy    =      -1.3017479116139028 [Eh]
	 SCS Total Energy          =    -323.6565652862176421 [Eh]
	-----------------------------------------------------------

  Dipole Moment: [D]
     X:     5.6826      Y:    -1.2284      Z:    -1.0564     Total:     5.9091

*** Psi4 exiting successfully. Buy a developer a beer!
