                               Psi4 1.3.2 release

  ==> Input File <==

--------------------------------------------------------------------------
#psi4
#
memory 32 gb

molecule  {
1 1
  O       -1.6624030     0.8291070    -0.2765410
  O       -1.1238540    -1.2691650     0.4354900
  N        1.4473370    -1.0090820    -0.1563980
  C        0.5965277     0.1920183    -0.3736131
  C        1.1187320     1.3933860     0.3994720
  C       -0.8221020    -0.1825100    -0.0303730
  H        0.6501100     0.4122580    -1.4678430
  H        1.1192750    -1.8168460    -0.6997980
  H        1.4281670    -1.2902280     0.8311830
  H        2.4275310    -0.8373030    -0.4139920
  H        1.0685508     1.1774896     1.4694013
  H        0.4939250     2.2572030     0.1746130
  H        2.1464930     1.6243000     0.1133420
  H       -2.5686030     0.5447890    -0.0239170
units angstrom
no_reorient  #important for SAPT in psi4, default
symmetry c1  #important for SAPT in psi4, default
}

set PROPERTIES_ORIGIN ["COM"]
properties('MP2/aug-cc-pvtz', properties = ['dipole'])
--------------------------------------------------------------------------

    Molecular point group: c1
  Charge       = 1
  Multiplicity = 1
  Basis Set: AUG-CC-PVTZ
    Blend: AUG-CC-PVTZ
  Basis Set: (AUG-CC-PVTZ AUX)
    Blend: AUG-CC-PVTZ-JKFIT

    Orbital Energies [Eh]
    ---------------------

    Doubly Occupied:

       1A    -20.786990     2A    -20.733895     3A    -15.901965
       4A    -11.575528     5A    -11.508980     6A    -11.416781
       7A     -1.639450     8A     -1.545250     9A     -1.518010
      10A     -1.256371    11A     -1.109004    12A     -1.012343
      13A     -0.981916    14A     -0.967686    15A     -0.886212
      16A     -0.863469    17A     -0.844207    18A     -0.811905
      19A     -0.772425    20A     -0.737582    21A     -0.735438
      22A     -0.710369    23A     -0.656256    24A     -0.637083

  @DF-RHF Final Energy:  -322.35774895499253

   => Energetics <=

    Nuclear Repulsion Energy =            260.5666465661367965
    One-Electron Energy =                -946.6305633216463775
    Two-Electron Energy =                 363.7061678005170506
    Total Energy =                       -322.3577489549925303
  Basis Set: (AUG-CC-PVTZ AUX)
    Blend: AUG-CC-PVTZ-RI
    Molecular point group: c1

    Geometry (in Angstrom), charge = 1, multiplicity = 1:

       Center              X                  Y                   Z               Mass
    ------------   -----------------  -----------------  -----------------  -----------------
         O           -1.587310480554     0.854050895112    -0.279661407921    15.994914619570
         O           -1.048761480554    -1.244221104888     0.432369592079    15.994914619570
         N            1.522429519446    -0.984138104888    -0.159518407921    14.003074004430
         C            0.671620219446     0.216962195112    -0.376733507921    12.000000000000
         C            1.193824519446     1.418329895112     0.396351592079    12.000000000000
         C           -0.747009480554    -0.157566104888    -0.033493407921    12.000000000000
         H            0.725202519446     0.437201895112    -1.470963407921     1.007825032230
         H            1.194367519446    -1.791902104888    -0.702918407921     1.007825032230
         H            1.503259519446    -1.265284104888     0.828062592079     1.007825032230
         H            2.502623519446    -0.812359104888    -0.417112407921     1.007825032230
         H            1.143643319446     1.202433495112     1.466280892079     1.007825032230
         H            0.569017519446     2.282146895112     0.171492592079     1.007825032230
         H            2.221585519446     1.649243895112     0.110221592079     1.007825032230
         H           -2.493510480554     0.569732895112    -0.027037407921     1.007825032230

  Basis Set: AUG-CC-PVTZ
    Blend: AUG-CC-PVTZ
  Basis Set: (AUG-CC-PVTZ AUX)
    Blend: AUG-CC-PVTZ-JKFIT
	 Reference Energy          =    -322.3577489549925303 [Eh]
	 Singles Energy            =      -0.0000000000000000 [Eh]
	 Same-Spin Energy          =      -0.3117433393716483 [Eh]
	 Opposite-Spin Energy      =      -0.9977464648055971 [Eh]
	 Correlation Energy        =      -1.3094898041772454 [Eh]
	 Total Energy              =    -323.6672387591697770 [Eh]

	 ================> DF-SCS-MP2 Energies <==================
	-----------------------------------------------------------
	 SCS Same-Spin Scale       =       0.3333333333333333 [-]
	 SCS Opposite-Spin Scale   =       1.2000000000000000 [-]
	 SCS Same-Spin Energy      =      -0.1039144464572161 [Eh]
	 SCS Opposite-Spin Energy  =      -1.1972957577667165 [Eh]
	 SCS Correlation Energy    =      -1.3012102042239326 [Eh]
	 SCS Total Energy          =    -323.6589591592164652 [Eh]
	-----------------------------------------------------------

  Dipole Moment: [D]
     X:     5.7140      Y:    -1.2293      Z:    -1.0954     Total:     5.9465

*** Psi4 exiting successfully. Buy a developer a beer!
