                               Psi4 1.4a3.dev225

  ==> Input File <==

--------------------------------------------------------------------------
#psi4
#
memory 32 gb

molecule  {
1 1
  O       -1.6123010     0.9094490    -0.1675920
  O       -1.1928110    -1.2795120     0.3034070
  N        1.4156850    -1.0522820    -0.0637630
  C        0.5988324     0.1836780    -0.4002001
  C        1.1650120     1.3928430     0.3122100
  C       -0.8284910    -0.1652490    -0.0350320
  H        0.6656880     0.2905790    -1.4809690
  H        0.9122540    -1.9066690    -0.3390640
  H        1.5920220    -1.1264780     0.9462830
  H        2.3268530    -1.0442670    -0.5383350
  H        1.0907020     1.2862690     1.3970100
  H        0.5903660     2.2672430     0.0071660
  H        2.2096640     1.5504630     0.0359860
  H       -2.5330880     0.6393330     0.0432950
units angstrom
no_reorient  #important for SAPT in psi4, default
symmetry c1  #important for SAPT in psi4, default
}

set PROPERTIES_ORIGIN ["COM"]
properties('MP2/aug-cc-pvtz', properties = ['dipole'])
--------------------------------------------------------------------------

    Molecular point group: c1
  Charge       = 1
  Multiplicity = 1
  Basis Set: AUG-CC-PVTZ
    Blend: AUG-CC-PVTZ
  Basis Set: (AUG-CC-PVTZ AUX)
    Blend: AUG-CC-PVTZ-JKFIT

    Orbital Energies [Eh]
    ---------------------

    Doubly Occupied:

       1A    -20.788415     2A    -20.736530     3A    -15.896258
       4A    -11.577612     5A    -11.510719     6A    -11.415890
       7A     -1.641839     8A     -1.545417     9A     -1.509868
      10A     -1.257744    11A     -1.109422    12A     -1.012310
      13A     -0.976202    14A     -0.960521    15A     -0.887250
      16A     -0.858165    17A     -0.852544    18A     -0.808699
      19A     -0.774120    20A     -0.738310    21A     -0.734743
      22A     -0.718237    23A     -0.658429    24A     -0.639671

  @DF-RHF Final Energy:  -322.35857582794461

   => Energetics <=

    Nuclear Repulsion Energy =            260.3550701929592037
    One-Electron Energy =                -946.2094588320636603
    Two-Electron Energy =                 363.4958128111597944
    Total Energy =                       -322.3585758279446054
  Basis Set: (AUG-CC-PVTZ AUX)
    Blend: AUG-CC-PVTZ-RI
    Molecular point group: c1

    Geometry (in Angstrom), charge = 1, multiplicity = 1:

       Center              X                  Y                   Z               Mass
    ------------   -----------------  -----------------  -----------------  -----------------
         O           -1.535556695994     0.928851060687    -0.166205484067    15.994914619570
         O           -1.116066695994    -1.260109939313     0.304793515933    15.994914619570
         N            1.492429304006    -1.032879939313    -0.062376484067    14.003074004430
         C            0.675576704006     0.203080060687    -0.398813584067    12.000000000000
         C            1.241756304006     1.412245060687     0.313596515933    12.000000000000
         C           -0.751746695994    -0.145846939313    -0.033645484067    12.000000000000
         H            0.742432304006     0.309981060687    -1.479582484067     1.007825032230
         H            0.988998304006    -1.887266939313    -0.337677484067     1.007825032230
         H            1.668766304006    -1.107075939313     0.947669515933     1.007825032230
         H            2.403597304006    -1.024864939313    -0.536948484067     1.007825032230
         H            1.167446304006     1.305671060687     1.398396515933     1.007825032230
         H            0.667110304006     2.286645060687     0.008552515933     1.007825032230
         H            2.286408304006     1.569865060687     0.037372515933     1.007825032230
         H           -2.456343695994     0.658735060687     0.044681515933     1.007825032230

  Basis Set: AUG-CC-PVTZ
    Blend: AUG-CC-PVTZ
  Basis Set: (AUG-CC-PVTZ AUX)
    Blend: AUG-CC-PVTZ-JKFIT
	 Reference Energy          =    -322.3585758279446054 [Eh]
	 Singles Energy            =      -0.0000000000000000 [Eh]
	 Same-Spin Energy          =      -0.3117693345939323 [Eh]
	 Opposite-Spin Energy      =      -0.9980062077878209 [Eh]
	 Correlation Energy        =      -1.3097755423817532 [Eh]
	 Total Energy              =    -323.6683513703263770 [Eh]

	 ================> DF-SCS-MP2 Energies <==================
	-----------------------------------------------------------
	 SCS Same-Spin Scale       =       0.3333333333333333 [-]
	 SCS Opposite-Spin Scale   =       1.2000000000000000 [-]
	 SCS Same-Spin Energy      =      -0.1039231115313108 [Eh]
	 SCS Opposite-Spin Energy  =      -1.1976074493453850 [Eh]
	 SCS Correlation Energy    =      -1.3015305608766958 [Eh]
	 SCS Total Energy          =    -323.6601063888213048 [Eh]
	-----------------------------------------------------------

  Dipole Moment: [D]
     X:     5.5953      Y:    -1.2804      Z:    -0.6601     Total:     5.7777

*** Psi4 exiting successfully. Buy a developer a beer!
