                               Psi4 1.4a3.dev225

  ==> Input File <==

--------------------------------------------------------------------------
#psi4
#
memory 32 gb

molecule  {
1 1
  O       -1.6123010     0.9094490    -0.1675920
  O       -1.1928110    -1.2795120     0.3034070
  N        1.4156850    -1.0522820    -0.0637630
  C        0.6095860     0.1674070    -0.3957710
  C        1.1723186     1.4089636     0.3215235
  C       -0.8284910    -0.1652490    -0.0350320
  H        0.6656880     0.2905790    -1.4809690
  H        0.9122540    -1.9066690    -0.3390640
  H        1.5920220    -1.1264780     0.9462830
  H        2.3268530    -1.0442670    -0.5383350
  H        1.0907020     1.2862690     1.3970100
  H        0.5903660     2.2672430     0.0071660
  H        2.2096640     1.5504630     0.0359860
  H       -2.5330880     0.6393330     0.0432950
units angstrom
no_reorient  #important for SAPT in psi4, default
symmetry c1  #important for SAPT in psi4, default
}

set PROPERTIES_ORIGIN ["COM"]
properties('MP2/aug-cc-pvtz', properties = ['dipole'])
--------------------------------------------------------------------------

    Molecular point group: c1
  Charge       = 1
  Multiplicity = 1
  Basis Set: AUG-CC-PVTZ
    Blend: AUG-CC-PVTZ
  Basis Set: (AUG-CC-PVTZ AUX)
    Blend: AUG-CC-PVTZ-JKFIT

    Orbital Energies [Eh]
    ---------------------

    Doubly Occupied:

       1A    -20.788118     2A    -20.735445     3A    -15.898660
       4A    -11.576990     5A    -11.509568     6A    -11.415788
       7A     -1.641026     8A     -1.545640     9A     -1.514058
      10A     -1.251965    11A     -1.109084    12A     -1.013410
      13A     -0.978785    14A     -0.963848    15A     -0.886721
      16A     -0.858630    17A     -0.852362    18A     -0.806544
      19A     -0.773414    20A     -0.740023    21A     -0.730640
      22A     -0.718880    23A     -0.657619    24A     -0.638390

  @DF-RHF Final Energy:  -322.35878123578431

   => Energetics <=

    Nuclear Repulsion Energy =            260.0825634401434172
    One-Electron Energy =                -945.6714775629076257
    Two-Electron Energy =                 363.2301328869799022
    Total Energy =                       -322.3587812357843063
  Basis Set: (AUG-CC-PVTZ AUX)
    Blend: AUG-CC-PVTZ-RI
    Molecular point group: c1

    Geometry (in Angstrom), charge = 1, multiplicity = 1:

       Center              X                  Y                   Z               Mass
    ------------   -----------------  -----------------  -----------------  -----------------
         O           -1.537963238532     0.928871101661    -0.168036701411    15.994914619570
         O           -1.118473238532    -1.260089898339     0.302962298589    15.994914619570
         N            1.490022761468    -1.032859898339    -0.064207701411    14.003074004430
         C            0.683923761468     0.186829101661    -0.396215701411    12.000000000000
         C            1.246656361468     1.428385701661     0.321078798589    12.000000000000
         C           -0.754153238532    -0.145826898339    -0.035476701411    12.000000000000
         H            0.740025761468     0.310001101661    -1.481413701411     1.007825032230
         H            0.986591761468    -1.887246898339    -0.339508701411     1.007825032230
         H            1.666359761468    -1.107055898339     0.945838298589     1.007825032230
         H            2.401190761468    -1.024844898339    -0.538779701411     1.007825032230
         H            1.165039761468     1.305691101661     1.396565298589     1.007825032230
         H            0.664703761468     2.286665101661     0.006721298589     1.007825032230
         H            2.284001761468     1.569885101661     0.035541298589     1.007825032230
         H           -2.458750238532     0.658755101661     0.042850298589     1.007825032230

  Basis Set: AUG-CC-PVTZ
    Blend: AUG-CC-PVTZ
  Basis Set: (AUG-CC-PVTZ AUX)
    Blend: AUG-CC-PVTZ-JKFIT
	 Reference Energy          =    -322.3587812357843063 [Eh]
	 Singles Energy            =      -0.0000000000000000 [Eh]
	 Same-Spin Energy          =      -0.3115982399196817 [Eh]
	 Opposite-Spin Energy      =      -0.9976907050775951 [Eh]
	 Correlation Energy        =      -1.3092889449972769 [Eh]
	 Total Energy              =    -323.6680701807815694 [Eh]

	 ================> DF-SCS-MP2 Energies <==================
	-----------------------------------------------------------
	 SCS Same-Spin Scale       =       0.3333333333333333 [-]
	 SCS Opposite-Spin Scale   =       1.2000000000000000 [-]
	 SCS Same-Spin Energy      =      -0.1038660799732272 [Eh]
	 SCS Opposite-Spin Energy  =      -1.1972288460931140 [Eh]
	 SCS Correlation Energy    =      -1.3010949260663411 [Eh]
	 SCS Total Energy          =    -323.6598761618506614 [Eh]
	-----------------------------------------------------------

  Dipole Moment: [D]
     X:     5.6255      Y:    -1.3279      Z:    -0.6597     Total:     5.8176

*** Psi4 exiting successfully. Buy a developer a beer!
