                               Psi4 1.3.2 release

  ==> Input File <==

--------------------------------------------------------------------------
#psi4
#
memory 32 gb

molecule  {
1 1
  O       -1.6624030     0.8291070    -0.2765410
  O       -1.1238540    -1.2691650     0.4354900
  N        1.4548924    -1.0021403    -0.1482799
  C        0.6010380     0.2049760    -0.3963400
  C        1.1284587     1.3857959     0.4043684
  C       -0.8221020    -0.1825100    -0.0303730
  H        0.6501100     0.4122580    -1.4678430
  H        1.1192750    -1.8168460    -0.6997980
  H        1.4281670    -1.2902280     0.8311830
  H        2.4275310    -0.8373030    -0.4139920
  H        1.0757850     1.1947520     1.4730540
  H        0.4939250     2.2572030     0.1746130
  H        2.1464930     1.6243000     0.1133420
  H       -2.5686030     0.5447890    -0.0239170
units angstrom
no_reorient  #important for SAPT in psi4, default
symmetry c1  #important for SAPT in psi4, default
}

set PROPERTIES_ORIGIN ["COM"]
properties('MP2/aug-cc-pvtz', properties = ['dipole'])
--------------------------------------------------------------------------

    Molecular point group: c1
  Charge       = 1
  Multiplicity = 1
  Basis Set: AUG-CC-PVTZ
    Blend: AUG-CC-PVTZ
  Basis Set: (AUG-CC-PVTZ AUX)
    Blend: AUG-CC-PVTZ-JKFIT

    Orbital Energies [Eh]
    ---------------------

    Doubly Occupied:

       1A    -20.787138     2A    -20.734749     3A    -15.900012
       4A    -11.576541     5A    -11.509360     6A    -11.416001
       7A     -1.639362     8A     -1.544367     9A     -1.515563
      10A     -1.255699    11A     -1.107883    12A     -1.013190
      13A     -0.982048    14A     -0.960681    15A     -0.887261
      16A     -0.861156    17A     -0.848959    18A     -0.811615
      19A     -0.772776    20A     -0.735306    21A     -0.731549
      22A     -0.717830    23A     -0.656696    24A     -0.637129

  @DF-RHF Final Energy:  -322.35850609540933

   => Energetics <=

    Nuclear Repulsion Energy =            260.2400179529965385
    One-Electron Energy =                -945.9913078319084434
    Two-Electron Energy =                 363.3927837835025230
    Total Energy =                       -322.3585060954093251
  Basis Set: (AUG-CC-PVTZ AUX)
    Blend: AUG-CC-PVTZ-RI
    Molecular point group: c1

    Geometry (in Angstrom), charge = 1, multiplicity = 1:

       Center              X                  Y                   Z               Mass
    ------------   -----------------  -----------------  -----------------  -----------------
         O           -1.590463354305     0.852063078591    -0.278588665460    15.994914619570
         O           -1.051914354305    -1.246208921409     0.433442334540    15.994914619570
         N            1.526832045695    -0.979184221409    -0.150327565460    14.003074004430
         C            0.672977645695     0.227932078591    -0.398387665460    12.000000000000
         C            1.200398345695     1.408751978591     0.402320734540    12.000000000000
         C           -0.750162354305    -0.159553921409    -0.032420665460    12.000000000000
         H            0.722049645695     0.435214078591    -1.469890665460     1.007825032230
         H            1.191214645695    -1.793889921409    -0.701845665460     1.007825032230
         H            1.500106645695    -1.267271921409     0.829135334540     1.007825032230
         H            2.499470645695    -0.814346921409    -0.416039665460     1.007825032230
         H            1.147724645695     1.217708078591     1.471006334540     1.007825032230
         H            0.565864645695     2.280159078591     0.172565334540     1.007825032230
         H            2.218432645695     1.647256078591     0.111294334540     1.007825032230
         H           -2.496663354305     0.567745078591    -0.025964665460     1.007825032230

  Basis Set: AUG-CC-PVTZ
    Blend: AUG-CC-PVTZ
  Basis Set: (AUG-CC-PVTZ AUX)
    Blend: AUG-CC-PVTZ-JKFIT
	 Reference Energy          =    -322.3585060954093251 [Eh]
	 Singles Energy            =      -0.0000000000000000 [Eh]
	 Same-Spin Energy          =      -0.3116271206927504 [Eh]
	 Opposite-Spin Energy      =      -0.9976863978071002 [Eh]
	 Correlation Energy        =      -1.3093135184998506 [Eh]
	 Total Energy              =    -323.6678196139091597 [Eh]

	 ================> DF-SCS-MP2 Energies <==================
	-----------------------------------------------------------
	 SCS Same-Spin Scale       =       0.3333333333333333 [-]
	 SCS Opposite-Spin Scale   =       1.2000000000000000 [-]
	 SCS Same-Spin Energy      =      -0.1038757068975835 [Eh]
	 SCS Opposite-Spin Energy  =      -1.1972236773685203 [Eh]
	 SCS Correlation Energy    =      -1.3010993842661038 [Eh]
	 SCS Total Energy          =    -323.6596054796754061 [Eh]
	-----------------------------------------------------------

  Dipole Moment: [D]
     X:     5.6574      Y:    -1.2227      Z:    -1.1032     Total:     5.8922

*** Psi4 exiting successfully. Buy a developer a beer!
