                               Psi4 1.3.2 release

  ==> Input File <==

--------------------------------------------------------------------------
#psi4
#
memory 32 gb

molecule  {
1 1
  O       -1.6624030     0.8291070    -0.2765410
  O       -1.1238540    -1.2691650     0.4354900
  N        1.4473370    -1.0090820    -0.1563980
  C        0.6010380     0.2049760    -0.3963400
  C        1.1187320     1.3933860     0.3994720
  C       -0.8715612    -0.3606201     0.0459851
  H        0.6501100     0.4122580    -1.4678430
  H        1.1192750    -1.8168460    -0.6997980
  H        1.4281670    -1.2902280     0.8311830
  H        2.4275310    -0.8373030    -0.4139920
  H        1.0757850     1.1947520     1.4730540
  H        0.4939250     2.2572030     0.1746130
  H        2.1464930     1.6243000     0.1133420
  H       -2.5686030     0.5447890    -0.0239170
units angstrom
no_reorient  #important for SAPT in psi4, default
symmetry c1  #important for SAPT in psi4, default
}

set PROPERTIES_ORIGIN ["COM"]
properties('MP2/aug-cc-pvtz', properties = ['dipole'])
--------------------------------------------------------------------------

    Molecular point group: c1
  Charge       = 1
  Multiplicity = 1
  Basis Set: AUG-CC-PVTZ
    Blend: AUG-CC-PVTZ
  Basis Set: (AUG-CC-PVTZ AUX)
    Blend: AUG-CC-PVTZ-JKFIT

    Orbital Energies [Eh]
    ---------------------

    Doubly Occupied:

       1A    -20.770800     2A    -20.749016     3A    -15.895887
       4A    -11.558577     5A    -11.498089     6A    -11.406808
       7A     -1.758660     8A     -1.525967     9A     -1.517127
      10A     -1.231195    11A     -1.084449    12A     -0.993356
      13A     -0.964556    14A     -0.961832    15A     -0.917121
      16A     -0.885706    17A     -0.864890    18A     -0.836480
      19A     -0.767841    20A     -0.748349    21A     -0.726675
      22A     -0.711704    23A     -0.673218    24A     -0.612933

  @DF-RHF Final Energy:  -322.27873165516581

   => Energetics <=

    Nuclear Repulsion Energy =            261.1926783689511922
    One-Electron Energy =                -947.6203430973295099
    Two-Electron Energy =                 364.1489330732125040
    Total Energy =                       -322.2787316551658137
  Basis Set: (AUG-CC-PVTZ AUX)
    Blend: AUG-CC-PVTZ-RI
    Molecular point group: c1

    Geometry (in Angstrom), charge = 1, multiplicity = 1:

       Center              X                  Y                   Z               Mass
    ------------   -----------------  -----------------  -----------------  -----------------
         O           -1.581401946689     0.875864457246    -0.286848705280    15.994914619570
         O           -1.042852946689    -1.222407542754     0.425182294720    15.994914619570
         N            1.528338053311    -0.962324542754    -0.166705705280    14.003074004430
         C            0.682039053311     0.251733457246    -0.406647705280    12.000000000000
         C            1.199733053311     1.440143457246     0.389164294720    12.000000000000
         C           -0.790560146689    -0.313862642754     0.035677394720    12.000000000000
         H            0.731111053311     0.459015457246    -1.478150705280     1.007825032230
         H            1.200276053311    -1.770088542754    -0.710105705280     1.007825032230
         H            1.509168053311    -1.243470542754     0.820875294720     1.007825032230
         H            2.508532053311    -0.790545542754    -0.424299705280     1.007825032230
         H            1.156786053311     1.241509457246     1.462746294720     1.007825032230
         H            0.574926053311     2.303960457246     0.164305294720     1.007825032230
         H            2.227494053311     1.671057457246     0.103034294720     1.007825032230
         H           -2.487601946689     0.591546457246    -0.034224705280     1.007825032230

  Basis Set: AUG-CC-PVTZ
    Blend: AUG-CC-PVTZ
  Basis Set: (AUG-CC-PVTZ AUX)
    Blend: AUG-CC-PVTZ-JKFIT
	 Reference Energy          =    -322.2787316551658137 [Eh]
	 Singles Energy            =      -0.0000000000000000 [Eh]
	 Same-Spin Energy          =      -0.3084400124384318 [Eh]
	 Opposite-Spin Energy      =      -0.9921765927745388 [Eh]
	 Correlation Energy        =      -1.3006166052129706 [Eh]
	 Total Energy              =    -323.5793482603787652 [Eh]

	 ================> DF-SCS-MP2 Energies <==================
	-----------------------------------------------------------
	 SCS Same-Spin Scale       =       0.3333333333333333 [-]
	 SCS Opposite-Spin Scale   =       1.2000000000000000 [-]
	 SCS Same-Spin Energy      =      -0.1028133374794773 [Eh]
	 SCS Opposite-Spin Energy  =      -1.1906119113294467 [Eh]
	 SCS Correlation Energy    =      -1.2934252488089240 [Eh]
	 SCS Total Energy          =    -323.5721569039747578 [Eh]
	-----------------------------------------------------------

  Dipole Moment: [D]
     X:     5.6049      Y:    -2.5670      Z:    -0.5998     Total:     6.1939

*** Psi4 exiting successfully. Buy a developer a beer!
