                               Psi4 1.3.2 release

  ==> Input File <==

--------------------------------------------------------------------------
#psi4
#
memory 32 gb

molecule  {
1 1
  O       -1.6624030     0.8291070    -0.2765410
  O       -1.1136338    -1.2721258     0.4350819
  N        1.4473370    -1.0090820    -0.1563980
  C        0.6052466     0.1930439    -0.3923673
  C        1.1187320     1.3933860     0.3994720
  C       -0.8221020    -0.1825100    -0.0303730
  H        0.6501100     0.4122580    -1.4678430
  H        1.1192750    -1.8168460    -0.6997980
  H        1.4281670    -1.2902280     0.8311830
  H        2.4275310    -0.8373030    -0.4139920
  H        1.0757850     1.1947520     1.4730540
  H        0.4939250     2.2572030     0.1746130
  H        2.1464930     1.6243000     0.1133420
  H       -2.5686030     0.5447890    -0.0239170
units angstrom
no_reorient  #important for SAPT in psi4, default
symmetry c1  #important for SAPT in psi4, default
}

set PROPERTIES_ORIGIN ["COM"]
properties('MP2/aug-cc-pvtz', properties = ['dipole'])
--------------------------------------------------------------------------

    Molecular point group: c1
  Charge       = 1
  Multiplicity = 1
  Basis Set: AUG-CC-PVTZ
    Blend: AUG-CC-PVTZ
  Basis Set: (AUG-CC-PVTZ AUX)
    Blend: AUG-CC-PVTZ-JKFIT

    Orbital Energies [Eh]
    ---------------------

    Doubly Occupied:

       1A    -20.787739     2A    -20.734148     3A    -15.901520
       4A    -11.576042     5A    -11.507961     6A    -11.416307
       7A     -1.639102     8A     -1.545783     9A     -1.517845
      10A     -1.254036    11A     -1.106930    12A     -1.013606
      13A     -0.981216    14A     -0.967380    15A     -0.886992
      16A     -0.861384    17A     -0.847538    18A     -0.811160
      19A     -0.771339    20A     -0.736832    21A     -0.732585
      22A     -0.714597    23A     -0.656824    24A     -0.636031

  @DF-RHF Final Energy:  -322.35877817007741

   => Energetics <=

    Nuclear Repulsion Energy =            260.3853918914555834
    One-Electron Energy =                -946.2785433097820942
    Two-Electron Energy =                 363.5343732482490964
    Total Energy =                       -322.3587781700774144
  Basis Set: (AUG-CC-PVTZ AUX)
    Blend: AUG-CC-PVTZ-RI
    Molecular point group: c1

    Geometry (in Angstrom), charge = 1, multiplicity = 1:

       Center              X                  Y                   Z               Mass
    ------------   -----------------  -----------------  -----------------  -----------------
         O           -1.590368470610     0.854246919382    -0.277130783658    15.994914619570
         O           -1.041599270610    -1.246985880618     0.434492116342    15.994914619570
         N            1.519371529390    -0.983942080618    -0.156987783658    14.003074004430
         C            0.677281129390     0.218183819382    -0.392957083658    12.000000000000
         C            1.190766529390     1.418525919382     0.398882216342    12.000000000000
         C           -0.750067470610    -0.157370080618    -0.030962783658    12.000000000000
         H            0.722144529390     0.437397919382    -1.468432783658     1.007825032230
         H            1.191309529390    -1.791706080618    -0.700387783658     1.007825032230
         H            1.500201529390    -1.265088080618     0.830593216342     1.007825032230
         H            2.499565529390    -0.812163080618    -0.414581783658     1.007825032230
         H            1.147819529390     1.219891919382     1.472464216342     1.007825032230
         H            0.565959529390     2.282342919382     0.174023216342     1.007825032230
         H            2.218527529390     1.649439919382     0.112752216342     1.007825032230
         H           -2.496568470610     0.569928919382    -0.024506783658     1.007825032230

  Basis Set: AUG-CC-PVTZ
    Blend: AUG-CC-PVTZ
  Basis Set: (AUG-CC-PVTZ AUX)
    Blend: AUG-CC-PVTZ-JKFIT
	 Reference Energy          =    -322.3587781700774144 [Eh]
	 Singles Energy            =      -0.0000000000000000 [Eh]
	 Same-Spin Energy          =      -0.3116307691015189 [Eh]
	 Opposite-Spin Energy      =      -0.9975869066271620 [Eh]
	 Correlation Energy        =      -1.3092176757286809 [Eh]
	 Total Energy              =    -323.6679958458061037 [Eh]

	 ================> DF-SCS-MP2 Energies <==================
	-----------------------------------------------------------
	 SCS Same-Spin Scale       =       0.3333333333333333 [-]
	 SCS Opposite-Spin Scale   =       1.2000000000000000 [-]
	 SCS Same-Spin Energy      =      -0.1038769230338396 [Eh]
	 SCS Opposite-Spin Energy  =      -1.1971042879525944 [Eh]
	 SCS Correlation Energy    =      -1.3009812109864340 [Eh]
	 SCS Total Energy          =    -323.6597593810638500 [Eh]
	-----------------------------------------------------------

  Dipole Moment: [D]
     X:     5.6611      Y:    -1.2304      Z:    -1.0881     Total:     5.8946

*** Psi4 exiting successfully. Buy a developer a beer!
