                               Psi4 1.3.2 release

  ==> Input File <==

--------------------------------------------------------------------------
#psi4
#
memory 32 gb

molecule  {
1 1
  O       -1.6624030     0.8291070    -0.2765410
  O       -1.1238540    -1.2691650     0.4354900
  N        1.4580641    -1.0105949    -0.2075952
  C        0.6010380     0.2049760    -0.3963400
  C        1.1187320     1.3933860     0.3994720
  C       -0.8221020    -0.1825100    -0.0303730
  H        0.6730447     0.3820721    -1.4719536
  H        1.1192750    -1.8168460    -0.6997980
  H        1.4281670    -1.2902280     0.8311830
  H        2.4275310    -0.8373030    -0.4139920
  H        1.0757850     1.1947520     1.4730540
  H        0.4939250     2.2572030     0.1746130
  H        2.1464930     1.6243000     0.1133420
  H       -2.5686030     0.5447890    -0.0239170
units angstrom
no_reorient  #important for SAPT in psi4, default
symmetry c1  #important for SAPT in psi4, default
}

set PROPERTIES_ORIGIN ["COM"]
properties('MP2/aug-cc-pvtz', properties = ['dipole'])
--------------------------------------------------------------------------

    Molecular point group: c1
  Charge       = 1
  Multiplicity = 1
  Basis Set: AUG-CC-PVTZ
    Blend: AUG-CC-PVTZ
  Basis Set: (AUG-CC-PVTZ AUX)
    Blend: AUG-CC-PVTZ-JKFIT

    Orbital Energies [Eh]
    ---------------------

    Doubly Occupied:

       1A    -20.787443     2A    -20.735155     3A    -15.899579
       4A    -11.577196     5A    -11.509442     6A    -11.417490
       7A     -1.639594     8A     -1.544417     9A     -1.515909
      10A     -1.256072    11A     -1.108446    12A     -1.012168
      13A     -0.983558    14A     -0.965591    15A     -0.885103
      16A     -0.863907    17A     -0.837650    18A     -0.812508
      19A     -0.772717    20A     -0.739273    21A     -0.734660
      22A     -0.716019    23A     -0.657006    24A     -0.637280

  @DF-RHF Final Energy:  -322.35508947219432

   => Energetics <=

    Nuclear Repulsion Energy =            260.0376554610256790
    One-Electron Energy =                -945.5691270762100658
    Two-Electron Energy =                 363.1763821429900645
    Total Energy =                       -322.3550894721943223
  Basis Set: (AUG-CC-PVTZ AUX)
    Blend: AUG-CC-PVTZ-RI
    Molecular point group: c1

    Geometry (in Angstrom), charge = 1, multiplicity = 1:

       Center              X                  Y                   Z               Mass
    ------------   -----------------  -----------------  -----------------  -----------------
         O           -1.589917105786     0.852704142078    -0.268667049719    15.994914619570
         O           -1.051368105786    -1.245567857922     0.443363950281    15.994914619570
         N            1.530549994214    -0.986997757922    -0.199721249719    14.003074004430
         C            0.673523894214     0.228573142078    -0.388466049719    12.000000000000
         C            1.191217894214     1.416983142078     0.407345950281    12.000000000000
         C           -0.749616105786    -0.158912857922    -0.022499049719    12.000000000000
         H            0.745530594214     0.405669242078    -1.464079649719     1.007825032230
         H            1.191760894214    -1.793248857922    -0.691924049719     1.007825032230
         H            1.500652894214    -1.266630857922     0.839056950281     1.007825032230
         H            2.500016894214    -0.813705857922    -0.406118049719     1.007825032230
         H            1.148270894214     1.218349142078     1.480927950281     1.007825032230
         H            0.566410894214     2.280800142078     0.182486950281     1.007825032230
         H            2.218978894214     1.647897142078     0.121215950281     1.007825032230
         H           -2.496117105786     0.568386142078    -0.016043049719     1.007825032230

  Basis Set: AUG-CC-PVTZ
    Blend: AUG-CC-PVTZ
  Basis Set: (AUG-CC-PVTZ AUX)
    Blend: AUG-CC-PVTZ-JKFIT
	 Reference Energy          =    -322.3550894721943223 [Eh]
	 Singles Energy            =      -0.0000000000000000 [Eh]
	 Same-Spin Energy          =      -0.3116884136403270 [Eh]
	 Opposite-Spin Energy      =      -0.9979095246379266 [Eh]
	 Correlation Energy        =      -1.3095979382782537 [Eh]
	 Total Energy              =    -323.6646874104725953 [Eh]

	 ================> DF-SCS-MP2 Energies <==================
	-----------------------------------------------------------
	 SCS Same-Spin Scale       =       0.3333333333333333 [-]
	 SCS Opposite-Spin Scale   =       1.2000000000000000 [-]
	 SCS Same-Spin Energy      =      -0.1038961378801090 [Eh]
	 SCS Opposite-Spin Energy  =      -1.1974914295655119 [Eh]
	 SCS Correlation Energy    =      -1.3013875674456210 [Eh]
	 SCS Total Energy          =    -323.6564770396399240 [Eh]
	-----------------------------------------------------------

  Dipole Moment: [D]
     X:     5.6587      Y:    -1.2049      Z:    -1.0095     Total:     5.8730

*** Psi4 exiting successfully. Buy a developer a beer!
