                               Psi4 1.3.2 release

  ==> Input File <==

--------------------------------------------------------------------------
#psi4
#
memory 32 gb

molecule  {
1 1
  O       -1.6624030     0.8291070    -0.2765410
  O       -1.1238540    -1.2691650     0.4354900
  N        1.4473370    -1.0090820    -0.1563980
  C        0.6105303     0.2319733    -0.4410598
  C        1.1187320     1.3933860     0.3994720
  C       -0.8221020    -0.1825100    -0.0303730
  H        0.6501100     0.4122580    -1.4678430
  H        1.1192750    -1.8168460    -0.6997980
  H        1.4281670    -1.2902280     0.8311830
  H        2.4275310    -0.8373030    -0.4139920
  H        1.0902905     1.2294531     1.4793772
  H        0.4939250     2.2572030     0.1746130
  H        2.1464930     1.6243000     0.1133420
  H       -2.5686030     0.5447890    -0.0239170
units angstrom
no_reorient  #important for SAPT in psi4, default
symmetry c1  #important for SAPT in psi4, default
}

set PROPERTIES_ORIGIN ["COM"]
properties('MP2/aug-cc-pvtz', properties = ['dipole'])
--------------------------------------------------------------------------

    Molecular point group: c1
  Charge       = 1
  Multiplicity = 1
  Basis Set: AUG-CC-PVTZ
    Blend: AUG-CC-PVTZ
  Basis Set: (AUG-CC-PVTZ AUX)
    Blend: AUG-CC-PVTZ-JKFIT

    Orbital Energies [Eh]
    ---------------------

    Doubly Occupied:

       1A    -20.786727     2A    -20.735544     3A    -15.897253
       4A    -11.577443     5A    -11.510415     6A    -11.416259
       7A     -1.638615     8A     -1.542790     9A     -1.509824
      10A     -1.255679    11A     -1.105330    12A     -1.013929
      13A     -0.974119    14A     -0.961339    15A     -0.888733
      16A     -0.858069    17A     -0.850084    18A     -0.810917
      19A     -0.770457    20A     -0.739364    21A     -0.733455
      22A     -0.721411    23A     -0.656956    24A     -0.635209

  @DF-RHF Final Energy:  -322.35574673552293

   => Energetics <=

    Nuclear Repulsion Energy =            259.6395734222346050
    One-Electron Energy =                -944.8108043522871640
    Two-Electron Energy =                 362.8154841945296880
    Total Energy =                       -322.3557467355229278
  Basis Set: (AUG-CC-PVTZ AUX)
    Blend: AUG-CC-PVTZ-RI
    Molecular point group: c1

    Geometry (in Angstrom), charge = 1, multiplicity = 1:

       Center              X                  Y                   Z               Mass
    ------------   -----------------  -----------------  -----------------  -----------------
         O           -1.589419635536     0.848145313605    -0.270785698973    15.994914619570
         O           -1.050870635536    -1.250126686395     0.441245301027    15.994914619570
         N            1.520320364464    -0.990043686395    -0.150642698973    14.003074004430
         C            0.683513664464     0.251011613605    -0.435304498973    12.000000000000
         C            1.191715364464     1.412424313605     0.405227301027    12.000000000000
         C           -0.749118635536    -0.163471686395    -0.024617698973    12.000000000000
         H            0.723093364464     0.431296313605    -1.462087698973     1.007825032230
         H            1.192258364464    -1.797807686395    -0.694042698973     1.007825032230
         H            1.501150364464    -1.271189686395     0.836938301027     1.007825032230
         H            2.500514364464    -0.818264686395    -0.408236698973     1.007825032230
         H            1.163273864464     1.248491413605     1.485132501027     1.007825032230
         H            0.566908364464     2.276241313605     0.180368301027     1.007825032230
         H            2.219476364464     1.643338313605     0.119097301027     1.007825032230
         H           -2.495619635536     0.563827313605    -0.018161698973     1.007825032230

  Basis Set: AUG-CC-PVTZ
    Blend: AUG-CC-PVTZ
  Basis Set: (AUG-CC-PVTZ AUX)
    Blend: AUG-CC-PVTZ-JKFIT
	 Reference Energy          =    -322.3557467355229278 [Eh]
	 Singles Energy            =      -0.0000000000000000 [Eh]
	 Same-Spin Energy          =      -0.3114409181792984 [Eh]
	 Opposite-Spin Energy      =      -0.9977356602619452 [Eh]
	 Correlation Energy        =      -1.3091765784412437 [Eh]
	 Total Energy              =    -323.6649233139641524 [Eh]

	 ================> DF-SCS-MP2 Energies <==================
	-----------------------------------------------------------
	 SCS Same-Spin Scale       =       0.3333333333333333 [-]
	 SCS Opposite-Spin Scale   =       1.2000000000000000 [-]
	 SCS Same-Spin Energy      =      -0.1038136393930995 [Eh]
	 SCS Opposite-Spin Energy  =      -1.1972827923143341 [Eh]
	 SCS Correlation Energy    =      -1.3010964317074336 [Eh]
	 SCS Total Energy          =    -323.6568431672303632 [Eh]
	-----------------------------------------------------------

  Dipole Moment: [D]
     X:     5.6184      Y:    -1.1910      Z:    -1.0696     Total:     5.8420

*** Psi4 exiting successfully. Buy a developer a beer!
