                               Psi4 1.3.2 release

  ==> Input File <==

--------------------------------------------------------------------------
#psi4
#
memory 32 gb

molecule  {
1 1
  O       -1.6624030     0.8291070    -0.2765410
  O       -1.1238540    -1.2691650     0.4354900
  N        1.4473370    -1.0090820    -0.1563980
  C        0.6010380     0.2049760    -0.3963400
  C        1.1187320     1.3933860     0.3994720
  C       -0.7726428    -0.0043999    -0.1067311
  H        0.6501100     0.4122580    -1.4678430
  H        1.1192750    -1.8168460    -0.6997980
  H        1.4281670    -1.2902280     0.8311830
  H        2.4275310    -0.8373030    -0.4139920
  H        1.0757850     1.1947520     1.4730540
  H        0.4939250     2.2572030     0.1746130
  H        2.1464930     1.6243000     0.1133420
  H       -2.5686030     0.5447890    -0.0239170
units angstrom
no_reorient  #important for SAPT in psi4, default
symmetry c1  #important for SAPT in psi4, default
}

set PROPERTIES_ORIGIN ["COM"]
properties('MP2/aug-cc-pvtz', properties = ['dipole'])
--------------------------------------------------------------------------

    Molecular point group: c1
  Charge       = 1
  Multiplicity = 1
  Basis Set: AUG-CC-PVTZ
    Blend: AUG-CC-PVTZ
  Basis Set: (AUG-CC-PVTZ AUX)
    Blend: AUG-CC-PVTZ-JKFIT

    Orbital Energies [Eh]
    ---------------------

    Doubly Occupied:

       1A    -20.820280     2A    -20.695019     3A    -15.904304
       4A    -11.585889     5A    -11.515941     6A    -11.425419
       7A     -1.689110     8A     -1.528633     9A     -1.423162
      10A     -1.284183    11A     -1.130069    12A     -1.053195
      13A     -0.987940    14A     -0.967478    15A     -0.907642
      16A     -0.880752    17A     -0.861158    18A     -0.827819
      19A     -0.762506    20A     -0.745046    21A     -0.730288
      22A     -0.681872    23A     -0.606056    24A     -0.592682

  @DF-RHF Final Energy:  -322.29081907152499

   => Energetics <=

    Nuclear Repulsion Energy =            260.4010914247189135
    One-Electron Energy =                -946.1709360290451514
    Two-Electron Energy =                 363.4790255328011881
    Total Energy =                       -322.2908190715249930
  Basis Set: (AUG-CC-PVTZ AUX)
    Blend: AUG-CC-PVTZ-RI
    Molecular point group: c1

    Geometry (in Angstrom), charge = 1, multiplicity = 1:

       Center              X                  Y                   Z               Mass
    ------------   -----------------  -----------------  -----------------  -----------------
         O           -1.594582937898     0.828397703591    -0.266499094998    15.994914619570
         O           -1.056033937898    -1.269874296409     0.445531905002    15.994914619570
         N            1.515157062102    -1.009791296409    -0.146356094998    14.003074004430
         C            0.668858062102     0.204266703591    -0.386298094998    12.000000000000
         C            1.186552062102     1.392676703591     0.409513905002    12.000000000000
         C           -0.704822737898    -0.005109196409    -0.096689194998    12.000000000000
         H            0.717930062102     0.411548703591    -1.457801094998     1.007825032230
         H            1.187095062102    -1.817555296409    -0.689756094998     1.007825032230
         H            1.495987062102    -1.290937296409     0.841224905002     1.007825032230
         H            2.495351062102    -0.838012296409    -0.403950094998     1.007825032230
         H            1.143605062102     1.194042703591     1.483095905002     1.007825032230
         H            0.561745062102     2.256493703591     0.184654905002     1.007825032230
         H            2.214313062102     1.623590703591     0.123383905002     1.007825032230
         H           -2.500782937898     0.544079703591    -0.013875094998     1.007825032230

  Basis Set: AUG-CC-PVTZ
    Blend: AUG-CC-PVTZ
  Basis Set: (AUG-CC-PVTZ AUX)
    Blend: AUG-CC-PVTZ-JKFIT
	 Reference Energy          =    -322.2908190715249930 [Eh]
	 Singles Energy            =      -0.0000000000000000 [Eh]
	 Same-Spin Energy          =      -0.3159941727750058 [Eh]
	 Opposite-Spin Energy      =      -1.0052773247808668 [Eh]
	 Correlation Energy        =      -1.3212714975558726 [Eh]
	 Total Energy              =    -323.6120905690808627 [Eh]

	 ================> DF-SCS-MP2 Energies <==================
	-----------------------------------------------------------
	 SCS Same-Spin Scale       =       0.3333333333333333 [-]
	 SCS Opposite-Spin Scale   =       1.2000000000000000 [-]
	 SCS Same-Spin Energy      =      -0.1053313909250019 [Eh]
	 SCS Opposite-Spin Energy  =      -1.2063327897370402 [Eh]
	 SCS Correlation Energy    =      -1.3116641806620422 [Eh]
	 SCS Total Energy          =    -323.6024832521870280 [Eh]
	-----------------------------------------------------------

  Dipole Moment: [D]
     X:     5.6356      Y:    -0.1576      Z:    -1.4507     Total:     5.8215

*** Psi4 exiting successfully. Buy a developer a beer!
