                               Psi4 1.3.2 release

  ==> Input File <==

--------------------------------------------------------------------------
#psi4
#
memory 32 gb

molecule  {
1 1
  O       -1.6624030     0.8291070    -0.2765410
  O       -1.1238540    -1.2691650     0.4354900
  N        1.4473370    -1.0090820    -0.1563980
  C        0.6010380     0.2049760    -0.3963400
  C        1.1187320     1.3933860     0.3994720
  C       -0.8183861    -0.1839889    -0.0177288
  H        0.6594062     0.4141969    -1.4669998
  H        1.1192750    -1.8168460    -0.6997980
  H        1.4281670    -1.2902280     0.8311830
  H        2.4275310    -0.8373030    -0.4139920
  H        1.0757850     1.1947520     1.4730540
  H        0.4939250     2.2572030     0.1746130
  H        2.1464930     1.6243000     0.1133420
  H       -2.5686030     0.5447890    -0.0239170
units angstrom
no_reorient  #important for SAPT in psi4, default
symmetry c1  #important for SAPT in psi4, default
}

set PROPERTIES_ORIGIN ["COM"]
properties('MP2/aug-cc-pvtz', properties = ['dipole'])
--------------------------------------------------------------------------

    Molecular point group: c1
  Charge       = 1
  Multiplicity = 1
  Basis Set: AUG-CC-PVTZ
    Blend: AUG-CC-PVTZ
  Basis Set: (AUG-CC-PVTZ AUX)
    Blend: AUG-CC-PVTZ-JKFIT

    Orbital Energies [Eh]
    ---------------------

    Doubly Occupied:

       1A    -20.785249     2A    -20.735819     3A    -15.900464
       4A    -11.575942     5A    -11.509292     6A    -11.416367
       7A     -1.638286     8A     -1.545185     9A     -1.516331
      10A     -1.256045    11A     -1.106988    12A     -1.011963
      13A     -0.979167    14A     -0.965723    15A     -0.886966
      16A     -0.859615    17A     -0.847666    18A     -0.811144
      19A     -0.772333    20A     -0.736736    21A     -0.733844
      22A     -0.716865    23A     -0.657989    24A     -0.637368

  @DF-RHF Final Energy:  -322.35903773449945

   => Energetics <=

    Nuclear Repulsion Energy =            260.2886839970428241
    One-Electron Energy =                -946.0887481685400644
    Two-Electron Energy =                 363.4410264369978449
    Total Energy =                       -322.3590377344994522
  Basis Set: (AUG-CC-PVTZ AUX)
    Blend: AUG-CC-PVTZ-RI
    Molecular point group: c1

    Geometry (in Angstrom), charge = 1, multiplicity = 1:

       Center              X                  Y                   Z               Mass
    ------------   -----------------  -----------------  -----------------  -----------------
         O           -1.588591625475     0.852306447025    -0.278368190795    15.994914619570
         O           -1.050042625475    -1.245965552975     0.433662809205    15.994914619570
         N            1.521148374525    -0.985882552975    -0.158225190795    14.003074004430
         C            0.674849374525     0.228175447025    -0.398167190795    12.000000000000
         C            1.192543374525     1.416585447025     0.397644809205    12.000000000000
         C           -0.744574725475    -0.160789452975    -0.019555990795    12.000000000000
         H            0.733217574525     0.437396347025    -1.468826990795     1.007825032230
         H            1.193086374525    -1.793646552975    -0.701625190795     1.007825032230
         H            1.501978374525    -1.267028552975     0.829355809205     1.007825032230
         H            2.501342374525    -0.814103552975    -0.415819190795     1.007825032230
         H            1.149596374525     1.217951447025     1.471226809205     1.007825032230
         H            0.567736374525     2.280402447025     0.172785809205     1.007825032230
         H            2.220304374525     1.647499447025     0.111514809205     1.007825032230
         H           -2.494791625475     0.567988447025    -0.025744190795     1.007825032230

  Basis Set: AUG-CC-PVTZ
    Blend: AUG-CC-PVTZ
  Basis Set: (AUG-CC-PVTZ AUX)
    Blend: AUG-CC-PVTZ-JKFIT
	 Reference Energy          =    -322.3590377344994522 [Eh]
	 Singles Energy            =      -0.0000000000000000 [Eh]
	 Same-Spin Energy          =      -0.3115289945474816 [Eh]
	 Opposite-Spin Energy      =      -0.9975549298310949 [Eh]
	 Correlation Energy        =      -1.3090839243785766 [Eh]
	 Total Energy              =    -323.6681216588780217 [Eh]

	 ================> DF-SCS-MP2 Energies <==================
	-----------------------------------------------------------
	 SCS Same-Spin Scale       =       0.3333333333333333 [-]
	 SCS Opposite-Spin Scale   =       1.2000000000000000 [-]
	 SCS Same-Spin Energy      =      -0.1038429981824939 [Eh]
	 SCS Opposite-Spin Energy  =      -1.1970659157973138 [Eh]
	 SCS Correlation Energy    =      -1.3009089139798076 [Eh]
	 SCS Total Energy          =    -323.6599466484792629 [Eh]
	-----------------------------------------------------------

  Dipole Moment: [D]
     X:     5.7045      Y:    -1.2562      Z:    -1.0706     Total:     5.9385

*** Psi4 exiting successfully. Buy a developer a beer!
