                               Psi4 1.3.2 release

  ==> Input File <==

--------------------------------------------------------------------------
#psi4
#
memory 32 gb

molecule  {
1 1
  O       -1.6624030     0.8291070    -0.2765410
  O       -1.1238540    -1.2691650     0.4354900
  N        1.4473370    -1.0090820    -0.1563980
  C        0.6010380     0.2049760    -0.3963400
  C        1.1187320     1.3933860     0.3994720
  C       -0.8582804    -0.2077557    -0.0150529
  H        0.6501100     0.4122580    -1.4678430
  H        1.1192750    -1.8168460    -0.6997980
  H        1.4281670    -1.2902280     0.8311830
  H        2.4275310    -0.8373030    -0.4139920
  H        1.0757850     1.1947520     1.4730540
  H        0.4939250     2.2572030     0.1746130
  H        2.1464930     1.6243000     0.1133420
  H       -2.5557949     0.5143852    -0.0145198
units angstrom
no_reorient  #important for SAPT in psi4, default
symmetry c1  #important for SAPT in psi4, default
}

set PROPERTIES_ORIGIN ["COM"]
properties('MP2/aug-cc-pvtz', properties = ['dipole'])
--------------------------------------------------------------------------

    Molecular point group: c1
  Charge       = 1
  Multiplicity = 1
  Basis Set: AUG-CC-PVTZ
    Blend: AUG-CC-PVTZ
  Basis Set: (AUG-CC-PVTZ AUX)
    Blend: AUG-CC-PVTZ-JKFIT

    Orbital Energies [Eh]
    ---------------------

    Doubly Occupied:

       1A    -20.787881     2A    -20.739839     3A    -15.897870
       4A    -11.573498     5A    -11.505086     6A    -11.413124
       7A     -1.650985     8A     -1.560885     9A     -1.516081
      10A     -1.246531    11A     -1.098849    12A     -1.007322
      13A     -0.975654    14A     -0.963468    15A     -0.893191
      16A     -0.859845    17A     -0.847327    18A     -0.816326
      19A     -0.775586    20A     -0.737706    21A     -0.733771
      22A     -0.714784    23A     -0.668980    24A     -0.633881

  @DF-RHF Final Energy:  -322.35929042541875

   => Energetics <=

    Nuclear Repulsion Energy =            260.3311774429395200
    One-Electron Energy =                -946.1439951600465292
    Two-Electron Energy =                 363.4535272916882604
    Total Energy =                       -322.3592904254187488
  Basis Set: (AUG-CC-PVTZ AUX)
    Blend: AUG-CC-PVTZ-RI
    Molecular point group: c1

    Geometry (in Angstrom), charge = 1, multiplicity = 1:

       Center              X                  Y                   Z               Mass
    ------------   -----------------  -----------------  -----------------  -----------------
         O           -1.583314966073     0.855835352759    -0.278820486698    15.994914619570
         O           -1.044765966073    -1.242436647241     0.433210513302    15.994914619570
         N            1.526425033927    -0.982353647241    -0.158677486698    14.003074004430
         C            0.680126033927     0.231704352759    -0.398619486698    12.000000000000
         C            1.197820033927     1.420114352759     0.397192513302    12.000000000000
         C           -0.779192366073    -0.181027347241    -0.017332386698    12.000000000000
         H            0.729198033927     0.438986352759    -1.470122486698     1.007825032230
         H            1.198363033927    -1.790117647241    -0.702077486698     1.007825032230
         H            1.507255033927    -1.263499647241     0.828903513302     1.007825032230
         H            2.506619033927    -0.810574647241    -0.416271486698     1.007825032230
         H            1.154873033927     1.221480352759     1.470774513302     1.007825032230
         H            0.573013033927     2.283931352759     0.172333513302     1.007825032230
         H            2.225581033927     1.651028352759     0.111062513302     1.007825032230
         H           -2.476706866073     0.541113552759    -0.016799286698     1.007825032230

  Basis Set: AUG-CC-PVTZ
    Blend: AUG-CC-PVTZ
  Basis Set: (AUG-CC-PVTZ AUX)
    Blend: AUG-CC-PVTZ-JKFIT
	 Reference Energy          =    -322.3592904254187488 [Eh]
	 Singles Energy            =      -0.0000000000000000 [Eh]
	 Same-Spin Energy          =      -0.3108018978710895 [Eh]
	 Opposite-Spin Energy      =      -0.9960625860781434 [Eh]
	 Correlation Energy        =      -1.3068644839492329 [Eh]
	 Total Energy              =    -323.6661549093680037 [Eh]

	 ================> DF-SCS-MP2 Energies <==================
	-----------------------------------------------------------
	 SCS Same-Spin Scale       =       0.3333333333333333 [-]
	 SCS Opposite-Spin Scale   =       1.2000000000000000 [-]
	 SCS Same-Spin Energy      =      -0.1036006326236965 [Eh]
	 SCS Opposite-Spin Energy  =      -1.1952751032937721 [Eh]
	 SCS Correlation Energy    =      -1.2988757359174685 [Eh]
	 SCS Total Energy          =    -323.6581661613362257 [Eh]
	-----------------------------------------------------------

  Dipole Moment: [D]
     X:     5.5372      Y:    -1.4117      Z:    -1.0105     Total:     5.8030

*** Psi4 exiting successfully. Buy a developer a beer!
