                               Psi4 1.3.2 release

  ==> Input File <==

--------------------------------------------------------------------------
#psi4
#
memory 32 gb

molecule  {
1 1
  O       -1.6624030     0.8291070    -0.2765410
  O       -1.1644973    -1.2564965     0.4367675
  N        1.4473370    -1.0090820    -0.1563980
  C        0.5831230     0.2524002    -0.4119493
  C        1.1187320     1.3933860     0.3994720
  C       -0.8221020    -0.1825100    -0.0303730
  H        0.6501100     0.4122580    -1.4678430
  H        1.1192750    -1.8168460    -0.6997980
  H        1.4281670    -1.2902280     0.8311830
  H        2.4275310    -0.8373030    -0.4139920
  H        1.0757850     1.1947520     1.4730540
  H        0.4939250     2.2572030     0.1746130
  H        2.1464930     1.6243000     0.1133420
  H       -2.5686030     0.5447890    -0.0239170
units angstrom
no_reorient  #important for SAPT in psi4, default
symmetry c1  #important for SAPT in psi4, default
}

set PROPERTIES_ORIGIN ["COM"]
properties('MP2/aug-cc-pvtz', properties = ['dipole'])
--------------------------------------------------------------------------

    Molecular point group: c1
  Charge       = 1
  Multiplicity = 1
  Basis Set: AUG-CC-PVTZ
    Blend: AUG-CC-PVTZ
  Basis Set: (AUG-CC-PVTZ AUX)
    Blend: AUG-CC-PVTZ-JKFIT

    Orbital Energies [Eh]
    ---------------------

    Doubly Occupied:

       1A    -20.783681     2A    -20.735626     3A    -15.895288
       4A    -11.576694     5A    -11.514933     6A    -11.417548
       7A     -1.639719     8A     -1.539304     9A     -1.505408
      10A     -1.263750    11A     -1.110717    12A     -1.009625
      13A     -0.971943    14A     -0.958497    15A     -0.886542
      16A     -0.860037    17A     -0.843648    18A     -0.813575
      19A     -0.773426    20A     -0.741947    21A     -0.734988
      22A     -0.722668    23A     -0.655340    24A     -0.638552

  @DF-RHF Final Energy:  -322.35572165839676

   => Energetics <=

    Nuclear Repulsion Energy =            259.8045728891481190
    One-Electron Energy =                -945.1336766791870332
    Two-Electron Energy =                 362.9733821316422109
    Total Energy =                       -322.3557216583967602
  Basis Set: (AUG-CC-PVTZ AUX)
    Blend: AUG-CC-PVTZ-RI
    Molecular point group: c1

    Geometry (in Angstrom), charge = 1, multiplicity = 1:

       Center              X                  Y                   Z               Mass
    ------------   -----------------  -----------------  -----------------  -----------------
         O           -1.578386520615     0.843561676597    -0.274820841857    15.994914619570
         O           -1.080480820615    -1.242041823403     0.438487658143    15.994914619570
         N            1.531353479385    -0.994627323403    -0.154677841857    14.003074004430
         C            0.667139479385     0.266854876597    -0.410229141857    12.000000000000
         C            1.202748479385     1.407840676597     0.401192158143    12.000000000000
         C           -0.738085520615    -0.168055323403    -0.028652841857    12.000000000000
         H            0.734126479385     0.426712676597    -1.466122841857     1.007825032230
         H            1.203291479385    -1.802391323403    -0.698077841857     1.007825032230
         H            1.512183479385    -1.275773323403     0.832903158143     1.007825032230
         H            2.511547479385    -0.822848323403    -0.412271841857     1.007825032230
         H            1.159801479385     1.209206676597     1.474774158143     1.007825032230
         H            0.577941479385     2.271657676597     0.176333158143     1.007825032230
         H            2.230509479385     1.638754676597     0.115062158143     1.007825032230
         H           -2.484586520615     0.559243676597    -0.022196841857     1.007825032230

  Basis Set: AUG-CC-PVTZ
    Blend: AUG-CC-PVTZ
  Basis Set: (AUG-CC-PVTZ AUX)
    Blend: AUG-CC-PVTZ-JKFIT
	 Reference Energy          =    -322.3557216583967602 [Eh]
	 Singles Energy            =      -0.0000000000000000 [Eh]
	 Same-Spin Energy          =      -0.3115879133410210 [Eh]
	 Opposite-Spin Energy      =      -0.9980340418122752 [Eh]
	 Correlation Energy        =      -1.3096219551532962 [Eh]
	 Total Energy              =    -323.6653436135500783 [Eh]

	 ================> DF-SCS-MP2 Energies <==================
	-----------------------------------------------------------
	 SCS Same-Spin Scale       =       0.3333333333333333 [-]
	 SCS Opposite-Spin Scale   =       1.2000000000000000 [-]
	 SCS Same-Spin Energy      =      -0.1038626377803403 [Eh]
	 SCS Opposite-Spin Energy  =      -1.1976408501747302 [Eh]
	 SCS Correlation Energy    =      -1.3015034879550706 [Eh]
	 SCS Total Energy          =    -323.6572251463518342 [Eh]
	-----------------------------------------------------------

  Dipole Moment: [D]
     X:     5.7590      Y:    -1.1580      Z:    -1.0841     Total:     5.9735

*** Psi4 exiting successfully. Buy a developer a beer!
