                               Psi4 1.3.2 release

  ==> Input File <==

--------------------------------------------------------------------------
#psi4
#
memory 32 gb

molecule  {
1 1
  O       -1.6624030     0.8291070    -0.2765410
  O       -1.1238540    -1.2691650     0.4354900
  N        1.4473370    -1.0090820    -0.1563980
  C        0.6010380     0.2049760    -0.3963400
  C        1.1187320     1.3933860     0.3994720
  C       -0.7981908    -0.1909366     0.0450403
  H        0.7058062     0.4236494    -1.4615621
  H        1.1192750    -1.8168460    -0.6997980
  H        1.4281670    -1.2902280     0.8311830
  H        2.4275310    -0.8373030    -0.4139920
  H        1.0757850     1.1947520     1.4730540
  H        0.4939250     2.2572030     0.1746130
  H        2.1464930     1.6243000     0.1133420
  H       -2.5686030     0.5447890    -0.0239170
units angstrom
no_reorient  #important for SAPT in psi4, default
symmetry c1  #important for SAPT in psi4, default
}

set PROPERTIES_ORIGIN ["COM"]
properties('MP2/aug-cc-pvtz', properties = ['dipole'])
--------------------------------------------------------------------------

    Molecular point group: c1
  Charge       = 1
  Multiplicity = 1
  Basis Set: AUG-CC-PVTZ
    Blend: AUG-CC-PVTZ
  Basis Set: (AUG-CC-PVTZ AUX)
    Blend: AUG-CC-PVTZ-JKFIT

    Orbital Energies [Eh]
    ---------------------

    Doubly Occupied:

       1A    -20.776793     2A    -20.742983     3A    -15.900646
       4A    -11.575762     5A    -11.509914     6A    -11.415853
       7A     -1.637980     8A     -1.544993     9A     -1.519593
      10A     -1.256638    11A     -1.104203    12A     -1.010253
      13A     -0.977146    14A     -0.966158    15A     -0.888251
      16A     -0.858396    17A     -0.845721    18A     -0.809448
      19A     -0.774575    20A     -0.737245    21A     -0.733077
      22A     -0.716551    23A     -0.663244    24A     -0.639924

  @DF-RHF Final Energy:  -322.35465625508846

   => Energetics <=

    Nuclear Repulsion Energy =            260.3718926030772991
    One-Electron Energy =                -946.2424060458012036
    Two-Electron Energy =                 363.5158571876354472
    Total Energy =                       -322.3546562550884573
  Basis Set: (AUG-CC-PVTZ AUX)
    Blend: AUG-CC-PVTZ-RI
    Molecular point group: c1

    Geometry (in Angstrom), charge = 1, multiplicity = 1:

       Center              X                  Y                   Z               Mass
    ------------   -----------------  -----------------  -----------------  -----------------
         O           -1.591801942116     0.853126451700    -0.286793100108    15.994914619570
         O           -1.053252942116    -1.245145548300     0.425237899892    15.994914619570
         N            1.517938057884    -0.985062548300    -0.166650100108    14.003074004430
         C            0.671639057884     0.228995451700    -0.406592100108    12.000000000000
         C            1.189333057884     1.417405451700     0.389219899892    12.000000000000
         C           -0.727589742116    -0.166917148300     0.034788199892    12.000000000000
         H            0.776407257884     0.447668851700    -1.471814200108     1.007825032230
         H            1.189876057884    -1.792826548300    -0.710050100108     1.007825032230
         H            1.498768057884    -1.266208548300     0.820930899892     1.007825032230
         H            2.498132057884    -0.813283548300    -0.424244100108     1.007825032230
         H            1.146386057884     1.218771451700     1.462801899892     1.007825032230
         H            0.564526057884     2.281222451700     0.164360899892     1.007825032230
         H            2.217094057884     1.648319451700     0.103089899892     1.007825032230
         H           -2.498001942116     0.568808451700    -0.034169100108     1.007825032230

  Basis Set: AUG-CC-PVTZ
    Blend: AUG-CC-PVTZ
  Basis Set: (AUG-CC-PVTZ AUX)
    Blend: AUG-CC-PVTZ-JKFIT
	 Reference Energy          =    -322.3546562550884573 [Eh]
	 Singles Energy            =      -0.0000000000000000 [Eh]
	 Same-Spin Energy          =      -0.3114069440523182 [Eh]
	 Opposite-Spin Energy      =      -0.9977075147461554 [Eh]
	 Correlation Energy        =      -1.3091144587984735 [Eh]
	 Total Energy              =    -323.6637707138869473 [Eh]

	 ================> DF-SCS-MP2 Energies <==================
	-----------------------------------------------------------
	 SCS Same-Spin Scale       =       0.3333333333333333 [-]
	 SCS Opposite-Spin Scale   =       1.2000000000000000 [-]
	 SCS Same-Spin Energy      =      -0.1038023146841061 [Eh]
	 SCS Opposite-Spin Energy  =      -1.1972490176953865 [Eh]
	 SCS Correlation Energy    =      -1.3010513323794926 [Eh]
	 SCS Total Energy          =    -323.6557075874679299 [Eh]
	-----------------------------------------------------------

  Dipole Moment: [D]
     X:     5.8216      Y:    -1.4477      Z:    -0.9790     Total:     6.0783

*** Psi4 exiting successfully. Buy a developer a beer!
