                               Psi4 1.3.2 release

  ==> Input File <==

--------------------------------------------------------------------------
#psi4
#
memory 32 gb

molecule  {
1 1
  O       -1.6624030     0.8291070    -0.2765410
  O       -1.1238540    -1.2691650     0.4354900
  N        1.4528303    -1.0100235    -0.1819640
  C        0.6010380     0.2049760    -0.3963400
  C        1.1187320     1.3933860     0.3994720
  C       -0.8221020    -0.1825100    -0.0303730
  H        0.6615866     0.3971943    -1.4700618
  H        1.1192750    -1.8168460    -0.6997980
  H        1.4281670    -1.2902280     0.8311830
  H        2.4275310    -0.8373030    -0.4139920
  H        1.0757850     1.1947520     1.4730540
  H        0.4939250     2.2572030     0.1746130
  H        2.1464930     1.6243000     0.1133420
  H       -2.5686030     0.5447890    -0.0239170
units angstrom
no_reorient  #important for SAPT in psi4, default
symmetry c1  #important for SAPT in psi4, default
}

set PROPERTIES_ORIGIN ["COM"]
properties('MP2/aug-cc-pvtz', properties = ['dipole'])
--------------------------------------------------------------------------

    Molecular point group: c1
  Charge       = 1
  Multiplicity = 1
  Basis Set: AUG-CC-PVTZ
    Blend: AUG-CC-PVTZ
  Basis Set: (AUG-CC-PVTZ AUX)
    Blend: AUG-CC-PVTZ-JKFIT

    Orbital Energies [Eh]
    ---------------------

    Doubly Occupied:

       1A    -20.787169     2A    -20.734794     3A    -15.900011
       4A    -11.576656     5A    -11.509315     6A    -11.416990
       7A     -1.639372     8A     -1.544327     9A     -1.515640
      10A     -1.255975    11A     -1.107993    12A     -1.011914
      13A     -0.979203    14A     -0.968358    15A     -0.885814
      16A     -0.862044    17A     -0.843029    18A     -0.812039
      19A     -0.772269    20A     -0.737992    21A     -0.734309
      22A     -0.716498    23A     -0.656768    24A     -0.636955

  @DF-RHF Final Energy:  -322.35801226049688

   => Energetics <=

    Nuclear Repulsion Energy =            260.1480927937748788
    One-Electron Energy =                -945.8013460928478935
    Two-Electron Energy =                 363.2952410385760800
    Total Energy =                       -322.3580122604968778
  Basis Set: (AUG-CC-PVTZ AUX)
    Blend: AUG-CC-PVTZ-RI
    Molecular point group: c1

    Geometry (in Angstrom), charge = 1, multiplicity = 1:

       Center              X                  Y                   Z               Mass
    ------------   -----------------  -----------------  -----------------  -----------------
         O           -1.588975052881     0.852446058038    -0.272673714274    15.994914619570
         O           -1.050426052881    -1.245825941962     0.439357285726    15.994914619570
         N            1.526258247119    -0.986684441962    -0.178096714274    14.003074004430
         C            0.674465947119     0.228315058038    -0.392472714274    12.000000000000
         C            1.192159947119     1.416725058038     0.403339285726    12.000000000000
         C           -0.748674052881    -0.159170941962    -0.026505714274    12.000000000000
         H            0.735014547119     0.420533358038    -1.466194514274     1.007825032230
         H            1.192702947119    -1.793506941962    -0.695930714274     1.007825032230
         H            1.501594947119    -1.266888941962     0.835050285726     1.007825032230
         H            2.500958947119    -0.813963941962    -0.410124714274     1.007825032230
         H            1.149212947119     1.218091058038     1.476921285726     1.007825032230
         H            0.567352947119     2.280542058038     0.178480285726     1.007825032230
         H            2.219920947119     1.647639058038     0.117209285726     1.007825032230
         H           -2.495175052881     0.568128058038    -0.020049714274     1.007825032230

  Basis Set: AUG-CC-PVTZ
    Blend: AUG-CC-PVTZ
  Basis Set: (AUG-CC-PVTZ AUX)
    Blend: AUG-CC-PVTZ-JKFIT
	 Reference Energy          =    -322.3580122604968778 [Eh]
	 Singles Energy            =      -0.0000000000000000 [Eh]
	 Same-Spin Energy          =      -0.3116163242534251 [Eh]
	 Opposite-Spin Energy      =      -0.9977051750356840 [Eh]
	 Correlation Energy        =      -1.3093214992891091 [Eh]
	 Total Energy              =    -323.6673337597860041 [Eh]

	 ================> DF-SCS-MP2 Energies <==================
	-----------------------------------------------------------
	 SCS Same-Spin Scale       =       0.3333333333333333 [-]
	 SCS Opposite-Spin Scale   =       1.2000000000000000 [-]
	 SCS Same-Spin Energy      =      -0.1038721080844750 [Eh]
	 SCS Opposite-Spin Energy  =      -1.1972462100428207 [Eh]
	 SCS Correlation Energy    =      -1.3011183181272958 [Eh]
	 SCS Total Energy          =    -323.6591305786241719 [Eh]
	-----------------------------------------------------------

  Dipole Moment: [D]
     X:     5.6709      Y:    -1.2118      Z:    -1.0482     Total:     5.8929

*** Psi4 exiting successfully. Buy a developer a beer!
