                               Psi4 1.3.2 release

  ==> Input File <==

--------------------------------------------------------------------------
#psi4
#
memory 32 gb

molecule  {
1 1
  O       -1.6975956     0.8025389    -0.2611610
  O       -1.1238540    -1.2691650     0.4354900
  N        1.4473370    -1.0090820    -0.1563980
  C        0.6171234     0.1568435    -0.3809071
  C        1.1187320     1.3933860     0.3994720
  C       -0.8221020    -0.1825100    -0.0303730
  H        0.6501100     0.4122580    -1.4678430
  H        1.1192750    -1.8168460    -0.6997980
  H        1.4281670    -1.2902280     0.8311830
  H        2.4275310    -0.8373030    -0.4139920
  H        1.0757850     1.1947520     1.4730540
  H        0.4939250     2.2572030     0.1746130
  H        2.1464930     1.6243000     0.1133420
  H       -2.5686030     0.5447890    -0.0239170
units angstrom
no_reorient  #important for SAPT in psi4, default
symmetry c1  #important for SAPT in psi4, default
}

set PROPERTIES_ORIGIN ["COM"]
properties('MP2/aug-cc-pvtz', properties = ['dipole'])
--------------------------------------------------------------------------

    Molecular point group: c1
  Charge       = 1
  Multiplicity = 1
  Basis Set: AUG-CC-PVTZ
    Blend: AUG-CC-PVTZ
  Basis Set: (AUG-CC-PVTZ AUX)
    Blend: AUG-CC-PVTZ-JKFIT

    Orbital Energies [Eh]
    ---------------------

    Doubly Occupied:

       1A    -20.780655     2A    -20.730475     3A    -15.907440
       4A    -11.575375     5A    -11.509257     6A    -11.418178
       7A     -1.642073     8A     -1.550216     9A     -1.525287
      10A     -1.251758    11A     -1.108634    12A     -1.025293
      13A     -0.991251    14A     -0.975384    15A     -0.886138
      16A     -0.872346    17A     -0.845572    18A     -0.809331
      19A     -0.769730    20A     -0.739136    21A     -0.728680
      22A     -0.709052    23A     -0.653616    24A     -0.634118

  @DF-RHF Final Energy:  -322.35659726007668

   => Energetics <=

    Nuclear Repulsion Energy =            260.5335200607535739
    One-Electron Energy =                -946.5022473741779550
    Two-Electron Energy =                 363.6121300533476415
    Total Energy =                       -322.3565972600766827
  Basis Set: (AUG-CC-PVTZ AUX)
    Blend: AUG-CC-PVTZ-RI
    Molecular point group: c1

    Geometry (in Angstrom), charge = 1, multiplicity = 1:

       Center              X                  Y                   Z               Mass
    ------------   -----------------  -----------------  -----------------  -----------------
         O           -1.619077821548     0.836695498167    -0.266082020466    15.994914619570
         O           -1.045336221548    -1.235008401833     0.430568979534    15.994914619570
         N            1.525854778452    -0.974925401833    -0.161319020466    14.003074004430
         C            0.695641178452     0.191000098167    -0.385828120466    12.000000000000
         C            1.197249778452     1.427542598167     0.394550979534    12.000000000000
         C           -0.743584221548    -0.148353401833    -0.035294020466    12.000000000000
         H            0.728627778452     0.446414598167    -1.472764020466     1.007825032230
         H            1.197792778452    -1.782689401833    -0.704719020466     1.007825032230
         H            1.506684778452    -1.256071401833     0.826261979534     1.007825032230
         H            2.506048778452    -0.803146401833    -0.418913020466     1.007825032230
         H            1.154302778452     1.228908598167     1.468132979534     1.007825032230
         H            0.572442778452     2.291359598167     0.169691979534     1.007825032230
         H            2.225010778452     1.658456598167     0.108420979534     1.007825032230
         H           -2.490085221548     0.578945598167    -0.028838020466     1.007825032230

  Basis Set: AUG-CC-PVTZ
    Blend: AUG-CC-PVTZ
  Basis Set: (AUG-CC-PVTZ AUX)
    Blend: AUG-CC-PVTZ-JKFIT
	 Reference Energy          =    -322.3565972600766827 [Eh]
	 Singles Energy            =      -0.0000000000000000 [Eh]
	 Same-Spin Energy          =      -0.3109120545560857 [Eh]
	 Opposite-Spin Energy      =      -0.9957773615571492 [Eh]
	 Correlation Energy        =      -1.3066894161132350 [Eh]
	 Total Energy              =    -323.6632866761898981 [Eh]

	 ================> DF-SCS-MP2 Energies <==================
	-----------------------------------------------------------
	 SCS Same-Spin Scale       =       0.3333333333333333 [-]
	 SCS Opposite-Spin Scale   =       1.2000000000000000 [-]
	 SCS Same-Spin Energy      =      -0.1036373515186952 [Eh]
	 SCS Opposite-Spin Energy  =      -1.1949328338685790 [Eh]
	 SCS Correlation Energy    =      -1.2985701853872742 [Eh]
	 SCS Total Energy          =    -323.6551674454639738 [Eh]
	-----------------------------------------------------------

  Dipole Moment: [D]
     X:     5.9039      Y:    -1.2557      Z:    -1.1247     Total:     6.1399

*** Psi4 exiting successfully. Buy a developer a beer!
