                               Psi4 1.3.2 release

  ==> Input File <==

--------------------------------------------------------------------------
#psi4
#
memory 32 gb

molecule  {
1 1
  O       -1.6624030     0.8291070    -0.2765410
  O       -1.1238540    -1.2691650     0.4354900
  N        1.4630369    -1.0107960    -0.2332840
  C        0.6010380     0.2049760    -0.3963400
  C        1.1187320     1.3933860     0.3994720
  C       -0.8221020    -0.1825100    -0.0303730
  H        0.6844809     0.3668959    -1.4735177
  H        1.1192750    -1.8168460    -0.6997980
  H        1.4281670    -1.2902280     0.8311830
  H        2.4275310    -0.8373030    -0.4139920
  H        1.0757850     1.1947520     1.4730540
  H        0.4939250     2.2572030     0.1746130
  H        2.1464930     1.6243000     0.1133420
  H       -2.5686030     0.5447890    -0.0239170
units angstrom
no_reorient  #important for SAPT in psi4, default
symmetry c1  #important for SAPT in psi4, default
}

set PROPERTIES_ORIGIN ["COM"]
properties('MP2/aug-cc-pvtz', properties = ['dipole'])
--------------------------------------------------------------------------

    Molecular point group: c1
  Charge       = 1
  Multiplicity = 1
  Basis Set: AUG-CC-PVTZ
    Blend: AUG-CC-PVTZ
  Basis Set: (AUG-CC-PVTZ AUX)
    Blend: AUG-CC-PVTZ-JKFIT

    Orbital Energies [Eh]
    ---------------------

    Doubly Occupied:

       1A    -20.787717     2A    -20.735521     3A    -15.899165
       4A    -11.577733     5A    -11.509627     6A    -11.417996
       7A     -1.639821     8A     -1.544533     9A     -1.516261
      10A     -1.256248    11A     -1.108964    12A     -1.013107
      13A     -0.989395    14A     -0.960650    15A     -0.884691
      16A     -0.865497    17A     -0.831997    18A     -0.812950
      19A     -0.773098    20A     -0.740508    21A     -0.734973
      22A     -0.715308    23A     -0.657247    24A     -0.637605

  @DF-RHF Final Energy:  -322.35032598102396

   => Energetics <=

    Nuclear Repulsion Energy =            259.9303517192102504
    One-Electron Energy =                -945.3401298542534050
    Two-Electron Energy =                 363.0594521540191408
    Total Energy =                       -322.3503259810239570
  Basis Set: (AUG-CC-PVTZ AUX)
    Blend: AUG-CC-PVTZ-RI
    Molecular point group: c1

    Geometry (in Angstrom), charge = 1, multiplicity = 1:

       Center              X                  Y                   Z               Mass
    ------------   -----------------  -----------------  -----------------  -----------------
         O           -1.590818329719     0.852905251080    -0.264655096062    15.994914619570
         O           -1.052269329719    -1.245366748920     0.447375903938    15.994914619570
         N            1.534621570281    -0.986997748920    -0.221398096062    14.003074004430
         C            0.672622670281     0.228774251080    -0.384454096062    12.000000000000
         C            1.190316670281     1.417184251080     0.411357903938    12.000000000000
         C           -0.750517329719    -0.158711748920    -0.018487096062    12.000000000000
         H            0.756065570281     0.390694151080    -1.461631796062     1.007825032230
         H            1.190859670281    -1.793047748920    -0.687912096062     1.007825032230
         H            1.499751670281    -1.266429748920     0.843068903938     1.007825032230
         H            2.499115670281    -0.813504748920    -0.402106096062     1.007825032230
         H            1.147369670281     1.218550251080     1.484939903938     1.007825032230
         H            0.565509670281     2.281001251080     0.186498903938     1.007825032230
         H            2.218077670281     1.648098251080     0.125227903938     1.007825032230
         H           -2.497018329719     0.568587251080    -0.012031096062     1.007825032230

  Basis Set: AUG-CC-PVTZ
    Blend: AUG-CC-PVTZ
  Basis Set: (AUG-CC-PVTZ AUX)
    Blend: AUG-CC-PVTZ-JKFIT
	 Reference Energy          =    -322.3503259810239570 [Eh]
	 Singles Energy            =      -0.0000000000000000 [Eh]
	 Same-Spin Energy          =      -0.3118131193736955 [Eh]
	 Opposite-Spin Energy      =      -0.9982399279378837 [Eh]
	 Correlation Energy        =      -1.3100530473115792 [Eh]
	 Total Energy              =    -323.6603790283355124 [Eh]

	 ================> DF-SCS-MP2 Energies <==================
	-----------------------------------------------------------
	 SCS Same-Spin Scale       =       0.3333333333333333 [-]
	 SCS Opposite-Spin Scale   =       1.2000000000000000 [-]
	 SCS Same-Spin Energy      =      -0.1039377064578985 [Eh]
	 SCS Opposite-Spin Energy  =      -1.1978879135254605 [Eh]
	 SCS Correlation Energy    =      -1.3018256199833591 [Eh]
	 SCS Total Energy          =    -323.6521516010072901 [Eh]
	-----------------------------------------------------------

  Dipole Moment: [D]
     X:     5.6463      Y:    -1.1977      Z:    -0.9717     Total:     5.8531

*** Psi4 exiting successfully. Buy a developer a beer!
