                               Psi4 1.3.2 release

  ==> Input File <==

--------------------------------------------------------------------------
#psi4
#
memory 32 gb

molecule  {
1 1
  O       -1.6800843     0.8160817    -0.2686046
  O       -1.1441786    -1.2628844     0.4364884
  N        1.4473370    -1.0090820    -0.1563980
  C        0.6010380     0.2049760    -0.3963400
  C        1.1187320     1.3933860     0.3994720
  C       -0.8221020    -0.1825100    -0.0303730
  H        0.6501100     0.4122580    -1.4678430
  H        1.1192750    -1.8168460    -0.6997980
  H        1.4281670    -1.2902280     0.8311830
  H        2.4275310    -0.8373030    -0.4139920
  H        1.0757850     1.1947520     1.4730540
  H        0.4939250     2.2572030     0.1746130
  H        2.1464930     1.6243000     0.1133420
  H       -2.5686030     0.5447890    -0.0239170
units angstrom
no_reorient  #important for SAPT in psi4, default
symmetry c1  #important for SAPT in psi4, default
}

set PROPERTIES_ORIGIN ["COM"]
properties('MP2/aug-cc-pvtz', properties = ['dipole'])
--------------------------------------------------------------------------

    Molecular point group: c1
  Charge       = 1
  Multiplicity = 1
  Basis Set: AUG-CC-PVTZ
    Blend: AUG-CC-PVTZ
  Basis Set: (AUG-CC-PVTZ AUX)
    Blend: AUG-CC-PVTZ-JKFIT

    Orbital Energies [Eh]
    ---------------------

    Doubly Occupied:

       1A    -20.782064     2A    -20.732995     3A    -15.902049
       4A    -11.575787     5A    -11.511673     6A    -11.417599
       7A     -1.640579     8A     -1.543007     9A     -1.516537
      10A     -1.257785    11A     -1.109412    12A     -1.016451
      13A     -0.981780    14A     -0.967047    15A     -0.885800
      16A     -0.862040    17A     -0.849117    18A     -0.811228
      19A     -0.771807    20A     -0.737756    21A     -0.733785
      22A     -0.717627    23A     -0.654485    24A     -0.636450

  @DF-RHF Final Energy:  -322.35964966777237

   => Energetics <=

    Nuclear Repulsion Energy =            260.1486534040972742
    One-Electron Energy =                -945.7868855677049851
    Two-Electron Energy =                 363.2785824958352805
    Total Energy =                       -322.3596496677723735
  Basis Set: (AUG-CC-PVTZ AUX)
    Blend: AUG-CC-PVTZ-RI
    Molecular point group: c1

    Geometry (in Angstrom), charge = 1, multiplicity = 1:

       Center              X                  Y                   Z               Mass
    ------------   -----------------  -----------------  -----------------  -----------------
         O           -1.598923448287     0.840303718317    -0.270324425508    15.994914619570
         O           -1.063017748287    -1.238662381683     0.434768574492    15.994914619570
         N            1.528497851713    -0.984859981683    -0.158117825508    14.003074004430
         C            0.682198851713     0.229198018317    -0.398059825508    12.000000000000
         C            1.199892851713     1.417608018317     0.397752174492    12.000000000000
         C           -0.740941148287    -0.158287981683    -0.032092825508    12.000000000000
         H            0.731270851713     0.436480018317    -1.469562825508     1.007825032230
         H            1.200435851713    -1.792623981683    -0.701517825508     1.007825032230
         H            1.509327851713    -1.266005981683     0.829463174492     1.007825032230
         H            2.508691851713    -0.813080981683    -0.415711825508     1.007825032230
         H            1.156945851713     1.218974018317     1.471334174492     1.007825032230
         H            0.575085851713     2.281425018317     0.172893174492     1.007825032230
         H            2.227653851713     1.648522018317     0.111622174492     1.007825032230
         H           -2.487442148287     0.569011018317    -0.025636825508     1.007825032230

  Basis Set: AUG-CC-PVTZ
    Blend: AUG-CC-PVTZ
  Basis Set: (AUG-CC-PVTZ AUX)
    Blend: AUG-CC-PVTZ-JKFIT
	 Reference Energy          =    -322.3596496677723735 [Eh]
	 Singles Energy            =      -0.0000000000000000 [Eh]
	 Same-Spin Energy          =      -0.3111461442955408 [Eh]
	 Opposite-Spin Energy      =      -0.9967109161352203 [Eh]
	 Correlation Energy        =      -1.3078570604307611 [Eh]
	 Total Energy              =    -323.6675067282031364 [Eh]

	 ================> DF-SCS-MP2 Energies <==================
	-----------------------------------------------------------
	 SCS Same-Spin Scale       =       0.3333333333333333 [-]
	 SCS Opposite-Spin Scale   =       1.2000000000000000 [-]
	 SCS Same-Spin Energy      =      -0.1037153814318469 [Eh]
	 SCS Opposite-Spin Energy  =      -1.1960530993622644 [Eh]
	 SCS Correlation Energy    =      -1.2997684807941114 [Eh]
	 SCS Total Energy          =    -323.6594181485664876 [Eh]
	-----------------------------------------------------------

  Dipole Moment: [D]
     X:     5.8375      Y:    -1.2187      Z:    -1.1065     Total:     6.0652

*** Psi4 exiting successfully. Buy a developer a beer!
