                               Psi4 1.3.2 release

  ==> Input File <==

--------------------------------------------------------------------------
#psi4
#
memory 32 gb

molecule  {
1 1
  O       -1.6624030     0.8291070    -0.2765410
  O       -1.1238540    -1.2691650     0.4354900
  N        1.4473370    -1.0090820    -0.1563980
  C        0.6010380     0.2049760    -0.3963400
  C        1.1187320     1.3933860     0.3994720
  C       -0.6964905    -0.3337305     0.0064252
  H        0.6501100     0.4122580    -1.4678430
  H        1.1192750    -1.8168460    -0.6997980
  H        1.4281670    -1.2902280     0.8311830
  H        2.4275310    -0.8373030    -0.4139920
  H        1.0757850     1.1947520     1.4730540
  H        0.4939250     2.2572030     0.1746130
  H        2.1464930     1.6243000     0.1133420
  H       -2.5686030     0.5447890    -0.0239170
units angstrom
no_reorient  #important for SAPT in psi4, default
symmetry c1  #important for SAPT in psi4, default
}

set PROPERTIES_ORIGIN ["COM"]
properties('MP2/aug-cc-pvtz', properties = ['dipole'])
--------------------------------------------------------------------------

    Molecular point group: c1
  Charge       = 1
  Multiplicity = 1
  Basis Set: AUG-CC-PVTZ
    Blend: AUG-CC-PVTZ
  Basis Set: (AUG-CC-PVTZ AUX)
    Blend: AUG-CC-PVTZ-JKFIT

    Orbital Energies [Eh]
    ---------------------

    Doubly Occupied:

       1A    -20.769337     2A    -20.726327     3A    -15.908943
       4A    -11.572638     5A    -11.519705     6A    -11.422179
       7A     -1.684437     8A     -1.536234     9A     -1.482956
      10A     -1.269316    11A     -1.123643    12A     -1.011499
      13A     -0.978426    14A     -0.960141    15A     -0.903486
      16A     -0.865550    17A     -0.840019    18A     -0.814148
      19A     -0.768041    20A     -0.744485    21A     -0.739504
      22A     -0.723350    23A     -0.646968    24A     -0.627078

  @DF-RHF Final Energy:  -322.31332857100381

   => Energetics <=

    Nuclear Repulsion Energy =            261.0110981333072004
    One-Electron Energy =                -947.3720342452968453
    Two-Electron Energy =                 364.0476075409858367
    Total Energy =                       -322.3133285710038081
  Basis Set: (AUG-CC-PVTZ AUX)
    Blend: AUG-CC-PVTZ-RI
    Molecular point group: c1

    Geometry (in Angstrom), charge = 1, multiplicity = 1:

       Center              X                  Y                   Z               Mass
    ------------   -----------------  -----------------  -----------------  -----------------
         O           -1.604730319951     0.872281386946    -0.281577302850    15.994914619570
         O           -1.066181319951    -1.225990613054     0.430453697150    15.994914619570
         N            1.505009680049    -0.965907613054    -0.161434302850    14.003074004430
         C            0.658710680049     0.248150386946    -0.401376302850    12.000000000000
         C            1.176404680049     1.436560386946     0.394435697150    12.000000000000
         C           -0.638817819951    -0.290556113054     0.001388897150    12.000000000000
         H            0.707782680049     0.455432386946    -1.472879302850     1.007825032230
         H            1.176947680049    -1.773671613054    -0.704834302850     1.007825032230
         H            1.485839680049    -1.247053613054     0.826146697150     1.007825032230
         H            2.485203680049    -0.794128613054    -0.419028302850     1.007825032230
         H            1.133457680049     1.237926386946     1.468017697150     1.007825032230
         H            0.551597680049     2.300377386946     0.169576697150     1.007825032230
         H            2.204165680049     1.667474386946     0.108305697150     1.007825032230
         H           -2.510930319951     0.587963386946    -0.028953302850     1.007825032230

  Basis Set: AUG-CC-PVTZ
    Blend: AUG-CC-PVTZ
  Basis Set: (AUG-CC-PVTZ AUX)
    Blend: AUG-CC-PVTZ-JKFIT
	 Reference Energy          =    -322.3133285710038081 [Eh]
	 Singles Energy            =      -0.0000000000000000 [Eh]
	 Same-Spin Energy          =      -0.3116713421861565 [Eh]
	 Opposite-Spin Energy      =      -0.9990346007176498 [Eh]
	 Correlation Energy        =      -1.3107059429038064 [Eh]
	 Total Energy              =    -323.6240345139075885 [Eh]

	 ================> DF-SCS-MP2 Energies <==================
	-----------------------------------------------------------
	 SCS Same-Spin Scale       =       0.3333333333333333 [-]
	 SCS Opposite-Spin Scale   =       1.2000000000000000 [-]
	 SCS Same-Spin Energy      =      -0.1038904473953855 [Eh]
	 SCS Opposite-Spin Energy  =      -1.1988415208611798 [Eh]
	 SCS Correlation Energy    =      -1.3027319682565652 [Eh]
	 SCS Total Energy          =    -323.6160605392603884 [Eh]
	-----------------------------------------------------------

  Dipole Moment: [D]
     X:     6.7083      Y:    -2.3590      Z:    -0.7539     Total:     7.1508

*** Psi4 exiting successfully. Buy a developer a beer!
