                               Psi4 1.4a3.dev225

  ==> Input File <==

--------------------------------------------------------------------------
#psi4
#
memory 32 gb

molecule  {
1 1
  O       -1.6123010     0.9094490    -0.1675920
  O       -1.1928110    -1.2795120     0.3034070
  N        1.4156850    -1.0522820    -0.0637630
  C        0.6095860     0.1674070    -0.3957710
  C        1.1650120     1.3928430     0.3122100
  C       -0.8284910    -0.1652490    -0.0350320
  H        0.6656880     0.2905790    -1.4809690
  H        0.9122540    -1.9066690    -0.3390640
  H        1.5920220    -1.1264780     0.9462830
  H        2.3268530    -1.0442670    -0.5383350
  H        1.0907020     1.2862690     1.3970100
  H        0.5903660     2.2672430     0.0071660
  H        2.2096640     1.5504630     0.0359860
  H       -2.5143440     0.6448316     0.0390021
units angstrom
no_reorient  #important for SAPT in psi4, default
symmetry c1  #important for SAPT in psi4, default
}

set PROPERTIES_ORIGIN ["COM"]
properties('MP2/aug-cc-pvtz', properties = ['dipole'])
--------------------------------------------------------------------------

    Molecular point group: c1
  Charge       = 1
  Multiplicity = 1
  Basis Set: AUG-CC-PVTZ
    Blend: AUG-CC-PVTZ
  Basis Set: (AUG-CC-PVTZ AUX)
    Blend: AUG-CC-PVTZ-JKFIT

    Orbital Energies [Eh]
    ---------------------

    Doubly Occupied:

       1A    -20.787339     2A    -20.736239     3A    -15.898917
       4A    -11.577750     5A    -11.509680     6A    -11.415929
       7A     -1.644107     8A     -1.547923     9A     -1.514865
      10A     -1.255784    11A     -1.108973    12A     -1.016651
      13A     -0.980250    14A     -0.964188    15A     -0.888130
      16A     -0.860356    17A     -0.853768    18A     -0.808858
      19A     -0.774409    20A     -0.736944    21A     -0.735076
      22A     -0.716982    23A     -0.658660    24A     -0.638751

  @DF-RHF Final Energy:  -322.35974386400113

   => Energetics <=

    Nuclear Repulsion Energy =            260.5222389042098712
    One-Electron Energy =                -946.5029078640942544
    Two-Electron Energy =                 363.6209250958832513
    Total Energy =                       -322.3597438640011319
  Basis Set: (AUG-CC-PVTZ AUX)
    Blend: AUG-CC-PVTZ-RI
    Molecular point group: c1

    Geometry (in Angstrom), charge = 1, multiplicity = 1:

       Center              X                  Y                   Z               Mass
    ------------   -----------------  -----------------  -----------------  -----------------
         O           -1.537199392627     0.930957654575    -0.166747624258    15.994914619570
         O           -1.117709392627    -1.258003345425     0.304251375742    15.994914619570
         N            1.490786607373    -1.030773345425    -0.062918624258    14.003074004430
         C            0.684687607373     0.188915654575    -0.394926624258    12.000000000000
         C            1.240113607373     1.414351654575     0.313054375742    12.000000000000
         C           -0.753389392627    -0.143740345425    -0.034187624258    12.000000000000
         H            0.740789607373     0.312087654575    -1.480124624258     1.007825032230
         H            0.987355607373    -1.885160345425    -0.338219624258     1.007825032230
         H            1.667123607373    -1.104969345425     0.947127375742     1.007825032230
         H            2.401954607373    -1.022758345425    -0.537490624258     1.007825032230
         H            1.165803607373     1.307777654575     1.397854375742     1.007825032230
         H            0.665467607373     2.288751654575     0.008010375742     1.007825032230
         H            2.284765607373     1.571971654575     0.036830375742     1.007825032230
         H           -2.439242392627     0.666340254575     0.039846475742     1.007825032230

  Basis Set: AUG-CC-PVTZ
    Blend: AUG-CC-PVTZ
  Basis Set: (AUG-CC-PVTZ AUX)
    Blend: AUG-CC-PVTZ-JKFIT
	 Reference Energy          =    -322.3597438640011319 [Eh]
	 Singles Energy            =      -0.0000000000000000 [Eh]
	 Same-Spin Energy          =      -0.3115118407907983 [Eh]
	 Opposite-Spin Energy      =      -0.9972731545768541 [Eh]
	 Correlation Energy        =      -1.3087849953676525 [Eh]
	 Total Energy              =    -323.6685288593687915 [Eh]

	 ================> DF-SCS-MP2 Energies <==================
	-----------------------------------------------------------
	 SCS Same-Spin Scale       =       0.3333333333333333 [-]
	 SCS Opposite-Spin Scale   =       1.2000000000000000 [-]
	 SCS Same-Spin Energy      =      -0.1038372802635994 [Eh]
	 SCS Opposite-Spin Energy  =      -1.1967277854922249 [Eh]
	 SCS Correlation Energy    =      -1.3005650657558243 [Eh]
	 SCS Total Energy          =    -323.6603089297569795 [Eh]
	-----------------------------------------------------------

  Dipole Moment: [D]
     X:     5.6580      Y:    -1.3189      Z:    -0.6624     Total:     5.8473

*** Psi4 exiting successfully. Buy a developer a beer!
