                               Psi4 1.3.2 release

  ==> Input File <==

--------------------------------------------------------------------------
#psi4
#
memory 32 gb

molecule  {
1 1
  O       -1.6624030     0.8291070    -0.2765410
  O       -1.1238540    -1.2691650     0.4354900
  N        1.4397172    -1.0159312    -0.1645343
  C        0.6010380     0.2049760    -0.3963400
  C        1.1089659     1.4008856     0.3945150
  C       -0.8221020    -0.1825100    -0.0303730
  H        0.6501100     0.4122580    -1.4678430
  H        1.1192750    -1.8168460    -0.6997980
  H        1.4281670    -1.2902280     0.8311830
  H        2.4275310    -0.8373030    -0.4139920
  H        1.0757850     1.1947520     1.4730540
  H        0.4939250     2.2572030     0.1746130
  H        2.1464930     1.6243000     0.1133420
  H       -2.5686030     0.5447890    -0.0239170
units angstrom
no_reorient  #important for SAPT in psi4, default
symmetry c1  #important for SAPT in psi4, default
}

set PROPERTIES_ORIGIN ["COM"]
properties('MP2/aug-cc-pvtz', properties = ['dipole'])
--------------------------------------------------------------------------

    Molecular point group: c1
  Charge       = 1
  Multiplicity = 1
  Basis Set: AUG-CC-PVTZ
    Blend: AUG-CC-PVTZ
  Basis Set: (AUG-CC-PVTZ AUX)
    Blend: AUG-CC-PVTZ-JKFIT

    Orbital Energies [Eh]
    ---------------------

    Doubly Occupied:

       1A    -20.786659     2A    -20.734138     3A    -15.900885
       4A    -11.575693     5A    -11.509194     6A    -11.417057
       7A     -1.638958     8A     -1.544185     9A     -1.515425
      10A     -1.256325    11A     -1.107382    12A     -1.012174
      13A     -0.976823    14A     -0.970344    15A     -0.886503
      16A     -0.858670    17A     -0.846990    18A     -0.811503
      19A     -0.770924    20A     -0.742107    21A     -0.732580
      22A     -0.715111    23A     -0.656373    24A     -0.636122

  @DF-RHF Final Energy:  -322.35844396301366

   => Energetics <=

    Nuclear Repulsion Energy =            260.2870918589155735
    One-Electron Energy =                -946.0868242766561025
    Two-Electron Energy =                 363.4412884547268732
    Total Energy =                       -322.3584439630136558
  Basis Set: (AUG-CC-PVTZ AUX)
    Blend: AUG-CC-PVTZ-RI
    Molecular point group: c1

    Geometry (in Angstrom), charge = 1, multiplicity = 1:

       Center              X                  Y                   Z               Mass
    ------------   -----------------  -----------------  -----------------  -----------------
         O           -1.585506266384     0.852196758298    -0.274748229810    15.994914619570
         O           -1.046957266384    -1.246075241702     0.437282770190    15.994914619570
         N            1.516613933616    -0.992841441702    -0.162741529810    14.003074004430
         C            0.677934733616     0.228065758298    -0.394547229810    12.000000000000
         C            1.185862633616     1.423975358298     0.396307770190    12.000000000000
         C           -0.745205266384    -0.159420241702    -0.028580229810    12.000000000000
         H            0.727006733616     0.435347758298    -1.466050229810     1.007825032230
         H            1.196171733616    -1.793756241702    -0.698005229810     1.007825032230
         H            1.505063733616    -1.267138241702     0.832975770190     1.007825032230
         H            2.504427733616    -0.814213241702    -0.412199229810     1.007825032230
         H            1.152681733616     1.217841758298     1.474846770190     1.007825032230
         H            0.570821733616     2.280292758298     0.176405770190     1.007825032230
         H            2.223389733616     1.647389758298     0.115134770190     1.007825032230
         H           -2.491706266384     0.567878758298    -0.022124229810     1.007825032230

  Basis Set: AUG-CC-PVTZ
    Blend: AUG-CC-PVTZ
  Basis Set: (AUG-CC-PVTZ AUX)
    Blend: AUG-CC-PVTZ-JKFIT
	 Reference Energy          =    -322.3584439630136558 [Eh]
	 Singles Energy            =      -0.0000000000000000 [Eh]
	 Same-Spin Energy          =      -0.3115863894946531 [Eh]
	 Opposite-Spin Energy      =      -0.9976272506784569 [Eh]
	 Correlation Energy        =      -1.3092136401731100 [Eh]
	 Total Energy              =    -323.6676576031867398 [Eh]

	 ================> DF-SCS-MP2 Energies <==================
	-----------------------------------------------------------
	 SCS Same-Spin Scale       =       0.3333333333333333 [-]
	 SCS Opposite-Spin Scale   =       1.2000000000000000 [-]
	 SCS Same-Spin Energy      =      -0.1038621298315510 [Eh]
	 SCS Opposite-Spin Energy  =      -1.1971527008141483 [Eh]
	 SCS Correlation Energy    =      -1.3010148306456992 [Eh]
	 SCS Total Energy          =    -323.6594587936593825 [Eh]
	-----------------------------------------------------------

  Dipole Moment: [D]
     X:     5.7077      Y:    -1.2141      Z:    -1.0721     Total:     5.9331

*** Psi4 exiting successfully. Buy a developer a beer!
