                               Psi4 1.3.2 release

  ==> Input File <==

--------------------------------------------------------------------------
#psi4
#
memory 32 gb

molecule  {
1 1
  O       -1.6624030     0.8291070    -0.2765410
  O       -1.1238540    -1.2691650     0.4354900
  N        1.4473370    -1.0090820    -0.1563980
  C        0.6010380     0.2049760    -0.3963400
  C        1.1187320     1.3933860     0.3994720
  C       -0.7284542    -0.1570120    -0.0544550
  H        0.6501100     0.4122580    -1.4678430
  H        1.1192750    -1.8168460    -0.6997980
  H        1.4281670    -1.2902280     0.8311830
  H        2.4275310    -0.8373030    -0.4139920
  H        1.0757850     1.1947520     1.4730540
  H        0.4939250     2.2572030     0.1746130
  H        2.1464930     1.6243000     0.1133420
  H       -2.5686030     0.5447890    -0.0239170
units angstrom
no_reorient  #important for SAPT in psi4, default
symmetry c1  #important for SAPT in psi4, default
}

set PROPERTIES_ORIGIN ["COM"]
properties('MP2/aug-cc-pvtz', properties = ['dipole'])
--------------------------------------------------------------------------

    Molecular point group: c1
  Charge       = 1
  Multiplicity = 1
  Basis Set: AUG-CC-PVTZ
    Blend: AUG-CC-PVTZ
  Basis Set: (AUG-CC-PVTZ AUX)
    Blend: AUG-CC-PVTZ-JKFIT

    Orbital Energies [Eh]
    ---------------------

    Doubly Occupied:

       1A    -20.777982     2A    -20.732438     3A    -15.906824
       4A    -11.582480     5A    -11.515474     6A    -11.424438
       7A     -1.614204     8A     -1.534558     9A     -1.497055
      10A     -1.280849    11A     -1.127404    12A     -1.015596
      13A     -0.984343    14A     -0.971343    15A     -0.883148
      16A     -0.863751    17A     -0.843826    18A     -0.804308
      19A     -0.763820    20A     -0.742991    21A     -0.730016
      22A     -0.720541    23A     -0.638293    24A     -0.636526

  @DF-RHF Final Energy:  -322.33517194916925

   => Energetics <=

    Nuclear Repulsion Energy =            260.3972673371958422
    One-Electron Energy =                -946.2804590802325038
    Two-Electron Energy =                 363.5480197938673541
    Total Energy =                       -322.3351719491692506
  Basis Set: (AUG-CC-PVTZ AUX)
    Blend: AUG-CC-PVTZ-RI
    Molecular point group: c1

    Geometry (in Angstrom), charge = 1, multiplicity = 1:

       Center              X                  Y                   Z               Mass
    ------------   -----------------  -----------------  -----------------  -----------------
         O           -1.600471119957     0.848733442427    -0.273464945786    15.994914619570
         O           -1.061922119957    -1.249538557573     0.438566054214    15.994914619570
         N            1.509268880043    -0.989455557573    -0.153321945786    14.003074004430
         C            0.662969880043     0.224602442427    -0.393263945786    12.000000000000
         C            1.180663880043     1.413012442427     0.402548054214    12.000000000000
         C           -0.666522319957    -0.137385557573    -0.051378945786    12.000000000000
         H            0.712041880043     0.431884442427    -1.464766945786     1.007825032230
         H            1.181206880043    -1.797219557573    -0.696721945786     1.007825032230
         H            1.490098880043    -1.270601557573     0.834259054214     1.007825032230
         H            2.489462880043    -0.817676557573    -0.410915945786     1.007825032230
         H            1.137716880043     1.214378442427     1.476130054214     1.007825032230
         H            0.555856880043     2.276829442427     0.177689054214     1.007825032230
         H            2.208424880043     1.643926442427     0.116418054214     1.007825032230
         H           -2.506671119957     0.564415442427    -0.020840945786     1.007825032230

  Basis Set: AUG-CC-PVTZ
    Blend: AUG-CC-PVTZ
  Basis Set: (AUG-CC-PVTZ AUX)
    Blend: AUG-CC-PVTZ-JKFIT
	 Reference Energy          =    -322.3351719491692506 [Eh]
	 Singles Energy            =      -0.0000000000000000 [Eh]
	 Same-Spin Energy          =      -0.3140810517812723 [Eh]
	 Opposite-Spin Energy      =      -1.0026721557237916 [Eh]
	 Correlation Energy        =      -1.3167532075050641 [Eh]
	 Total Energy              =    -323.6519251566743378 [Eh]

	 ================> DF-SCS-MP2 Energies <==================
	-----------------------------------------------------------
	 SCS Same-Spin Scale       =       0.3333333333333333 [-]
	 SCS Opposite-Spin Scale   =       1.2000000000000000 [-]
	 SCS Same-Spin Energy      =      -0.1046936839270908 [Eh]
	 SCS Opposite-Spin Energy  =      -1.2032065868685500 [Eh]
	 SCS Correlation Energy    =      -1.3079002707956406 [Eh]
	 SCS Total Energy          =    -323.6430722199648926 [Eh]
	-----------------------------------------------------------

  Dipole Moment: [D]
     X:     6.1469      Y:    -1.1410      Z:    -1.1429     Total:     6.3556

*** Psi4 exiting successfully. Buy a developer a beer!
