                               Psi4 1.4a3.dev225

  ==> Input File <==

--------------------------------------------------------------------------
#psi4
#
memory 32 gb

molecule  {
1 1
  O       -1.6123010     0.9094490    -0.1675920
  O       -1.1928110    -1.2795120     0.3034070
  N        1.4156850    -1.0522820    -0.0637630
  C        0.6095860     0.1674070    -0.3957710
  C        1.1650120     1.3928430     0.3122100
  C       -0.8284910    -0.1652490    -0.0350320
  H        0.6656880     0.2905790    -1.4809690
  H        0.8877961    -1.9481772    -0.3524388
  H        1.5920220    -1.1264780     0.9462830
  H        2.3268530    -1.0442670    -0.5383350
  H        1.0907020     1.2862690     1.3970100
  H        0.5903660     2.2672430     0.0071660
  H        2.2096640     1.5504630     0.0359860
  H       -2.5330880     0.6393330     0.0432950
units angstrom
no_reorient  #important for SAPT in psi4, default
symmetry c1  #important for SAPT in psi4, default
}

set PROPERTIES_ORIGIN ["COM"]
properties('MP2/aug-cc-pvtz', properties = ['dipole'])
--------------------------------------------------------------------------

    Molecular point group: c1
  Charge       = 1
  Multiplicity = 1
  Basis Set: AUG-CC-PVTZ
    Blend: AUG-CC-PVTZ
  Basis Set: (AUG-CC-PVTZ AUX)
    Blend: AUG-CC-PVTZ-JKFIT

    Orbital Energies [Eh]
    ---------------------

    Doubly Occupied:

       1A    -20.788177     2A    -20.735680     3A    -15.900537
       4A    -11.577002     5A    -11.508693     6A    -11.415244
       7A     -1.641094     8A     -1.544820     9A     -1.508037
      10A     -1.252841    11A     -1.107328    12A     -1.012451
      13A     -0.976965    14A     -0.949714    15A     -0.886754
      16A     -0.857860    17A     -0.852001    18A     -0.807003
      19A     -0.772789    20A     -0.736071    21A     -0.732869
      22A     -0.716037    23A     -0.657986    24A     -0.638172

  @DF-RHF Final Energy:  -322.35571683722242

   => Energetics <=

    Nuclear Repulsion Energy =            260.1640193305129856
    One-Electron Energy =                -945.8872198719542439
    Two-Electron Energy =                 363.3674837042187846
    Total Energy =                       -322.3557168372224169
  Basis Set: (AUG-CC-PVTZ AUX)
    Blend: AUG-CC-PVTZ-RI
    Molecular point group: c1

    Geometry (in Angstrom), charge = 1, multiplicity = 1:

       Center              X                  Y                   Z               Mass
    ------------   -----------------  -----------------  -----------------  -----------------
         O           -1.536715913500     0.931483714925    -0.166645987314    15.994914619570
         O           -1.117225913500    -1.257477285075     0.304353012686    15.994914619570
         N            1.491270086500    -1.030247285075    -0.062816987314    14.003074004430
         C            0.685171086500     0.189441714925    -0.394824987314    12.000000000000
         C            1.240597086500     1.414877714925     0.313156012686    12.000000000000
         C           -0.752905913500    -0.143214285075    -0.034085987314    12.000000000000
         H            0.741273086500     0.312613714925    -1.480022987314     1.007825032230
         H            0.963381186500    -1.926142485075    -0.351492787314     1.007825032230
         H            1.667607086500    -1.104443285075     0.947229012686     1.007825032230
         H            2.402438086500    -1.022232285075    -0.537388987314     1.007825032230
         H            1.166287086500     1.308303714925     1.397956012686     1.007825032230
         H            0.665951086500     2.289277714925     0.008112012686     1.007825032230
         H            2.285249086500     1.572497714925     0.036932012686     1.007825032230
         H           -2.457502913500     0.661367714925     0.044241012686     1.007825032230

  Basis Set: AUG-CC-PVTZ
    Blend: AUG-CC-PVTZ
  Basis Set: (AUG-CC-PVTZ AUX)
    Blend: AUG-CC-PVTZ-JKFIT
	 Reference Energy          =    -322.3557168372224169 [Eh]
	 Singles Energy            =      -0.0000000000000000 [Eh]
	 Same-Spin Energy          =      -0.3121110437701578 [Eh]
	 Opposite-Spin Energy      =      -0.9987092116259786 [Eh]
	 Correlation Energy        =      -1.3108202553961363 [Eh]
	 Total Energy              =    -323.6665370926185687 [Eh]

	 ================> DF-SCS-MP2 Energies <==================
	-----------------------------------------------------------
	 SCS Same-Spin Scale       =       0.3333333333333333 [-]
	 SCS Opposite-Spin Scale   =       1.2000000000000000 [-]
	 SCS Same-Spin Energy      =      -0.1040370145900526 [Eh]
	 SCS Opposite-Spin Energy  =      -1.1984510539511743 [Eh]
	 SCS Correlation Energy    =      -1.3024880685412270 [Eh]
	 SCS Total Energy          =    -323.6582049057636254 [Eh]
	-----------------------------------------------------------

  Dipole Moment: [D]
     X:     5.5760      Y:    -1.3791      Z:    -0.6762     Total:     5.7837

*** Psi4 exiting successfully. Buy a developer a beer!
