                               Psi4 1.3.2 release

  ==> Input File <==

--------------------------------------------------------------------------
#psi4
#
memory 32 gb

molecule  {
1 1
  O       -1.6624030     0.8291070    -0.2765410
  O       -1.1238540    -1.2691650     0.4354900
  N        1.4473370    -1.0090820    -0.1563980
  C        0.6010380     0.2049760    -0.3963400
  C        1.1527669     1.4715161     0.4517914
  C       -0.8221020    -0.1825100    -0.0303730
  H        0.6501100     0.4122580    -1.4678430
  H        1.1192750    -1.8168460    -0.6997980
  H        1.4281670    -1.2902280     0.8311830
  H        2.4275310    -0.8373030    -0.4139920
  H        1.0757850     1.1947520     1.4730540
  H        0.4939250     2.2572030     0.1746130
  H        2.1464930     1.6243000     0.1133420
  H       -2.5686030     0.5447890    -0.0239170
units angstrom
no_reorient  #important for SAPT in psi4, default
symmetry c1  #important for SAPT in psi4, default
}

set PROPERTIES_ORIGIN ["COM"]
properties('MP2/aug-cc-pvtz', properties = ['dipole'])
--------------------------------------------------------------------------

    Molecular point group: c1
  Charge       = 1
  Multiplicity = 1
  Basis Set: AUG-CC-PVTZ
    Blend: AUG-CC-PVTZ
  Basis Set: (AUG-CC-PVTZ AUX)
    Blend: AUG-CC-PVTZ-JKFIT

    Orbital Energies [Eh]
    ---------------------

    Doubly Occupied:

       1A    -20.785852     2A    -20.732814     3A    -15.899887
       4A    -11.574772     5A    -11.508913     6A    -11.418444
       7A     -1.637755     8A     -1.542779     9A     -1.513093
      10A     -1.241435    11A     -1.113013    12A     -1.010801
      13A     -0.977696    14A     -0.964833    15A     -0.884760
      16A     -0.857524    17A     -0.844558    18A     -0.806270
      19A     -0.775883    20A     -0.753300    21A     -0.735273
      22A     -0.703893    23A     -0.654675    24A     -0.635579

  @DF-RHF Final Energy:  -322.35194803875214

   => Energetics <=

    Nuclear Repulsion Energy =            258.7119087460426385
    One-Electron Energy =                -942.9801145897839660
    Two-Electron Energy =                 361.9162578049891295
    Total Energy =                       -322.3519480387521412
  Basis Set: (AUG-CC-PVTZ AUX)
    Blend: AUG-CC-PVTZ-RI
    Molecular point group: c1

    Geometry (in Angstrom), charge = 1, multiplicity = 1:

       Center              X                  Y                   Z               Mass
    ------------   -----------------  -----------------  -----------------  -----------------
         O           -1.592527632083     0.841720154228    -0.283645520702    15.994914619570
         O           -1.053978632083    -1.256551845772     0.428385479298    15.994914619570
         N            1.517212367917    -0.996468845772    -0.163502520702    14.003074004430
         C            0.670913367917     0.217589154228    -0.403444520702    12.000000000000
         C            1.222642267917     1.484129254228     0.444686879298    12.000000000000
         C           -0.752226632083    -0.169896845772    -0.037477520702    12.000000000000
         H            0.719985367917     0.424871154228    -1.474947520702     1.007825032230
         H            1.189150367917    -1.804232845772    -0.706902520702     1.007825032230
         H            1.498042367917    -1.277614845772     0.824078479298     1.007825032230
         H            2.497406367917    -0.824689845772    -0.421096520702     1.007825032230
         H            1.145660367917     1.207365154228     1.465949479298     1.007825032230
         H            0.563800367917     2.269816154228     0.167508479298     1.007825032230
         H            2.216368367917     1.636913154228     0.106237479298     1.007825032230
         H           -2.498727632083     0.557402154228    -0.031021520702     1.007825032230

  Basis Set: AUG-CC-PVTZ
    Blend: AUG-CC-PVTZ
  Basis Set: (AUG-CC-PVTZ AUX)
    Blend: AUG-CC-PVTZ-JKFIT
	 Reference Energy          =    -322.3519480387521412 [Eh]
	 Singles Energy            =      -0.0000000000000000 [Eh]
	 Same-Spin Energy          =      -0.3110195670242279 [Eh]
	 Opposite-Spin Energy      =      -0.9973680682174658 [Eh]
	 Correlation Energy        =      -1.3083876352416937 [Eh]
	 Total Energy              =    -323.6603356739938135 [Eh]

	 ================> DF-SCS-MP2 Energies <==================
	-----------------------------------------------------------
	 SCS Same-Spin Scale       =       0.3333333333333333 [-]
	 SCS Opposite-Spin Scale   =       1.2000000000000000 [-]
	 SCS Same-Spin Energy      =      -0.1036731890080760 [Eh]
	 SCS Opposite-Spin Energy  =      -1.1968416818609589 [Eh]
	 SCS Correlation Energy    =      -1.3005148708690348 [Eh]
	 SCS Total Energy          =    -323.6524629096211925 [Eh]
	-----------------------------------------------------------

  Dipole Moment: [D]
     X:     5.7192      Y:    -1.2505      Z:    -1.0956     Total:     5.9560

*** Psi4 exiting successfully. Buy a developer a beer!
