                               Psi4 1.3.2 release

  ==> Input File <==

--------------------------------------------------------------------------
#psi4
#
memory 32 gb

molecule  {
1 1
  O       -1.6624030     0.8291070    -0.2765410
  O       -1.1238540    -1.2691650     0.4354900
  N        1.4444936    -1.0084725    -0.1436419
  C        0.6010380     0.2049760    -0.3963400
  C        1.1187320     1.3933860     0.3994720
  C       -0.8221020    -0.1825100    -0.0303730
  H        0.6443659     0.4197664    -1.4666111
  H        1.1192750    -1.8168460    -0.6997980
  H        1.4281670    -1.2902280     0.8311830
  H        2.4275310    -0.8373030    -0.4139920
  H        1.0757850     1.1947520     1.4730540
  H        0.4939250     2.2572030     0.1746130
  H        2.1464930     1.6243000     0.1133420
  H       -2.5686030     0.5447890    -0.0239170
units angstrom
no_reorient  #important for SAPT in psi4, default
symmetry c1  #important for SAPT in psi4, default
}

set PROPERTIES_ORIGIN ["COM"]
properties('MP2/aug-cc-pvtz', properties = ['dipole'])
--------------------------------------------------------------------------

    Molecular point group: c1
  Charge       = 1
  Multiplicity = 1
  Basis Set: AUG-CC-PVTZ
    Blend: AUG-CC-PVTZ
  Basis Set: (AUG-CC-PVTZ AUX)
    Blend: AUG-CC-PVTZ-JKFIT

    Orbital Energies [Eh]
    ---------------------

    Doubly Occupied:

       1A    -20.786761     2A    -20.734264     3A    -15.900658
       4A    -11.575843     5A    -11.509250     6A    -11.416253
       7A     -1.639051     8A     -1.544251     9A     -1.515434
      10A     -1.256037    11A     -1.107460    12A     -1.013410
      13A     -0.980394    14A     -0.962865    15A     -0.887570
      16A     -0.858777    17A     -0.850259    18A     -0.811300
      19A     -0.771510    20A     -0.736119    21A     -0.733601
      22A     -0.716847    23A     -0.656420    24A     -0.636469

  @DF-RHF Final Energy:  -322.35861673526398

   => Energetics <=

    Nuclear Repulsion Energy =            260.3207630450383476
    One-Electron Energy =                -946.1571532517026526
    Two-Electron Energy =                 363.4777734714003259
    Total Energy =                       -322.3586167352639791
  Basis Set: (AUG-CC-PVTZ AUX)
    Blend: AUG-CC-PVTZ-RI
    Molecular point group: c1

    Geometry (in Angstrom), charge = 1, multiplicity = 1:

       Center              X                  Y                   Z               Mass
    ------------   -----------------  -----------------  -----------------  -----------------
         O           -1.587486028064     0.851952279274    -0.278671181204    15.994914619570
         O           -1.048937028064    -1.246319720726     0.433359818796    15.994914619570
         N            1.519410571936    -0.985627220726    -0.145772081204    14.003074004430
         C            0.675954971936     0.227821279274    -0.398470181204    12.000000000000
         C            1.193648971936     1.416231279274     0.397341818796    12.000000000000
         C           -0.747185028064    -0.159664720726    -0.032503181204    12.000000000000
         H            0.719282871936     0.442611679274    -1.468741281204     1.007825032230
         H            1.194191971936    -1.794000720726    -0.701928181204     1.007825032230
         H            1.503083971936    -1.267382720726     0.829052818796     1.007825032230
         H            2.502447971936    -0.814457720726    -0.416122181204     1.007825032230
         H            1.150701971936     1.217597279274     1.470923818796     1.007825032230
         H            0.568841971936     2.280048279274     0.172482818796     1.007825032230
         H            2.221409971936     1.647145279274     0.111211818796     1.007825032230
         H           -2.493686028064     0.567634279274    -0.026047181204     1.007825032230

  Basis Set: AUG-CC-PVTZ
    Blend: AUG-CC-PVTZ
  Basis Set: (AUG-CC-PVTZ AUX)
    Blend: AUG-CC-PVTZ-JKFIT
	 Reference Energy          =    -322.3586167352639791 [Eh]
	 Singles Energy            =      -0.0000000000000000 [Eh]
	 Same-Spin Energy          =      -0.3116061445280295 [Eh]
	 Opposite-Spin Energy      =      -0.9976415566503490 [Eh]
	 Correlation Energy        =      -1.3092477011783785 [Eh]
	 Total Energy              =    -323.6678644364423576 [Eh]

	 ================> DF-SCS-MP2 Energies <==================
	-----------------------------------------------------------
	 SCS Same-Spin Scale       =       0.3333333333333333 [-]
	 SCS Opposite-Spin Scale   =       1.2000000000000000 [-]
	 SCS Same-Spin Energy      =      -0.1038687148426765 [Eh]
	 SCS Opposite-Spin Energy  =      -1.1971698679804188 [Eh]
	 SCS Correlation Energy    =      -1.3010385828230953 [Eh]
	 SCS Total Energy          =    -323.6596553180870615 [Eh]
	-----------------------------------------------------------

  Dipole Moment: [D]
     X:     5.6883      Y:    -1.2215      Z:    -1.1077     Total:     5.9225

*** Psi4 exiting successfully. Buy a developer a beer!
