                               Psi4 1.3.2 release

  ==> Input File <==

--------------------------------------------------------------------------
#psi4
#
memory 32 gb

molecule  {
1 1
  O       -1.7147945     0.7888027    -0.2533644
  O       -1.1238540    -1.2691650     0.4354900
  N        1.4473370    -1.0090820    -0.1563980
  C        0.6245097     0.1326185    -0.3730293
  C        1.1187320     1.3933860     0.3994720
  C       -0.8221020    -0.1825100    -0.0303730
  H        0.6501100     0.4122580    -1.4678430
  H        1.1192750    -1.8168460    -0.6997980
  H        1.4281670    -1.2902280     0.8311830
  H        2.4275310    -0.8373030    -0.4139920
  H        1.0757850     1.1947520     1.4730540
  H        0.4939250     2.2572030     0.1746130
  H        2.1464930     1.6243000     0.1133420
  H       -2.5686030     0.5447890    -0.0239170
units angstrom
no_reorient  #important for SAPT in psi4, default
symmetry c1  #important for SAPT in psi4, default
}

set PROPERTIES_ORIGIN ["COM"]
properties('MP2/aug-cc-pvtz', properties = ['dipole'])
--------------------------------------------------------------------------

    Molecular point group: c1
  Charge       = 1
  Multiplicity = 1
  Basis Set: AUG-CC-PVTZ
    Blend: AUG-CC-PVTZ
  Basis Set: (AUG-CC-PVTZ AUX)
    Blend: AUG-CC-PVTZ-JKFIT

    Orbital Energies [Eh]
    ---------------------

    Doubly Occupied:

       1A    -20.777441     2A    -20.728538     3A    -15.910444
       4A    -11.575267     5A    -11.509588     6A    -11.419198
       7A     -1.643929     8A     -1.555610     9A     -1.528346
      10A     -1.249677    11A     -1.109373    12A     -1.032651
      13A     -0.996846    14A     -0.980283    15A     -0.889060
      16A     -0.876672    17A     -0.843056    18A     -0.808274
      19A     -0.768433    20A     -0.740229    21A     -0.726383
      22A     -0.704401    23A     -0.652085    24A     -0.632741

  @DF-RHF Final Energy:  -322.35096982405929

   => Energetics <=

    Nuclear Repulsion Energy =            260.6976067860256876
    One-Electron Energy =                -946.7801023995617697
    Two-Electron Energy =                 363.7315257894768479
    Total Energy =                       -322.3509698240592911
  Basis Set: (AUG-CC-PVTZ AUX)
    Blend: AUG-CC-PVTZ-RI
    Molecular point group: c1

    Geometry (in Angstrom), charge = 1, multiplicity = 1:

       Center              X                  Y                   Z               Mass
    ------------   -----------------  -----------------  -----------------  -----------------
         O           -1.634206228021     0.828627017811    -0.260719914115    15.994914619570
         O           -1.043265728021    -1.229340682189     0.428134485885    15.994914619570
         N            1.527925271979    -0.969257682189    -0.163753514115    14.003074004430
         C            0.705097971979     0.172442817811    -0.380384814115    12.000000000000
         C            1.199320271979     1.433210317811     0.392116485885    12.000000000000
         C           -0.741513728021    -0.142685682189    -0.037728514115    12.000000000000
         H            0.730698271979     0.452082317811    -1.475198514115     1.007825032230
         H            1.199863271979    -1.777021682189    -0.707153514115     1.007825032230
         H            1.508755271979    -1.250403682189     0.823827485885     1.007825032230
         H            2.508119271979    -0.797478682189    -0.421347514115     1.007825032230
         H            1.156373271979     1.234576317811     1.465698485885     1.007825032230
         H            0.574513271979     2.297027317811     0.167257485885     1.007825032230
         H            2.227081271979     1.664124317811     0.105986485885     1.007825032230
         H           -2.488014728021     0.584613317811    -0.031272514115     1.007825032230

  Basis Set: AUG-CC-PVTZ
    Blend: AUG-CC-PVTZ
  Basis Set: (AUG-CC-PVTZ AUX)
    Blend: AUG-CC-PVTZ-JKFIT
	 Reference Energy          =    -322.3509698240592911 [Eh]
	 Singles Energy            =      -0.0000000000000000 [Eh]
	 Same-Spin Energy          =      -0.3106821534425906 [Eh]
	 Opposite-Spin Energy      =      -0.9950794235834638 [Eh]
	 Correlation Energy        =      -1.3057615770260544 [Eh]
	 Total Energy              =    -323.6567314010853238 [Eh]

	 ================> DF-SCS-MP2 Energies <==================
	-----------------------------------------------------------
	 SCS Same-Spin Scale       =       0.3333333333333333 [-]
	 SCS Opposite-Spin Scale   =       1.2000000000000000 [-]
	 SCS Same-Spin Energy      =      -0.1035607178141969 [Eh]
	 SCS Opposite-Spin Energy  =      -1.1940953083001564 [Eh]
	 SCS Correlation Energy    =      -1.2976560261143533 [Eh]
	 SCS Total Energy          =    -323.6486258501736302 [Eh]
	-----------------------------------------------------------

  Dipole Moment: [D]
     X:     6.0117      Y:    -1.2652      Z:    -1.1430     Total:     6.2488

*** Psi4 exiting successfully. Buy a developer a beer!
