                               Psi4 1.3.2 release

  ==> Input File <==

--------------------------------------------------------------------------
#psi4
#
memory 32 gb

molecule  {
1 1
  O       -1.6624030     0.8291070    -0.2765410
  O       -1.1238540    -1.2691650     0.4354900
  N        1.4473370    -1.0090820    -0.1563980
  C        0.6010380     0.2049760    -0.3963400
  C        1.1187320     1.3933860     0.3994720
  C       -0.8310523    -0.1889382    -0.0265141
  H        0.6501100     0.4122580    -1.4678430
  H        1.1192750    -1.8168460    -0.6997980
  H        1.4281670    -1.2902280     0.8311830
  H        2.4275310    -0.8373030    -0.4139920
  H        1.0757850     1.1947520     1.4730540
  H        0.4939250     2.2572030     0.1746130
  H        2.1464930     1.6243000     0.1133420
  H       -2.5655039     0.5371541    -0.0215384
units angstrom
no_reorient  #important for SAPT in psi4, default
symmetry c1  #important for SAPT in psi4, default
}

set PROPERTIES_ORIGIN ["COM"]
properties('MP2/aug-cc-pvtz', properties = ['dipole'])
--------------------------------------------------------------------------

    Molecular point group: c1
  Charge       = 1
  Multiplicity = 1
  Basis Set: AUG-CC-PVTZ
    Blend: AUG-CC-PVTZ
  Basis Set: (AUG-CC-PVTZ AUX)
    Blend: AUG-CC-PVTZ-JKFIT

    Orbital Energies [Eh]
    ---------------------

    Doubly Occupied:

       1A    -20.787088     2A    -20.735758     3A    -15.899820
       4A    -11.575386     5A    -11.508323     6A    -11.415667
       7A     -1.641747     8A     -1.548165     9A     -1.516122
      10A     -1.253556    11A     -1.105437    12A     -1.011305
      13A     -0.978430    14A     -0.965119    15A     -0.888267
      16A     -0.859468    17A     -0.847954    18A     -0.812611
      19A     -0.772868    20A     -0.736022    21A     -0.734748
      22A     -0.716344    23A     -0.659704    24A     -0.636321

  @DF-RHF Final Energy:  -322.35977888384508

   => Energetics <=

    Nuclear Repulsion Energy =            260.2767327039226757
    One-Electron Energy =                -946.0605610189106756
    Two-Electron Energy =                 363.4240494311429188
    Total Energy =                       -322.3597788838450811
  Basis Set: (AUG-CC-PVTZ AUX)
    Blend: AUG-CC-PVTZ-RI
    Molecular point group: c1

    Geometry (in Angstrom), charge = 1, multiplicity = 1:

       Center              X                  Y                   Z               Mass
    ------------   -----------------  -----------------  -----------------  -----------------
         O           -1.586834486973     0.853073088847    -0.277214722307    15.994914619570
         O           -1.048285486973    -1.245198911153     0.434816277693    15.994914619570
         N            1.522905513027    -0.985115911153    -0.157071722307    14.003074004430
         C            0.676606513027     0.228942088847    -0.397013722307    12.000000000000
         C            1.194300513027     1.417352088847     0.398798277693    12.000000000000
         C           -0.755483786973    -0.164972111153    -0.027187822307    12.000000000000
         H            0.725678513027     0.436224088847    -1.468516722307     1.007825032230
         H            1.194843513027    -1.792879911153    -0.700471722307     1.007825032230
         H            1.503735513027    -1.266261911153     0.830509277693     1.007825032230
         H            2.503099513027    -0.813336911153    -0.414665722307     1.007825032230
         H            1.151353513027     1.218718088847     1.472380277693     1.007825032230
         H            0.569493513027     2.281169088847     0.173939277693     1.007825032230
         H            2.222061513027     1.648266088847     0.112668277693     1.007825032230
         H           -2.489935386973     0.561120188847    -0.022212122307     1.007825032230

  Basis Set: AUG-CC-PVTZ
    Blend: AUG-CC-PVTZ
  Basis Set: (AUG-CC-PVTZ AUX)
    Blend: AUG-CC-PVTZ-JKFIT
	 Reference Energy          =    -322.3597788838450811 [Eh]
	 Singles Energy            =      -0.0000000000000000 [Eh]
	 Same-Spin Energy          =      -0.3113708202354207 [Eh]
	 Opposite-Spin Energy      =      -0.9971885341547867 [Eh]
	 Correlation Energy        =      -1.3085593543902074 [Eh]
	 Total Energy              =    -323.6683382382352647 [Eh]

	 ================> DF-SCS-MP2 Energies <==================
	-----------------------------------------------------------
	 SCS Same-Spin Scale       =       0.3333333333333333 [-]
	 SCS Opposite-Spin Scale   =       1.2000000000000000 [-]
	 SCS Same-Spin Energy      =      -0.1037902734118069 [Eh]
	 SCS Opposite-Spin Energy  =      -1.1966262409857440 [Eh]
	 SCS Correlation Energy    =      -1.3004165143975510 [Eh]
	 SCS Total Energy          =    -323.6601953982426494 [Eh]
	-----------------------------------------------------------

  Dipole Moment: [D]
     X:     5.6491      Y:    -1.2658      Z:    -1.0690     Total:     5.8870

*** Psi4 exiting successfully. Buy a developer a beer!
