                               Psi4 1.3.2 release

  ==> Input File <==

--------------------------------------------------------------------------
#psi4
#
memory 32 gb

molecule  {
1 1
  O       -1.6624030     0.8291070    -0.2765410
  O       -1.1238540    -1.2691650     0.4354900
  N        1.4623827    -0.9951068    -0.1401808
  C        0.6010380     0.2049760    -0.3963400
  C        1.1381452     1.3781159     0.4092038
  C       -0.8221020    -0.1825100    -0.0303730
  H        0.6501100     0.4122580    -1.4678430
  H        1.1192750    -1.8168460    -0.6997980
  H        1.4281670    -1.2902280     0.8311830
  H        2.4275310    -0.8373030    -0.4139920
  H        1.0757850     1.1947520     1.4730540
  H        0.4939250     2.2572030     0.1746130
  H        2.1464930     1.6243000     0.1133420
  H       -2.5686030     0.5447890    -0.0239170
units angstrom
no_reorient  #important for SAPT in psi4, default
symmetry c1  #important for SAPT in psi4, default
}

set PROPERTIES_ORIGIN ["COM"]
properties('MP2/aug-cc-pvtz', properties = ['dipole'])
--------------------------------------------------------------------------

    Molecular point group: c1
  Charge       = 1
  Multiplicity = 1
  Basis Set: AUG-CC-PVTZ
    Blend: AUG-CC-PVTZ
  Basis Set: (AUG-CC-PVTZ AUX)
    Blend: AUG-CC-PVTZ-JKFIT

    Orbital Energies [Eh]
    ---------------------

    Doubly Occupied:

       1A    -20.787385     2A    -20.735066     3A    -15.899588
       4A    -11.576974     5A    -11.509511     6A    -11.415572
       7A     -1.639575     8A     -1.544483     9A     -1.515691
      10A     -1.255468    11A     -1.108179    12A     -1.013889
      13A     -0.984742    14A     -0.955633    15A     -0.887638
      16A     -0.862361    17A     -0.849915    18A     -0.811684
      19A     -0.773899    20A     -0.736582    21A     -0.727835
      22A     -0.717362    23A     -0.656855    24A     -0.637619

  @DF-RHF Final Energy:  -322.35716486627274

   => Energetics <=

    Nuclear Repulsion Energy =            260.2204993123218628
    One-Electron Energy =                -945.9483138388685575
    Two-Electron Energy =                 363.3706496602739549
    Total Energy =                       -322.3571648662727398
  Basis Set: (AUG-CC-PVTZ AUX)
    Blend: AUG-CC-PVTZ-RI
    Molecular point group: c1

    Geometry (in Angstrom), charge = 1, multiplicity = 1:

       Center              X                  Y                   Z               Mass
    ------------   -----------------  -----------------  -----------------  -----------------
         O           -1.592918786973     0.851992781710    -0.280492348078    15.994914619570
         O           -1.054369786973    -1.246279218290     0.431538651922    15.994914619570
         N            1.531866913027    -0.972221018290    -0.144132148078    14.003074004430
         C            0.670522213027     0.227861781710    -0.400291348078    12.000000000000
         C            1.207629413027     1.401001681710     0.405252451922    12.000000000000
         C           -0.752617786973    -0.159624218290    -0.034324348078    12.000000000000
         H            0.719594213027     0.435143781710    -1.471794348078     1.007825032230
         H            1.188759213027    -1.793960218290    -0.703749348078     1.007825032230
         H            1.497651213027    -1.267342218290     0.827231651922     1.007825032230
         H            2.497015213027    -0.814417218290    -0.417943348078     1.007825032230
         H            1.145269213027     1.217637781710     1.469102651922     1.007825032230
         H            0.563409213027     2.280088781710     0.170661651922     1.007825032230
         H            2.215977213027     1.647185781710     0.109390651922     1.007825032230
         H           -2.499118786973     0.567674781710    -0.027868348078     1.007825032230

  Basis Set: AUG-CC-PVTZ
    Blend: AUG-CC-PVTZ
  Basis Set: (AUG-CC-PVTZ AUX)
    Blend: AUG-CC-PVTZ-JKFIT
	 Reference Energy          =    -322.3571648662727398 [Eh]
	 Singles Energy            =      -0.0000000000000000 [Eh]
	 Same-Spin Energy          =      -0.3116782690601319 [Eh]
	 Opposite-Spin Energy      =      -0.9977965817418550 [Eh]
	 Correlation Energy        =      -1.3094748508019869 [Eh]
	 Total Energy              =    -323.6666397170747018 [Eh]

	 ================> DF-SCS-MP2 Energies <==================
	-----------------------------------------------------------
	 SCS Same-Spin Scale       =       0.3333333333333333 [-]
	 SCS Opposite-Spin Scale   =       1.2000000000000000 [-]
	 SCS Same-Spin Energy      =      -0.1038927563533773 [Eh]
	 SCS Opposite-Spin Energy  =      -1.1973558980902259 [Eh]
	 SCS Correlation Energy    =      -1.3012486544436033 [Eh]
	 SCS Total Energy          =    -323.6584135207163513 [Eh]
	-----------------------------------------------------------

  Dipole Moment: [D]
     X:     5.6319      Y:    -1.2269      Z:    -1.1185     Total:     5.8715

*** Psi4 exiting successfully. Buy a developer a beer!
