                               Psi4 1.3.2 release

  ==> Input File <==

--------------------------------------------------------------------------
#psi4
#
memory 32 gb

molecule  {
1 1
  O       -1.6624030     0.8291070    -0.2765410
  O       -1.1238540    -1.2691650     0.4354900
  N        1.4683924    -0.9956733    -0.1642440
  C        0.6010380     0.2049760    -0.3963400
  C        1.1187320     1.3933860     0.3994720
  C       -0.8301519    -0.1580544    -0.0367441
  H        0.6501100     0.4122580    -1.4678430
  H        1.1192750    -1.8168460    -0.6997980
  H        1.4281670    -1.2902280     0.8311830
  H        2.4275310    -0.8373030    -0.4139920
  H        1.0757850     1.1947520     1.4730540
  H        0.4939250     2.2572030     0.1746130
  H        2.1464930     1.6243000     0.1133420
  H       -2.5686030     0.5447890    -0.0239170
units angstrom
no_reorient  #important for SAPT in psi4, default
symmetry c1  #important for SAPT in psi4, default
}

set PROPERTIES_ORIGIN ["COM"]
properties('MP2/aug-cc-pvtz', properties = ['dipole'])
--------------------------------------------------------------------------

    Molecular point group: c1
  Charge       = 1
  Multiplicity = 1
  Basis Set: AUG-CC-PVTZ
    Blend: AUG-CC-PVTZ
  Basis Set: (AUG-CC-PVTZ AUX)
    Blend: AUG-CC-PVTZ-JKFIT

    Orbital Energies [Eh]
    ---------------------

    Doubly Occupied:

       1A    -20.794574     2A    -20.729522     3A    -15.899969
       4A    -11.578363     5A    -11.509158     6A    -11.416107
       7A     -1.646707     8A     -1.538891     9A     -1.511472
      10A     -1.256427    11A     -1.108289    12A     -1.017863
      13A     -0.985339    14A     -0.959063    15A     -0.887447
      16A     -0.866868    17A     -0.847280    18A     -0.814331
      19A     -0.770799    20A     -0.735792    21A     -0.731707
      22A     -0.715995    23A     -0.650183    24A     -0.634095

  @DF-RHF Final Energy:  -322.35595923842664

   => Energetics <=

    Nuclear Repulsion Energy =            260.0791958876112631
    One-Electron Energy =                -945.6578278756970803
    Two-Electron Energy =                 363.2226727496591820
    Total Energy =                       -322.3559592384266352
  Basis Set: (AUG-CC-PVTZ AUX)
    Blend: AUG-CC-PVTZ-RI
    Molecular point group: c1

    Geometry (in Angstrom), charge = 1, multiplicity = 1:

       Center              X                  Y                   Z               Mass
    ------------   -----------------  -----------------  -----------------  -----------------
         O           -1.590193768328     0.846787373486    -0.274604939205    15.994914619570
         O           -1.051644768328    -1.251484626514     0.437426060795    15.994914619570
         N            1.540601631672    -0.977992926514    -0.162307939205    14.003074004430
         C            0.673247231672     0.222656373486    -0.394403939205    12.000000000000
         C            1.190941231672     1.411066373486     0.401408060795    12.000000000000
         C           -0.757942668328    -0.140374026514    -0.034808039205    12.000000000000
         H            0.722319231672     0.429938373486    -1.465906939205     1.007825032230
         H            1.191484231672    -1.799165626514    -0.697861939205     1.007825032230
         H            1.500376231672    -1.272547626514     0.833119060795     1.007825032230
         H            2.499740231672    -0.819622626514    -0.412055939205     1.007825032230
         H            1.147994231672     1.212432373486     1.474990060795     1.007825032230
         H            0.566134231672     2.274883373486     0.176549060795     1.007825032230
         H            2.218702231672     1.641980373486     0.115278060795     1.007825032230
         H           -2.496393768328     0.562469373486    -0.021980939205     1.007825032230

  Basis Set: AUG-CC-PVTZ
    Blend: AUG-CC-PVTZ
  Basis Set: (AUG-CC-PVTZ AUX)
    Blend: AUG-CC-PVTZ-JKFIT
	 Reference Energy          =    -322.3559592384266352 [Eh]
	 Singles Energy            =      -0.0000000000000000 [Eh]
	 Same-Spin Energy          =      -0.3119404495455740 [Eh]
	 Opposite-Spin Energy      =      -0.9981501371540025 [Eh]
	 Correlation Energy        =      -1.3100905866995765 [Eh]
	 Total Energy              =    -323.6660498251262084 [Eh]

	 ================> DF-SCS-MP2 Energies <==================
	-----------------------------------------------------------
	 SCS Same-Spin Scale       =       0.3333333333333333 [-]
	 SCS Opposite-Spin Scale   =       1.2000000000000000 [-]
	 SCS Same-Spin Energy      =      -0.1039801498485247 [Eh]
	 SCS Opposite-Spin Energy  =      -1.1977801645848030 [Eh]
	 SCS Correlation Energy    =      -1.3017603144333276 [Eh]
	 SCS Total Energy          =    -323.6577195528599873 [Eh]
	-----------------------------------------------------------

  Dipole Moment: [D]
     X:     5.5602      Y:    -1.0726      Z:    -1.1316     Total:     5.7747

*** Psi4 exiting successfully. Buy a developer a beer!
