                               Psi4 1.3.2 release

  ==> Input File <==

--------------------------------------------------------------------------
#psi4
#
memory 32 gb

molecule  {
1 1
  O       -1.6624030     0.8291070    -0.2765410
  O       -1.1238540    -1.2691650     0.4354900
  N        1.4473370    -1.0090820    -0.1563980
  C        0.6010380     0.2049760    -0.3963400
  C        1.1187320     1.3933860     0.3994720
  C       -0.8065908    -0.1882473     0.0200268
  H        0.6872652     0.4199174    -1.4639812
  H        1.1192750    -1.8168460    -0.6997980
  H        1.4281670    -1.2902280     0.8311830
  H        2.4275310    -0.8373030    -0.4139920
  H        1.0757850     1.1947520     1.4730540
  H        0.4939250     2.2572030     0.1746130
  H        2.1464930     1.6243000     0.1133420
  H       -2.5686030     0.5447890    -0.0239170
units angstrom
no_reorient  #important for SAPT in psi4, default
symmetry c1  #important for SAPT in psi4, default
}

set PROPERTIES_ORIGIN ["COM"]
properties('MP2/aug-cc-pvtz', properties = ['dipole'])
--------------------------------------------------------------------------

    Molecular point group: c1
  Charge       = 1
  Multiplicity = 1
  Basis Set: AUG-CC-PVTZ
    Blend: AUG-CC-PVTZ
  Basis Set: (AUG-CC-PVTZ AUX)
    Blend: AUG-CC-PVTZ-JKFIT

    Orbital Energies [Eh]
    ---------------------

    Doubly Occupied:

       1A    -20.780214     2A    -20.740066     3A    -15.900556
       4A    -11.575696     5A    -11.509577     6A    -11.416031
       7A     -1.637290     8A     -1.546087     9A     -1.518440
      10A     -1.256344    11A     -1.105245    12A     -1.010621
      13A     -0.978165    14A     -0.965976    15A     -0.887597
      16A     -0.858770    17A     -0.846593    18A     -0.810054
      19A     -0.773799    20A     -0.736981    21A     -0.733489
      22A     -0.716793    23A     -0.661561    24A     -0.639141

  @DF-RHF Final Energy:  -322.35736022300625

   => Energetics <=

    Nuclear Repulsion Energy =            260.3486303593809907
    One-Electron Energy =                -946.2018064706613814
    Two-Electron Energy =                 363.4958158882741373
    Total Energy =                       -322.3573602230062534
  Basis Set: (AUG-CC-PVTZ AUX)
    Blend: AUG-CC-PVTZ-RI
    Molecular point group: c1

    Geometry (in Angstrom), charge = 1, multiplicity = 1:

       Center              X                  Y                   Z               Mass
    ------------   -----------------  -----------------  -----------------  -----------------
         O           -1.590475137209     0.852809864752    -0.283432949781    15.994914619570
         O           -1.051926137209    -1.245462135248     0.428598050219    15.994914619570
         N            1.519264862791    -0.985379135248    -0.163289949781    14.003074004430
         C            0.672965862791     0.228678864752    -0.403231949781    12.000000000000
         C            1.190659862791     1.417088864752     0.392580050219    12.000000000000
         C           -0.734662937209    -0.164544435248     0.013134850219    12.000000000000
         H            0.759193062791     0.443620264752    -1.470873149781     1.007825032230
         H            1.191202862791    -1.793143135248    -0.706689949781     1.007825032230
         H            1.500094862791    -1.266525135248     0.824291050219     1.007825032230
         H            2.499458862791    -0.813600135248    -0.420883949781     1.007825032230
         H            1.147712862791     1.218454864752     1.466162050219     1.007825032230
         H            0.565852862791     2.280905864752     0.167721050219     1.007825032230
         H            2.218420862791     1.648002864752     0.106450050219     1.007825032230
         H           -2.496675137209     0.568491864752    -0.030808949781     1.007825032230

  Basis Set: AUG-CC-PVTZ
    Blend: AUG-CC-PVTZ
  Basis Set: (AUG-CC-PVTZ AUX)
    Blend: AUG-CC-PVTZ-JKFIT
	 Reference Energy          =    -322.3573602230062534 [Eh]
	 Singles Energy            =      -0.0000000000000000 [Eh]
	 Same-Spin Energy          =      -0.3114124543170744 [Eh]
	 Opposite-Spin Energy      =      -0.9975404969762356 [Eh]
	 Correlation Energy        =      -1.3089529512933100 [Eh]
	 Total Energy              =    -323.6663131742995461 [Eh]

	 ================> DF-SCS-MP2 Energies <==================
	-----------------------------------------------------------
	 SCS Same-Spin Scale       =       0.3333333333333333 [-]
	 SCS Opposite-Spin Scale   =       1.2000000000000000 [-]
	 SCS Same-Spin Energy      =      -0.1038041514390248 [Eh]
	 SCS Opposite-Spin Energy  =      -1.1970485963714828 [Eh]
	 SCS Correlation Energy    =      -1.3008527478105076 [Eh]
	 SCS Total Energy          =    -323.6582129708167486 [Eh]
	-----------------------------------------------------------

  Dipole Moment: [D]
     X:     5.7733      Y:    -1.3708      Z:    -1.0167     Total:     6.0203

*** Psi4 exiting successfully. Buy a developer a beer!
