                               Psi4 1.3.2 release

  ==> Input File <==

--------------------------------------------------------------------------
#psi4
#
memory 32 gb

molecule  {
1 1
  O       -1.6624030     0.8291070    -0.2765410
  O       -1.1238540    -1.2691650     0.4354900
  N        1.4473370    -1.0090820    -0.1563980
  C        0.6010380     0.2049760    -0.3963400
  C        1.1187320     1.3933860     0.3994720
  C       -0.8221020    -0.1825100    -0.0303730
  H        0.6590937     0.4502054    -1.6640044
  H        1.1192750    -1.8168460    -0.6997980
  H        1.4281670    -1.2902280     0.8311830
  H        2.4275310    -0.8373030    -0.4139920
  H        1.0757850     1.1947520     1.4730540
  H        0.4939250     2.2572030     0.1746130
  H        2.1464930     1.6243000     0.1133420
  H       -2.5686030     0.5447890    -0.0239170
units angstrom
no_reorient  #important for SAPT in psi4, default
symmetry c1  #important for SAPT in psi4, default
}

set PROPERTIES_ORIGIN ["COM"]
properties('MP2/aug-cc-pvtz', properties = ['dipole'])
--------------------------------------------------------------------------

    Molecular point group: c1
  Charge       = 1
  Multiplicity = 1
  Basis Set: AUG-CC-PVTZ
    Blend: AUG-CC-PVTZ
  Basis Set: (AUG-CC-PVTZ AUX)
    Blend: AUG-CC-PVTZ-JKFIT

    Orbital Energies [Eh]
    ---------------------

    Doubly Occupied:

       1A    -20.786123     2A    -20.734668     3A    -15.901147
       4A    -11.576718     5A    -11.527028     6A    -11.417254
       7A     -1.638666     8A     -1.544027     9A     -1.514760
      10A     -1.248619    11A     -1.104777    12A     -1.004404
      13A     -0.976945    14A     -0.965391    15A     -0.883396
      16A     -0.859541    17A     -0.826515    18A     -0.810757
      19A     -0.770472    20A     -0.736704    21A     -0.733640
      22A     -0.697663    23A     -0.656061    24A     -0.635121

  @DF-RHF Final Energy:  -322.33834015045636

   => Energetics <=

    Nuclear Repulsion Energy =            259.3197729247075358
    One-Electron Energy =                -944.2154309670547718
    Two-Electron Energy =                 362.5573178918908752
    Total Energy =                       -322.3383401504563608
  Basis Set: (AUG-CC-PVTZ AUX)
    Blend: AUG-CC-PVTZ-RI
    Molecular point group: c1

    Geometry (in Angstrom), charge = 1, multiplicity = 1:

       Center              X                  Y                   Z               Mass
    ------------   -----------------  -----------------  -----------------  -----------------
         O           -1.588092980266     0.851706405211    -0.274478627651    15.994914619570
         O           -1.049543980266    -1.246565594789     0.437552372349    15.994914619570
         N            1.521647019734    -0.986482594789    -0.154335627651    14.003074004430
         C            0.675348019734     0.227575405211    -0.394277627651    12.000000000000
         C            1.193042019734     1.415985405211     0.401534372349    12.000000000000
         C           -0.747791980266    -0.159910594789    -0.028310627651    12.000000000000
         H            0.733403719734     0.472804805211    -1.661942027651     1.007825032230
         H            1.193585019734    -1.794246594789    -0.697735627651     1.007825032230
         H            1.502477019734    -1.267628594789     0.833245372349     1.007825032230
         H            2.501841019734    -0.814703594789    -0.411929627651     1.007825032230
         H            1.150095019734     1.217351405211     1.475116372349     1.007825032230
         H            0.568235019734     2.279802405211     0.176675372349     1.007825032230
         H            2.220803019734     1.646899405211     0.115404372349     1.007825032230
         H           -2.494292980266     0.567388405211    -0.021854627651     1.007825032230

  Basis Set: AUG-CC-PVTZ
    Blend: AUG-CC-PVTZ
  Basis Set: (AUG-CC-PVTZ AUX)
    Blend: AUG-CC-PVTZ-JKFIT
	 Reference Energy          =    -322.3383401504563608 [Eh]
	 Singles Energy            =      -0.0000000000000000 [Eh]
	 Same-Spin Energy          =      -0.3120471457101171 [Eh]
	 Opposite-Spin Energy      =      -0.9995944245463586 [Eh]
	 Correlation Energy        =      -1.3116415702564757 [Eh]
	 Total Energy              =    -323.6499817207128444 [Eh]

	 ================> DF-SCS-MP2 Energies <==================
	-----------------------------------------------------------
	 SCS Same-Spin Scale       =       0.3333333333333333 [-]
	 SCS Opposite-Spin Scale   =       1.2000000000000000 [-]
	 SCS Same-Spin Energy      =      -0.1040157152367057 [Eh]
	 SCS Opposite-Spin Energy  =      -1.1995133094556303 [Eh]
	 SCS Correlation Energy    =      -1.3035290246923359 [Eh]
	 SCS Total Energy          =    -323.6418691751487131 [Eh]
	-----------------------------------------------------------

  Dipole Moment: [D]
     X:     5.6898      Y:    -1.1923      Z:    -1.1179     Total:     5.9199

*** Psi4 exiting successfully. Buy a developer a beer!
