                               Psi4 1.3.2 release

  ==> Input File <==

--------------------------------------------------------------------------
#psi4
#
memory 32 gb

molecule  {
1 1
  O       -1.6624030     0.8291070    -0.2765410
  O       -1.1238540    -1.2691650     0.4354900
  N        1.4473370    -1.0090820    -0.1563980
  C        0.6085287     0.2117680    -0.3880375
  C        1.1187320     1.3933860     0.3994720
  C       -0.8221020    -0.1825100    -0.0303730
  H        0.6501100     0.4122580    -1.4678430
  H        1.1258855    -1.8218123    -0.6963325
  H        1.4281670    -1.2902280     0.8311830
  H        2.4275310    -0.8373030    -0.4139920
  H        1.0757850     1.1947520     1.4730540
  H        0.4939250     2.2572030     0.1746130
  H        2.1464930     1.6243000     0.1133420
  H       -2.5686030     0.5447890    -0.0239170
units angstrom
no_reorient  #important for SAPT in psi4, default
symmetry c1  #important for SAPT in psi4, default
}

set PROPERTIES_ORIGIN ["COM"]
properties('MP2/aug-cc-pvtz', properties = ['dipole'])
--------------------------------------------------------------------------

    Molecular point group: c1
  Charge       = 1
  Multiplicity = 1
  Basis Set: AUG-CC-PVTZ
    Blend: AUG-CC-PVTZ
  Basis Set: (AUG-CC-PVTZ AUX)
    Blend: AUG-CC-PVTZ-JKFIT

    Orbital Energies [Eh]
    ---------------------

    Doubly Occupied:

       1A    -20.786827     2A    -20.734415     3A    -15.900395
       4A    -11.576202     5A    -11.509775     6A    -11.415812
       7A     -1.638880     8A     -1.544067     9A     -1.515558
      10A     -1.257397    11A     -1.107101    12A     -1.012045
      13A     -0.979270    14A     -0.965559    15A     -0.886450
      16A     -0.859083    17A     -0.847075    18A     -0.812019
      19A     -0.771873    20A     -0.739143    21A     -0.734391
      22A     -0.715606    23A     -0.656520    24A     -0.635775

  @DF-RHF Final Energy:  -322.35854179007225

   => Energetics <=

    Nuclear Repulsion Energy =            260.2446440327661890
    One-Electron Energy =                -946.0038989539667682
    Two-Electron Energy =                 363.4007131311283842
    Total Energy =                       -322.3585417900722518
  Basis Set: (AUG-CC-PVTZ AUX)
    Blend: AUG-CC-PVTZ-RI
    Molecular point group: c1

    Geometry (in Angstrom), charge = 1, multiplicity = 1:

       Center              X                  Y                   Z               Mass
    ------------   -----------------  -----------------  -----------------  -----------------
         O           -1.589064565858     0.851281617192    -0.277819000812    15.994914619570
         O           -1.050515565858    -1.246990382808     0.434211999188    15.994914619570
         N            1.520675434142    -0.986907382808    -0.157676000812    14.003074004430
         C            0.681867134142     0.233942617192    -0.389315500812    12.000000000000
         C            1.192070434142     1.415560617192     0.398193999188    12.000000000000
         C           -0.748763565858    -0.160335382808    -0.031651000812    12.000000000000
         H            0.723448434142     0.434432617192    -1.469121000812     1.007825032230
         H            1.199223934142    -1.799637682808    -0.697610500812     1.007825032230
         H            1.501505434142    -1.268053382808     0.829904999188     1.007825032230
         H            2.500869434142    -0.815128382808    -0.415270000812     1.007825032230
         H            1.149123434142     1.216926617192     1.471775999188     1.007825032230
         H            0.567263434142     2.279377617192     0.173334999188     1.007825032230
         H            2.219831434142     1.646474617192     0.112063999188     1.007825032230
         H           -2.495264565858     0.566963617192    -0.025195000812     1.007825032230

  Basis Set: AUG-CC-PVTZ
    Blend: AUG-CC-PVTZ
  Basis Set: (AUG-CC-PVTZ AUX)
    Blend: AUG-CC-PVTZ-JKFIT
	 Reference Energy          =    -322.3585417900722518 [Eh]
	 Singles Energy            =      -0.0000000000000000 [Eh]
	 Same-Spin Energy          =      -0.3116762302652459 [Eh]
	 Opposite-Spin Energy      =      -0.9977088578248292 [Eh]
	 Correlation Energy        =      -1.3093850880900750 [Eh]
	 Total Energy              =    -323.6679268781623477 [Eh]

	 ================> DF-SCS-MP2 Energies <==================
	-----------------------------------------------------------
	 SCS Same-Spin Scale       =       0.3333333333333333 [-]
	 SCS Opposite-Spin Scale   =       1.2000000000000000 [-]
	 SCS Same-Spin Energy      =      -0.1038920767550820 [Eh]
	 SCS Opposite-Spin Energy  =      -1.1972506293897951 [Eh]
	 SCS Correlation Energy    =      -1.3011427061448770 [Eh]
	 SCS Total Energy          =    -323.6596844962171531 [Eh]
	-----------------------------------------------------------

  Dipole Moment: [D]
     X:     5.6820      Y:    -1.2218      Z:    -1.0807     Total:     5.9115

*** Psi4 exiting successfully. Buy a developer a beer!
