                               Psi4 1.4a3.dev225

  ==> Input File <==

--------------------------------------------------------------------------
#psi4
#
memory 32 gb

molecule  {
1 1
  O       -1.6123010     0.9094490    -0.1675920
  O       -1.1928110    -1.2795120     0.3034070
  N        1.4156850    -1.0522820    -0.0637630
  C        0.6095860     0.1674070    -0.3957710
  C        1.1650120     1.3928430     0.3122100
  C       -0.8284910    -0.1652490    -0.0350320
  H        0.6656880     0.2905790    -1.4809690
  H        0.9122540    -1.9066690    -0.3390640
  H        1.5920220    -1.1264780     0.9462830
  H        2.3268530    -1.0442670    -0.5383350
  H        1.0907020     1.2862690     1.3970100
  H        0.5903660     2.2672430     0.0071660
  H        2.2096640     1.5504630     0.0359860
  H       -2.5518320     0.6338344     0.0475879
units angstrom
no_reorient  #important for SAPT in psi4, default
symmetry c1  #important for SAPT in psi4, default
}

set PROPERTIES_ORIGIN ["COM"]
properties('MP2/aug-cc-pvtz', properties = ['dipole'])
--------------------------------------------------------------------------

    Molecular point group: c1
  Charge       = 1
  Multiplicity = 1
  Basis Set: AUG-CC-PVTZ
    Blend: AUG-CC-PVTZ
  Basis Set: (AUG-CC-PVTZ AUX)
    Blend: AUG-CC-PVTZ-JKFIT

    Orbital Energies [Eh]
    ---------------------

    Doubly Occupied:

       1A    -20.789131     2A    -20.735171     3A    -15.898505
       4A    -11.576648     5A    -11.509229     6A    -11.415513
       7A     -1.638636     8A     -1.543892     9A     -1.514179
      10A     -1.254560    11A     -1.107174    12A     -1.011053
      13A     -0.977754    14A     -0.963757    15A     -0.886100
      16A     -0.857776    17A     -0.852333    18A     -0.806984
      19A     -0.771697    20A     -0.736073    21A     -0.733949
      22A     -0.716130    23A     -0.657162    24A     -0.637799

  @DF-RHF Final Energy:  -322.35738834800389

   => Energetics <=

    Nuclear Repulsion Energy =            260.2786837954633370
    One-Electron Energy =                -946.0897295572136727
    Two-Electron Energy =                 363.4536574137464982
    Total Energy =                       -322.3573883480038944
  Basis Set: (AUG-CC-PVTZ AUX)
    Blend: AUG-CC-PVTZ-RI
    Molecular point group: c1

    Geometry (in Angstrom), charge = 1, multiplicity = 1:

       Center              X                  Y                   Z               Mass
    ------------   -----------------  -----------------  -----------------  -----------------
         O           -1.536779858636     0.931080725937    -0.166843709271    15.994914619570
         O           -1.117289858636    -1.257880274063     0.304155290729    15.994914619570
         N            1.491206141364    -1.030650274063    -0.063014709271    14.003074004430
         C            0.685107141364     0.189038725937    -0.395022709271    12.000000000000
         C            1.240533141364     1.414474725937     0.312958290729    12.000000000000
         C           -0.752969858636    -0.143617274063    -0.034283709271    12.000000000000
         H            0.741209141364     0.312210725937    -1.480220709271     1.007825032230
         H            0.987775141364    -1.885037274063    -0.338315709271     1.007825032230
         H            1.667543141364    -1.104846274063     0.947031290729     1.007825032230
         H            2.402374141364    -1.022635274063    -0.537586709271     1.007825032230
         H            1.166223141364     1.307900725937     1.397758290729     1.007825032230
         H            0.665887141364     2.288874725937     0.007914290729     1.007825032230
         H            2.285185141364     1.572094725937     0.036734290729     1.007825032230
         H           -2.476310858636     0.655466125937     0.048336190729     1.007825032230

  Basis Set: AUG-CC-PVTZ
    Blend: AUG-CC-PVTZ
  Basis Set: (AUG-CC-PVTZ AUX)
    Blend: AUG-CC-PVTZ-JKFIT
	 Reference Energy          =    -322.3573883480038944 [Eh]
	 Singles Energy            =      -0.0000000000000000 [Eh]
	 Same-Spin Energy          =      -0.3120183929523208 [Eh]
	 Opposite-Spin Energy      =      -0.9984029652200168 [Eh]
	 Correlation Energy        =      -1.3104213581723376 [Eh]
	 Total Energy              =    -323.6678097061762287 [Eh]

	 ================> DF-SCS-MP2 Energies <==================
	-----------------------------------------------------------
	 SCS Same-Spin Scale       =       0.3333333333333333 [-]
	 SCS Opposite-Spin Scale   =       1.2000000000000000 [-]
	 SCS Same-Spin Energy      =      -0.1040061309841069 [Eh]
	 SCS Opposite-Spin Energy  =      -1.1980835582640201 [Eh]
	 SCS Correlation Energy    =      -1.3020896892481271 [Eh]
	 SCS Total Energy          =    -323.6594780372520290 [Eh]
	-----------------------------------------------------------

  Dipole Moment: [D]
     X:     5.5828      Y:    -1.3146      Z:    -0.6525     Total:     5.7724

*** Psi4 exiting successfully. Buy a developer a beer!
