                               Psi4 1.3.2 release

  ==> Input File <==

--------------------------------------------------------------------------
#psi4
#
memory 32 gb

molecule  {
1 1
  O       -1.6624030     0.8291070    -0.2765410
  O       -1.1238540    -1.2691650     0.4354900
  N        1.4367122    -1.0156479    -0.1525023
  C        0.6010380     0.2049760    -0.3963400
  C        1.1187320     1.3933860     0.3994720
  C       -0.8179144    -0.1946940    -0.0272291
  H        0.6501100     0.4122580    -1.4678430
  H        1.1192750    -1.8168460    -0.6997980
  H        1.4281670    -1.2902280     0.8311830
  H        2.4275310    -0.8373030    -0.4139920
  H        1.0757850     1.1947520     1.4730540
  H        0.4939250     2.2572030     0.1746130
  H        2.1464930     1.6243000     0.1133420
  H       -2.5686030     0.5447890    -0.0239170
units angstrom
no_reorient  #important for SAPT in psi4, default
symmetry c1  #important for SAPT in psi4, default
}

set PROPERTIES_ORIGIN ["COM"]
properties('MP2/aug-cc-pvtz', properties = ['dipole'])
--------------------------------------------------------------------------

    Molecular point group: c1
  Charge       = 1
  Multiplicity = 1
  Basis Set: AUG-CC-PVTZ
    Blend: AUG-CC-PVTZ
  Basis Set: (AUG-CC-PVTZ AUX)
    Blend: AUG-CC-PVTZ-JKFIT

    Orbital Energies [Eh]
    ---------------------

    Doubly Occupied:

       1A    -20.783015     2A    -20.736848     3A    -15.900677
       4A    -11.574965     5A    -11.509385     6A    -11.416710
       7A     -1.637409     8A     -1.545791     9A     -1.516990
      10A     -1.255848    11A     -1.107432    12A     -1.010543
      13A     -0.977666    14A     -0.967146    15A     -0.887405
      16A     -0.856357    17A     -0.848371    18A     -0.810579
      19A     -0.772062    20A     -0.737173    21A     -0.734827
      22A     -0.717034    23A     -0.659268    24A     -0.637546

  @DF-RHF Final Energy:  -322.35882266840048

   => Energetics <=

    Nuclear Repulsion Energy =            260.3641429193357339
    One-Electron Energy =                -946.2438383310739027
    Two-Electron Energy =                 363.5208727433376339
    Total Energy =                       -322.3588226684004781
  Basis Set: (AUG-CC-PVTZ AUX)
    Blend: AUG-CC-PVTZ-RI
    Molecular point group: c1

    Geometry (in Angstrom), charge = 1, multiplicity = 1:

       Center              X                  Y                   Z               Mass
    ------------   -----------------  -----------------  -----------------  -----------------
         O           -1.586898354127     0.854775569365    -0.277698585714    15.994914619570
         O           -1.048349354127    -1.243496430635     0.434332414286    15.994914619570
         N            1.512216845873    -0.989979330635    -0.153659885714    14.003074004430
         C            0.676542645873     0.230644569365    -0.397497585714    12.000000000000
         C            1.194236645873     1.419054569365     0.398314414286    12.000000000000
         C           -0.742409754127    -0.169025430635    -0.028386685714    12.000000000000
         H            0.725614645873     0.437926569365    -1.469000585714     1.007825032230
         H            1.194779645873    -1.791177430635    -0.700955585714     1.007825032230
         H            1.503671645873    -1.264559430635     0.830025414286     1.007825032230
         H            2.503035645873    -0.811634430635    -0.415149585714     1.007825032230
         H            1.151289645873     1.220420569365     1.471896414286     1.007825032230
         H            0.569429645873     2.282871569365     0.173455414286     1.007825032230
         H            2.221997645873     1.649968569365     0.112184414286     1.007825032230
         H           -2.493098354127     0.570457569365    -0.025074585714     1.007825032230

  Basis Set: AUG-CC-PVTZ
    Blend: AUG-CC-PVTZ
  Basis Set: (AUG-CC-PVTZ AUX)
    Blend: AUG-CC-PVTZ-JKFIT
	 Reference Energy          =    -322.3588226684004781 [Eh]
	 Singles Energy            =      -0.0000000000000000 [Eh]
	 Same-Spin Energy          =      -0.3114537722325721 [Eh]
	 Opposite-Spin Energy      =      -0.9974350321652281 [Eh]
	 Correlation Energy        =      -1.3088888043978002 [Eh]
	 Total Energy              =    -323.6677114727982598 [Eh]

	 ================> DF-SCS-MP2 Energies <==================
	-----------------------------------------------------------
	 SCS Same-Spin Scale       =       0.3333333333333333 [-]
	 SCS Opposite-Spin Scale   =       1.2000000000000000 [-]
	 SCS Same-Spin Energy      =      -0.1038179240775240 [Eh]
	 SCS Opposite-Spin Energy  =      -1.1969220385982737 [Eh]
	 SCS Correlation Energy    =      -1.3007399626757978 [Eh]
	 SCS Total Energy          =    -323.6595626310762555 [Eh]
	-----------------------------------------------------------

  Dipole Moment: [D]
     X:     5.7444      Y:    -1.2918      Z:    -1.0655     Total:     5.9834

*** Psi4 exiting successfully. Buy a developer a beer!
