                               Psi4 1.3.2 release

  ==> Input File <==

--------------------------------------------------------------------------
#psi4
#
memory 32 gb

molecule  {
1 1
  O       -1.6624030     0.8291070    -0.2765410
  O       -1.0828431    -1.2805096     0.4336449
  N        1.4473370    -1.0090820    -0.1563980
  C        0.6172191     0.1570797    -0.3802848
  C        1.1187320     1.3933860     0.3994720
  C       -0.8221020    -0.1825100    -0.0303730
  H        0.6501100     0.4122580    -1.4678430
  H        1.1192750    -1.8168460    -0.6997980
  H        1.4281670    -1.2902280     0.8311830
  H        2.4275310    -0.8373030    -0.4139920
  H        1.0757850     1.1947520     1.4730540
  H        0.4939250     2.2572030     0.1746130
  H        2.1464930     1.6243000     0.1133420
  H       -2.5686030     0.5447890    -0.0239170
units angstrom
no_reorient  #important for SAPT in psi4, default
symmetry c1  #important for SAPT in psi4, default
}

set PROPERTIES_ORIGIN ["COM"]
properties('MP2/aug-cc-pvtz', properties = ['dipole'])
--------------------------------------------------------------------------

    Molecular point group: c1
  Charge       = 1
  Multiplicity = 1
  Basis Set: AUG-CC-PVTZ
    Blend: AUG-CC-PVTZ
  Basis Set: (AUG-CC-PVTZ AUX)
    Blend: AUG-CC-PVTZ-JKFIT

    Orbital Energies [Eh]
    ---------------------

    Doubly Occupied:

       1A    -20.790350     2A    -20.733289     3A    -15.904257
       4A    -11.576001     5A    -11.504395     6A    -11.415898
       7A     -1.639150     8A     -1.551199     9A     -1.524446
      10A     -1.248200    11A     -1.105100    12A     -1.017179
      13A     -0.986816    14A     -0.972470    15A     -0.887477
      16A     -0.867479    17A     -0.844248    18A     -0.810223
      19A     -0.769957    20A     -0.737127    21A     -0.729595
      22A     -0.706701    23A     -0.657603    24A     -0.633905

  @DF-RHF Final Energy:  -322.35570391642227

   => Energetics <=

    Nuclear Repulsion Energy =            260.7776003852804934
    One-Electron Energy =                -947.0404768873062267
    Two-Electron Energy =                 363.9071725856034618
    Total Energy =                       -322.3557039164222715
  Basis Set: (AUG-CC-PVTZ AUX)
    Blend: AUG-CC-PVTZ-RI
    Molecular point group: c1

    Geometry (in Angstrom), charge = 1, multiplicity = 1:

       Center              X                  Y                   Z               Mass
    ------------   -----------------  -----------------  -----------------  -----------------
         O           -1.597432609867     0.860528251929    -0.278485562688    15.994914619570
         O           -1.017872709867    -1.249088348071     0.431700337312    15.994914619570
         N            1.512307390133    -0.977660748071    -0.158342562688    14.003074004430
         C            0.682189490133     0.188500951929    -0.382229362688    12.000000000000
         C            1.183702390133     1.424807251929     0.397527437312    12.000000000000
         C           -0.757131609867    -0.151088748071    -0.032317562688    12.000000000000
         H            0.715080390133     0.443679251929    -1.469787562688     1.007825032230
         H            1.184245390133    -1.785424748071    -0.701742562688     1.007825032230
         H            1.493137390133    -1.258806748071     0.829238437312     1.007825032230
         H            2.492501390133    -0.805881748071    -0.415936562688     1.007825032230
         H            1.140755390133     1.226173251929     1.471109437312     1.007825032230
         H            0.558895390133     2.288624251929     0.172668437312     1.007825032230
         H            2.211463390133     1.655721251929     0.111397437312     1.007825032230
         H           -2.503632609867     0.576210251929    -0.025861562688     1.007825032230

  Basis Set: AUG-CC-PVTZ
    Blend: AUG-CC-PVTZ
  Basis Set: (AUG-CC-PVTZ AUX)
    Blend: AUG-CC-PVTZ-JKFIT
	 Reference Energy          =    -322.3557039164222715 [Eh]
	 Singles Energy            =      -0.0000000000000000 [Eh]
	 Same-Spin Energy          =      -0.3118173977381063 [Eh]
	 Opposite-Spin Energy      =      -0.9976139973052419 [Eh]
	 Correlation Energy        =      -1.3094313950433483 [Eh]
	 Total Energy              =    -323.6651353114656331 [Eh]

	 ================> DF-SCS-MP2 Energies <==================
	-----------------------------------------------------------
	 SCS Same-Spin Scale       =       0.3333333333333333 [-]
	 SCS Opposite-Spin Scale   =       1.2000000000000000 [-]
	 SCS Same-Spin Energy      =      -0.1039391325793688 [Eh]
	 SCS Opposite-Spin Energy  =      -1.1971367967662903 [Eh]
	 SCS Correlation Energy    =      -1.3010759293456591 [Eh]
	 SCS Total Energy          =    -323.6567798457679146 [Eh]
	-----------------------------------------------------------

  Dipole Moment: [D]
     X:     5.5911      Y:    -1.2596      Z:    -1.0878     Total:     5.8335

*** Psi4 exiting successfully. Buy a developer a beer!
