                               Psi4 1.3.2 release

  ==> Input File <==

--------------------------------------------------------------------------
#psi4
#
memory 32 gb

molecule  {
1 1
  O       -1.6624030     0.8291070    -0.2765410
  O       -1.1238540    -1.2691650     0.4354900
  N        1.4473370    -1.0090820    -0.1563980
  C        0.6010380     0.2049760    -0.3963400
  C        1.1187320     1.3933860     0.3994720
  C       -0.8221020    -0.1825100    -0.0303730
  H        0.6501100     0.4122580    -1.4678430
  H        1.0873413    -1.8954741    -0.7526928
  H        1.4281670    -1.2902280     0.8311830
  H        2.4275310    -0.8373030    -0.4139920
  H        1.0757850     1.1947520     1.4730540
  H        0.4939250     2.2572030     0.1746130
  H        2.1464930     1.6243000     0.1133420
  H       -2.5686030     0.5447890    -0.0239170
units angstrom
no_reorient  #important for SAPT in psi4, default
symmetry c1  #important for SAPT in psi4, default
}

set PROPERTIES_ORIGIN ["COM"]
properties('MP2/aug-cc-pvtz', properties = ['dipole'])
--------------------------------------------------------------------------

    Molecular point group: c1
  Charge       = 1
  Multiplicity = 1
  Basis Set: AUG-CC-PVTZ
    Blend: AUG-CC-PVTZ
  Basis Set: (AUG-CC-PVTZ AUX)
    Blend: AUG-CC-PVTZ-JKFIT

    Orbital Energies [Eh]
    ---------------------

    Doubly Occupied:

       1A    -20.786251     2A    -20.733654     3A    -15.904690
       4A    -11.575199     5A    -11.507764     6A    -11.415588
       7A     -1.638343     8A     -1.541871     9A     -1.503344
      10A     -1.251474    11A     -1.106230    12A     -1.010393
      13A     -0.976209    14A     -0.935936    15A     -0.885688
      16A     -0.858182    17A     -0.846175    18A     -0.809443
      19A     -0.770902    20A     -0.734666    21A     -0.731588
      22A     -0.715641    23A     -0.655964    24A     -0.635806

  @DF-RHF Final Energy:  -322.34963074217490

   => Energetics <=

    Nuclear Repulsion Energy =            259.7824455345152614
    One-Electron Energy =                -945.2021512946639632
    Two-Electron Energy =                 363.0700750179737497
    Total Energy =                       -322.3496307421748952
  Basis Set: (AUG-CC-PVTZ AUX)
    Blend: AUG-CC-PVTZ-RI
    Molecular point group: c1

    Geometry (in Angstrom), charge = 1, multiplicity = 1:

       Center              X                  Y                   Z               Mass
    ------------   -----------------  -----------------  -----------------  -----------------
         O           -1.587635067331     0.853011019615    -0.276081946272    15.994914619570
         O           -1.049086067331    -1.245260980385     0.435949053728    15.994914619570
         N            1.522104932669    -0.985177980385    -0.155938946272    14.003074004430
         C            0.675805932669     0.228880019615    -0.395880946272    12.000000000000
         C            1.193499932669     1.417290019615     0.399931053728    12.000000000000
         C           -0.747334067331    -0.158605980385    -0.029913946272    12.000000000000
         H            0.724877932669     0.436162019615    -1.467383946272     1.007825032230
         H            1.162109232669    -1.871570080385    -0.752233746272     1.007825032230
         H            1.502934932669    -1.266323980385     0.831642053728     1.007825032230
         H            2.502298932669    -0.813398980385    -0.413532946272     1.007825032230
         H            1.150552932669     1.218656019615     1.473513053728     1.007825032230
         H            0.568692932669     2.281107019615     0.175072053728     1.007825032230
         H            2.221260932669     1.648204019615     0.113801053728     1.007825032230
         H           -2.493835067331     0.568693019615    -0.023457946272     1.007825032230

  Basis Set: AUG-CC-PVTZ
    Blend: AUG-CC-PVTZ
  Basis Set: (AUG-CC-PVTZ AUX)
    Blend: AUG-CC-PVTZ-JKFIT
	 Reference Energy          =    -322.3496307421748952 [Eh]
	 Singles Energy            =      -0.0000000000000000 [Eh]
	 Same-Spin Energy          =      -0.3122019955336744 [Eh]
	 Opposite-Spin Energy      =      -0.9993968910534899 [Eh]
	 Correlation Energy        =      -1.3115988865871644 [Eh]
	 Total Energy              =    -323.6612296287620438 [Eh]

	 ================> DF-SCS-MP2 Energies <==================
	-----------------------------------------------------------
	 SCS Same-Spin Scale       =       0.3333333333333333 [-]
	 SCS Opposite-Spin Scale   =       1.2000000000000000 [-]
	 SCS Same-Spin Energy      =      -0.1040673318445581 [Eh]
	 SCS Opposite-Spin Energy  =      -1.1992762692641878 [Eh]
	 SCS Correlation Energy    =      -1.3033436011087460 [Eh]
	 SCS Total Energy          =    -323.6529743432836312 [Eh]
	-----------------------------------------------------------

  Dipole Moment: [D]
     X:     5.6424      Y:    -1.3459      Z:    -1.1698     Total:     5.9174

*** Psi4 exiting successfully. Buy a developer a beer!
