                               Psi4 1.3.2 release

  ==> Input File <==

--------------------------------------------------------------------------
#psi4
#
memory 32 gb

molecule  {
1 1
  O       -1.6262779     0.8542292    -0.2921864
  O       -1.0829352    -1.2807315     0.4330678
  N        1.4473370    -1.0090820    -0.1563980
  C        0.6010380     0.2049760    -0.3963400
  C        1.1187320     1.3933860     0.3994720
  C       -0.8221020    -0.1825100    -0.0303730
  H        0.6501100     0.4122580    -1.4678430
  H        1.1192750    -1.8168460    -0.6997980
  H        1.4281670    -1.2902280     0.8311830
  H        2.4275310    -0.8373030    -0.4139920
  H        1.0757850     1.1947520     1.4730540
  H        0.4939250     2.2572030     0.1746130
  H        2.1464930     1.6243000     0.1133420
  H       -2.5686030     0.5447890    -0.0239170
units angstrom
no_reorient  #important for SAPT in psi4, default
symmetry c1  #important for SAPT in psi4, default
}

set PROPERTIES_ORIGIN ["COM"]
properties('MP2/aug-cc-pvtz', properties = ['dipole'])
--------------------------------------------------------------------------

    Molecular point group: c1
  Charge       = 1
  Multiplicity = 1
  Basis Set: AUG-CC-PVTZ
    Blend: AUG-CC-PVTZ
  Basis Set: (AUG-CC-PVTZ AUX)
    Blend: AUG-CC-PVTZ-JKFIT

    Orbital Energies [Eh]
    ---------------------

    Doubly Occupied:

       1A    -20.795978     2A    -20.737230     3A    -15.897205
       4A    -11.577012     5A    -11.504371     6A    -11.414279
       7A     -1.636831     8A     -1.547188     9A     -1.512963
      10A     -1.252374    11A     -1.104159    12A     -1.005765
      13A     -0.974474    14A     -0.962882    15A     -0.888965
      16A     -0.856846    17A     -0.845024    18A     -0.812017
      19A     -0.771047    20A     -0.734757    21A     -0.733877
      22A     -0.714906    23A     -0.660464    24A     -0.636113

  @DF-RHF Final Energy:  -322.35313305372182

   => Energetics <=

    Nuclear Repulsion Energy =            260.5463652581651672
    One-Electron Energy =                -946.6455434822571533
    Two-Electron Energy =                 363.7460451703701096
    Total Energy =                       -322.3531330537218196
  Basis Set: (AUG-CC-PVTZ AUX)
    Blend: AUG-CC-PVTZ-RI
    Molecular point group: c1

    Geometry (in Angstrom), charge = 1, multiplicity = 1:

       Center              X                  Y                   Z               Mass
    ------------   -----------------  -----------------  -----------------  -----------------
         O           -1.565551243383     0.874845628963    -0.289110282276    15.994914619570
         O           -1.022208543383    -1.260115071037     0.436143917724    15.994914619570
         N            1.508063656617    -0.988465571037    -0.153321882276    14.003074004430
         C            0.661764656617     0.225592428963    -0.393263882276    12.000000000000
         C            1.179458656617     1.414002428963     0.402548117724    12.000000000000
         C           -0.761375343383    -0.161893571037    -0.027296882276    12.000000000000
         H            0.710836656617     0.432874428963    -1.464766882276     1.007825032230
         H            1.180001656617    -1.796229571037    -0.696721882276     1.007825032230
         H            1.488893656617    -1.269611571037     0.834259117724     1.007825032230
         H            2.488257656617    -0.816686571037    -0.410915882276     1.007825032230
         H            1.136511656617     1.215368428963     1.476130117724     1.007825032230
         H            0.554651656617     2.277819428963     0.177689117724     1.007825032230
         H            2.207219656617     1.644916428963     0.116418117724     1.007825032230
         H           -2.507876343383     0.565405428963    -0.020840882276     1.007825032230

  Basis Set: AUG-CC-PVTZ
    Blend: AUG-CC-PVTZ
  Basis Set: (AUG-CC-PVTZ AUX)
    Blend: AUG-CC-PVTZ-JKFIT
	 Reference Energy          =    -322.3531330537218196 [Eh]
	 Singles Energy            =      -0.0000000000000000 [Eh]
	 Same-Spin Energy          =      -0.3125909513866146 [Eh]
	 Opposite-Spin Energy      =      -0.9996887839702706 [Eh]
	 Correlation Energy        =      -1.3122797353568851 [Eh]
	 Total Energy              =    -323.6654127890786867 [Eh]

	 ================> DF-SCS-MP2 Energies <==================
	-----------------------------------------------------------
	 SCS Same-Spin Scale       =       0.3333333333333333 [-]
	 SCS Opposite-Spin Scale   =       1.2000000000000000 [-]
	 SCS Same-Spin Energy      =      -0.1041969837955382 [Eh]
	 SCS Opposite-Spin Energy  =      -1.1996265407643247 [Eh]
	 SCS Correlation Energy    =      -1.3038235245598628 [Eh]
	 SCS Total Energy          =    -323.6569565782816653 [Eh]
	-----------------------------------------------------------

  Dipole Moment: [D]
     X:     5.3749      Y:    -1.2194      Z:    -1.0498     Total:     5.6106

*** Psi4 exiting successfully. Buy a developer a beer!
