                               Psi4 1.3.2 release

  ==> Input File <==

--------------------------------------------------------------------------
#psi4
#
memory 32 gb

molecule  {
1 1
  O       -1.6624030     0.8291070    -0.2765410
  O       -1.1238540    -1.2691650     0.4354900
  N        1.4473370    -1.0090820    -0.1563980
  C        0.6160833     0.2184671    -0.3797174
  C        1.1187320     1.3933860     0.3994720
  C       -0.8221020    -0.1825100    -0.0303730
  H        0.6501100     0.4122580    -1.4678430
  H        1.1325204    -1.8267167    -0.6928259
  H        1.4281670    -1.2902280     0.8311830
  H        2.4275310    -0.8373030    -0.4139920
  H        1.0757850     1.1947520     1.4730540
  H        0.4939250     2.2572030     0.1746130
  H        2.1464930     1.6243000     0.1133420
  H       -2.5686030     0.5447890    -0.0239170
units angstrom
no_reorient  #important for SAPT in psi4, default
symmetry c1  #important for SAPT in psi4, default
}

set PROPERTIES_ORIGIN ["COM"]
properties('MP2/aug-cc-pvtz', properties = ['dipole'])
--------------------------------------------------------------------------

    Molecular point group: c1
  Charge       = 1
  Multiplicity = 1
  Basis Set: AUG-CC-PVTZ
    Blend: AUG-CC-PVTZ
  Basis Set: (AUG-CC-PVTZ AUX)
    Blend: AUG-CC-PVTZ-JKFIT

    Orbital Energies [Eh]
    ---------------------

    Doubly Occupied:

       1A    -20.786751     2A    -20.734379     3A    -15.900347
       4A    -11.576283     5A    -11.510321     6A    -11.415140
       7A     -1.638597     8A     -1.543863     9A     -1.515648
      10A     -1.258926    11A     -1.106538    12A     -1.011530
      13A     -0.979205    14A     -0.965425    15A     -0.886020
      16A     -0.858266    17A     -0.846188    18A     -0.812521
      19A     -0.772028    20A     -0.742055    21A     -0.734367
      22A     -0.714301    23A     -0.656489    24A     -0.634845

  @DF-RHF Final Energy:  -322.35772615276437

   => Energetics <=

    Nuclear Repulsion Energy =            260.2274957777186160
    One-Electron Energy =                -945.9703785494436943
    Two-Electron Energy =                 363.3851566189607638
    Total Energy =                       -322.3577261527643714
  Basis Set: (AUG-CC-PVTZ AUX)
    Blend: AUG-CC-PVTZ-RI
    Molecular point group: c1

    Geometry (in Angstrom), charge = 1, multiplicity = 1:

       Center              X                  Y                   Z               Mass
    ------------   -----------------  -----------------  -----------------  -----------------
         O           -1.590145477235     0.850443840266    -0.278966906661    15.994914619570
         O           -1.051596477235    -1.247828159734     0.433064093339    15.994914619570
         N            1.519594522765    -0.987745159734    -0.158823906661    14.003074004430
         C            0.688340822765     0.239803940266    -0.382143306661    12.000000000000
         C            1.190989522765     1.414722840266     0.397046093339    12.000000000000
         C           -0.749844477235    -0.161173159734    -0.032798906661    12.000000000000
         H            0.722367522765     0.433594840266    -1.470268906661     1.007825032230
         H            1.204777922765    -1.805379859734    -0.695251806661     1.007825032230
         H            1.500424522765    -1.268891159734     0.828757093339     1.007825032230
         H            2.499788522765    -0.815966159734    -0.416417906661     1.007825032230
         H            1.148042522765     1.216088840266     1.470628093339     1.007825032230
         H            0.566182522765     2.278539840266     0.172187093339     1.007825032230
         H            2.218750522765     1.645636840266     0.110916093339     1.007825032230
         H           -2.496345477235     0.566125840266    -0.026342906661     1.007825032230

  Basis Set: AUG-CC-PVTZ
    Blend: AUG-CC-PVTZ
  Basis Set: (AUG-CC-PVTZ AUX)
    Blend: AUG-CC-PVTZ-JKFIT
	 Reference Energy          =    -322.3577261527643714 [Eh]
	 Singles Energy            =      -0.0000000000000000 [Eh]
	 Same-Spin Energy          =      -0.3117720245645712 [Eh]
	 Opposite-Spin Energy      =      -0.9978166626418594 [Eh]
	 Correlation Energy        =      -1.3095886872064306 [Eh]
	 Total Energy              =    -323.6673148399707998 [Eh]

	 ================> DF-SCS-MP2 Energies <==================
	-----------------------------------------------------------
	 SCS Same-Spin Scale       =       0.3333333333333333 [-]
	 SCS Opposite-Spin Scale   =       1.2000000000000000 [-]
	 SCS Same-Spin Energy      =      -0.1039240081881904 [Eh]
	 SCS Opposite-Spin Energy  =      -1.1973799951702313 [Eh]
	 SCS Correlation Energy    =      -1.3013040033584218 [Eh]
	 SCS Total Energy          =    -323.6590301561228102 [Eh]
	-----------------------------------------------------------

  Dipole Moment: [D]
     X:     5.6817      Y:    -1.2246      Z:    -1.0732     Total:     5.9105

*** Psi4 exiting successfully. Buy a developer a beer!
