                               Psi4 1.3.2 release

  ==> Input File <==

--------------------------------------------------------------------------
#psi4
#
memory 32 gb

molecule  {
1 1
  O       -1.6444201     0.8419308    -0.2841197
  O       -1.1238540    -1.2691650     0.4354900
  N        1.4473370    -1.0090820    -0.1563980
  C        0.5923438     0.2288689    -0.4038904
  C        1.1187320     1.3933860     0.3994720
  C       -0.8221020    -0.1825100    -0.0303730
  H        0.6501100     0.4122580    -1.4678430
  H        1.1192750    -1.8168460    -0.6997980
  H        1.4281670    -1.2902280     0.8311830
  H        2.4275310    -0.8373030    -0.4139920
  H        1.0757850     1.1947520     1.4730540
  H        0.4939250     2.2572030     0.1746130
  H        2.1464930     1.6243000     0.1133420
  H       -2.5686030     0.5447890    -0.0239170
units angstrom
no_reorient  #important for SAPT in psi4, default
symmetry c1  #important for SAPT in psi4, default
}

set PROPERTIES_ORIGIN ["COM"]
properties('MP2/aug-cc-pvtz', properties = ['dipole'])
--------------------------------------------------------------------------

    Molecular point group: c1
  Charge       = 1
  Multiplicity = 1
  Basis Set: AUG-CC-PVTZ
    Blend: AUG-CC-PVTZ
  Basis Set: (AUG-CC-PVTZ AUX)
    Blend: AUG-CC-PVTZ-JKFIT

    Orbital Energies [Eh]
    ---------------------

    Doubly Occupied:

       1A    -20.789938     2A    -20.736469     3A    -15.896417
       4A    -11.576741     5A    -11.509593     6A    -11.415852
       7A     -1.638101     8A     -1.543200     9A     -1.509194
      10A     -1.258114    11A     -1.107337    12A     -1.007367
      13A     -0.973126    14A     -0.960749    15A     -0.887758
      16A     -0.857723    17A     -0.845086    18A     -0.812676
      19A     -0.772324    20A     -0.737418    21A     -0.734980
      22A     -0.719496    23A     -0.657969    24A     -0.637761

  @DF-RHF Final Energy:  -322.35611849043670

   => Energetics <=

    Nuclear Repulsion Energy =            260.1541756707648005
    One-Electron Energy =                -945.8498077418696539
    Two-Electron Energy =                 363.3395135806682106
    Total Energy =                       -322.3561184904366996
  Basis Set: (AUG-CC-PVTZ AUX)
    Blend: AUG-CC-PVTZ-RI
    Molecular point group: c1

    Geometry (in Angstrom), charge = 1, multiplicity = 1:

       Center              X                  Y                   Z               Mass
    ------------   -----------------  -----------------  -----------------  -----------------
         O           -1.572045004236     0.859493466435    -0.281900434517    15.994914619570
         O           -1.051478904236    -1.251602333565     0.437709265483    15.994914619570
         N            1.519712095764    -0.991519333565    -0.154178734517    14.003074004430
         C            0.664718895764     0.246431566435    -0.401671134517    12.000000000000
         C            1.191107095764     1.410948666435     0.401691265483    12.000000000000
         C           -0.749726904236    -0.164947333565    -0.028153734517    12.000000000000
         H            0.722485095764     0.429820666435    -1.465623734517     1.007825032230
         H            1.191650095764    -1.799283333565    -0.697578734517     1.007825032230
         H            1.500542095764    -1.272665333565     0.833402265483     1.007825032230
         H            2.499906095764    -0.819740333565    -0.411772734517     1.007825032230
         H            1.148160095764     1.212314666435     1.475273265483     1.007825032230
         H            0.566300095764     2.274765666435     0.176832265483     1.007825032230
         H            2.218868095764     1.641862666435     0.115561265483     1.007825032230
         H           -2.496227904236     0.562351666435    -0.021697734517     1.007825032230

  Basis Set: AUG-CC-PVTZ
    Blend: AUG-CC-PVTZ
  Basis Set: (AUG-CC-PVTZ AUX)
    Blend: AUG-CC-PVTZ-JKFIT
	 Reference Energy          =    -322.3561184904366996 [Eh]
	 Singles Energy            =      -0.0000000000000000 [Eh]
	 Same-Spin Energy          =      -0.3120444027630803 [Eh]
	 Opposite-Spin Energy      =      -0.9987663346519231 [Eh]
	 Correlation Energy        =      -1.3108107374150033 [Eh]
	 Total Energy              =    -323.6669292278517105 [Eh]

	 ================> DF-SCS-MP2 Energies <==================
	-----------------------------------------------------------
	 SCS Same-Spin Scale       =       0.3333333333333333 [-]
	 SCS Opposite-Spin Scale   =       1.2000000000000000 [-]
	 SCS Same-Spin Energy      =      -0.1040148009210268 [Eh]
	 SCS Opposite-Spin Energy  =      -1.1985196015823076 [Eh]
	 SCS Correlation Energy    =      -1.3025344025033343 [Eh]
	 SCS Total Energy          =    -323.6586528929400401 [Eh]
	-----------------------------------------------------------

  Dipole Moment: [D]
     X:     5.5687      Y:    -1.1901      Z:    -1.0691     Total:     5.7940

*** Psi4 exiting successfully. Buy a developer a beer!
