                               Psi4 1.3.2 release

  ==> Input File <==

--------------------------------------------------------------------------
#psi4
#
memory 32 gb

molecule  {
1 1
  O       -1.6712988     0.8225793    -0.2727234
  O       -1.1238540    -1.2691650     0.4354900
  N        1.4473370    -1.0090820    -0.1563980
  C        0.6052227     0.1929848    -0.3925228
  C        1.1187320     1.3933860     0.3994720
  C       -0.8221020    -0.1825100    -0.0303730
  H        0.6501100     0.4122580    -1.4678430
  H        1.1192750    -1.8168460    -0.6997980
  H        1.4281670    -1.2902280     0.8311830
  H        2.4275310    -0.8373030    -0.4139920
  H        1.0757850     1.1947520     1.4730540
  H        0.4939250     2.2572030     0.1746130
  H        2.1464930     1.6243000     0.1133420
  H       -2.5686030     0.5447890    -0.0239170
units angstrom
no_reorient  #important for SAPT in psi4, default
symmetry c1  #important for SAPT in psi4, default
}

set PROPERTIES_ORIGIN ["COM"]
properties('MP2/aug-cc-pvtz', properties = ['dipole'])
--------------------------------------------------------------------------

    Molecular point group: c1
  Charge       = 1
  Multiplicity = 1
  Basis Set: AUG-CC-PVTZ
    Blend: AUG-CC-PVTZ
  Basis Set: (AUG-CC-PVTZ AUX)
    Blend: AUG-CC-PVTZ-JKFIT

    Orbital Energies [Eh]
    ---------------------

    Doubly Occupied:

       1A    -20.785357     2A    -20.733436     3A    -15.902323
       4A    -11.575864     5A    -11.509170     6A    -11.416869
       7A     -1.639785     8A     -1.545201     9A     -1.518343
      10A     -1.254921    11A     -1.107813    12A     -1.015510
      13A     -0.982412    14A     -0.968083    15A     -0.886467
      16A     -0.862518    17A     -0.848056    18A     -0.810986
      19A     -0.771360    20A     -0.737326    21A     -0.732487
      22A     -0.715102    23A     -0.655815    24A     -0.636033

  @DF-RHF Final Energy:  -322.35939830956170

   => Energetics <=

    Nuclear Repulsion Energy =            260.3230322700360375
    One-Electron Energy =                -946.1423861433498814
    Two-Electron Energy =                 363.4599555637521462
    Total Energy =                       -322.3593983095616977
  Basis Set: (AUG-CC-PVTZ AUX)
    Blend: AUG-CC-PVTZ-RI
    Molecular point group: c1

    Geometry (in Angstrom), charge = 1, multiplicity = 1:

       Center              X                  Y                   Z               Mass
    ------------   -----------------  -----------------  -----------------  -----------------
         O           -1.595865859897     0.848360617839    -0.274042997030    15.994914619570
         O           -1.048421059897    -1.243383682161     0.434170402970    15.994914619570
         N            1.522769940103    -0.983300682161    -0.157717597030    14.003074004430
         C            0.680655640103     0.218766117839    -0.393842397030    12.000000000000
         C            1.194164940103     1.419167317839     0.398152402970    12.000000000000
         C           -0.746669059897    -0.156728682161    -0.031692597030    12.000000000000
         H            0.725542940103     0.438039317839    -1.469162597030     1.007825032230
         H            1.194707940103    -1.791064682161    -0.701117597030     1.007825032230
         H            1.503599940103    -1.264446682161     0.829863402970     1.007825032230
         H            2.502963940103    -0.811521682161    -0.415311597030     1.007825032230
         H            1.151217940103     1.220533317839     1.471734402970     1.007825032230
         H            0.569357940103     2.282984317839     0.173293402970     1.007825032230
         H            2.221925940103     1.650081317839     0.112022402970     1.007825032230
         H           -2.493170059897     0.570570317839    -0.025236597030     1.007825032230

  Basis Set: AUG-CC-PVTZ
    Blend: AUG-CC-PVTZ
  Basis Set: (AUG-CC-PVTZ AUX)
    Blend: AUG-CC-PVTZ-JKFIT
	 Reference Energy          =    -322.3593983095616977 [Eh]
	 Singles Energy            =      -0.0000000000000000 [Eh]
	 Same-Spin Energy          =      -0.3113983625572472 [Eh]
	 Opposite-Spin Energy      =      -0.9971123513393048 [Eh]
	 Correlation Energy        =      -1.3085107138965519 [Eh]
	 Total Energy              =    -323.6679090234582645 [Eh]

	 ================> DF-SCS-MP2 Energies <==================
	-----------------------------------------------------------
	 SCS Same-Spin Scale       =       0.3333333333333333 [-]
	 SCS Opposite-Spin Scale   =       1.2000000000000000 [-]
	 SCS Same-Spin Energy      =      -0.1037994541857491 [Eh]
	 SCS Opposite-Spin Energy  =      -1.1965348216071656 [Eh]
	 SCS Correlation Energy    =      -1.3003342757929146 [Eh]
	 SCS Total Energy          =    -323.6597325853546181 [Eh]
	-----------------------------------------------------------

  Dipole Moment: [D]
     X:     5.7387      Y:    -1.2301      Z:    -1.0970     Total:     5.9707

*** Psi4 exiting successfully. Buy a developer a beer!
