                               Psi4 1.3.2 release

  ==> Input File <==

--------------------------------------------------------------------------
#psi4
#
memory 32 gb

molecule  {
1 1
  O       -1.6624030     0.8291070    -0.2765410
  O       -1.1238540    -1.2691650     0.4354900
  N        1.4473370    -1.0090820    -0.1563980
  C        0.6010380     0.2049760    -0.3963400
  C        1.1187320     1.3933860     0.3994720
  C       -0.8767398    -0.2199067    -0.0075112
  H        0.6501100     0.4122580    -1.4678430
  H        1.1192750    -1.8168460    -0.6997980
  H        1.4281670    -1.2902280     0.8311830
  H        2.4275310    -0.8373030    -0.4139920
  H        1.0757850     1.1947520     1.4730540
  H        0.4939250     2.2572030     0.1746130
  H        2.1464930     1.6243000     0.1133420
  H       -2.5489817     0.4993248    -0.0099403
units angstrom
no_reorient  #important for SAPT in psi4, default
symmetry c1  #important for SAPT in psi4, default
}

set PROPERTIES_ORIGIN ["COM"]
properties('MP2/aug-cc-pvtz', properties = ['dipole'])
--------------------------------------------------------------------------

    Molecular point group: c1
  Charge       = 1
  Multiplicity = 1
  Basis Set: AUG-CC-PVTZ
    Blend: AUG-CC-PVTZ
  Basis Set: (AUG-CC-PVTZ AUX)
    Blend: AUG-CC-PVTZ-JKFIT

    Orbital Energies [Eh]
    ---------------------

    Doubly Occupied:

       1A    -20.788621     2A    -20.742709     3A    -15.896499
       4A    -11.572543     5A    -11.502526     6A    -11.411369
       7A     -1.658500     8A     -1.569281     9A     -1.515191
      10A     -1.242037    11A     -1.094440    12A     -1.004621
      13A     -0.973808    14A     -0.962308    15A     -0.897004
      16A     -0.861565    17A     -0.846647    18A     -0.819256
      19A     -0.776933    20A     -0.739918    21A     -0.732188
      22A     -0.713528    23A     -0.674933    24A     -0.630957

  @DF-RHF Final Energy:  -322.35642273967801

   => Energetics <=

    Nuclear Repulsion Energy =            260.3758560109544646
    One-Electron Energy =                -946.2097922613320407
    Two-Electron Energy =                 363.4775135106995094
    Total Energy =                       -322.3564227396780097
  Basis Set: (AUG-CC-PVTZ AUX)
    Blend: AUG-CC-PVTZ-RI
    Molecular point group: c1

    Geometry (in Angstrom), charge = 1, multiplicity = 1:

       Center              X                  Y                   Z               Mass
    ------------   -----------------  -----------------  -----------------  -----------------
         O           -1.580931477245     0.857623030822    -0.279876676837    15.994914619570
         O           -1.042382477245    -1.240648969178     0.432154323163    15.994914619570
         N            1.528808522755    -0.980565969178    -0.159733676837    14.003074004430
         C            0.682509522755     0.233492030822    -0.399675676837    12.000000000000
         C            1.200203522755     1.421902030822     0.396136323163    12.000000000000
         C           -0.795268277245    -0.191390669178    -0.010846876837    12.000000000000
         H            0.731581522755     0.440774030822    -1.471178676837     1.007825032230
         H            1.200746522755    -1.788329969178    -0.703133676837     1.007825032230
         H            1.509638522755    -1.261711969178     0.827847323163     1.007825032230
         H            2.509002522755    -0.808786969178    -0.417327676837     1.007825032230
         H            1.157256522755     1.223268030822     1.469718323163     1.007825032230
         H            0.575396522755     2.285719030822     0.171277323163     1.007825032230
         H            2.227964522755     1.652816030822     0.110006323163     1.007825032230
         H           -2.467510177245     0.527840830822    -0.013275976837     1.007825032230

  Basis Set: AUG-CC-PVTZ
    Blend: AUG-CC-PVTZ
  Basis Set: (AUG-CC-PVTZ AUX)
    Blend: AUG-CC-PVTZ-JKFIT
	 Reference Energy          =    -322.3564227396780097 [Eh]
	 Singles Energy            =      -0.0000000000000000 [Eh]
	 Same-Spin Energy          =      -0.3105134137720180 [Eh]
	 Opposite-Spin Energy      =      -0.9954786943155258 [Eh]
	 Correlation Energy        =      -1.3059921080875438 [Eh]
	 Total Energy              =    -323.6624148477655467 [Eh]

	 ================> DF-SCS-MP2 Energies <==================
	-----------------------------------------------------------
	 SCS Same-Spin Scale       =       0.3333333333333333 [-]
	 SCS Opposite-Spin Scale   =       1.2000000000000000 [-]
	 SCS Same-Spin Energy      =      -0.1035044712573393 [Eh]
	 SCS Opposite-Spin Energy  =      -1.1945744331786310 [Eh]
	 SCS Correlation Energy    =      -1.2980789044359704 [Eh]
	 SCS Total Energy          =    -323.6545016441139637 [Eh]
	-----------------------------------------------------------

  Dipole Moment: [D]
     X:     5.4525      Y:    -1.5118      Z:    -0.9694     Total:     5.7407

*** Psi4 exiting successfully. Buy a developer a beer!
