                               Psi4 1.3.2 release

  ==> Input File <==

--------------------------------------------------------------------------
#psi4
#
memory 32 gb

molecule  {
1 1
  O       -1.6624030     0.8291070    -0.2765410
  O       -1.1238540    -1.2691650     0.4354900
  N        1.4473370    -1.0090820    -0.1563980
  C        0.6010380     0.2049760    -0.3963400
  C        1.1187320     1.3933860     0.3994720
  C       -0.7697674    -0.1423405    -0.0539095
  H        0.6501100     0.4122580    -1.4678430
  H        1.1192750    -1.8168460    -0.6997980
  H        1.4281670    -1.2902280     0.8311830
  H        2.4275310    -0.8373030    -0.4139920
  H        1.0757850     1.1947520     1.4730540
  H        0.4939250     2.2572030     0.1746130
  H        2.1464930     1.6243000     0.1133420
  H       -2.5857405     0.5910325    -0.0385862
units angstrom
no_reorient  #important for SAPT in psi4, default
symmetry c1  #important for SAPT in psi4, default
}

set PROPERTIES_ORIGIN ["COM"]
properties('MP2/aug-cc-pvtz', properties = ['dipole'])
--------------------------------------------------------------------------

    Molecular point group: c1
  Charge       = 1
  Multiplicity = 1
  Basis Set: AUG-CC-PVTZ
    Blend: AUG-CC-PVTZ
  Basis Set: (AUG-CC-PVTZ AUX)
    Blend: AUG-CC-PVTZ-JKFIT

    Orbital Energies [Eh]
    ---------------------

    Doubly Occupied:

       1A    -20.786327     2A    -20.726643     3A    -15.903999
       4A    -11.581115     5A    -11.513496     6A    -11.421380
       7A     -1.627549     8A     -1.533145     9A     -1.497273
      10A     -1.271573    11A     -1.120354    12A     -1.020194
      13A     -0.984880    14A     -0.968612    15A     -0.882178
      16A     -0.867276    17A     -0.845745    18A     -0.807021
      19A     -0.764018    20A     -0.740684    21A     -0.729156
      22A     -0.717870    23A     -0.636996    24A     -0.633879

  @DF-RHF Final Energy:  -322.34387190897939

   => Energetics <=

    Nuclear Repulsion Energy =            260.2157780458577463
    One-Electron Energy =                -945.9565705383853356
    Two-Electron Energy =                 363.3969205835481944
    Total Energy =                       -322.3438719089793949
  Basis Set: (AUG-CC-PVTZ AUX)
    Blend: AUG-CC-PVTZ-RI
    Molecular point group: c1

    Geometry (in Angstrom), charge = 1, multiplicity = 1:

       Center              X                  Y                   Z               Mass
    ------------   -----------------  -----------------  -----------------  -----------------
         O           -1.594774299868     0.846260929941    -0.273373469012    15.994914619570
         O           -1.056225299868    -1.252011070059     0.438657530988    15.994914619570
         N            1.514965700132    -0.991928070059    -0.153230469012    14.003074004430
         C            0.668666700132     0.222129929941    -0.393172469012    12.000000000000
         C            1.186360700132     1.410539929941     0.402639530988    12.000000000000
         C           -0.702138699868    -0.125186570059    -0.050741969012    12.000000000000
         H            0.717738700132     0.429411929941    -1.464675469012     1.007825032230
         H            1.186903700132    -1.799692070059    -0.696630469012     1.007825032230
         H            1.495795700132    -1.273074070059     0.834350530988     1.007825032230
         H            2.495159700132    -0.820149070059    -0.410824469012     1.007825032230
         H            1.143413700132     1.211905929941     1.476221530988     1.007825032230
         H            0.561553700132     2.274356929941     0.177780530988     1.007825032230
         H            2.214121700132     1.641453929941     0.116509530988     1.007825032230
         H           -2.518111799868     0.608186429941    -0.035418669012     1.007825032230

  Basis Set: AUG-CC-PVTZ
    Blend: AUG-CC-PVTZ
  Basis Set: (AUG-CC-PVTZ AUX)
    Blend: AUG-CC-PVTZ-JKFIT
	 Reference Energy          =    -322.3438719089793949 [Eh]
	 Singles Energy            =      -0.0000000000000000 [Eh]
	 Same-Spin Energy          =      -0.3133142917349743 [Eh]
	 Opposite-Spin Energy      =      -1.0009340231466266 [Eh]
	 Correlation Energy        =      -1.3142483148816009 [Eh]
	 Total Energy              =    -323.6581202238609762 [Eh]

	 ================> DF-SCS-MP2 Energies <==================
	-----------------------------------------------------------
	 SCS Same-Spin Scale       =       0.3333333333333333 [-]
	 SCS Opposite-Spin Scale   =       1.2000000000000000 [-]
	 SCS Same-Spin Energy      =      -0.1044380972449914 [Eh]
	 SCS Opposite-Spin Energy  =      -1.2011208277759520 [Eh]
	 SCS Correlation Energy    =      -1.3055589250209434 [Eh]
	 SCS Total Energy          =    -323.6494308340003272 [Eh]
	-----------------------------------------------------------

  Dipole Moment: [D]
     X:     5.8504      Y:    -0.9459      Z:    -1.1918     Total:     6.0450

*** Psi4 exiting successfully. Buy a developer a beer!
