                               Psi4 1.3.2 release

  ==> Input File <==

--------------------------------------------------------------------------
#psi4
#
memory 32 gb

molecule  {
1 1
  O       -1.6624030     0.8291070    -0.2765410
  O       -1.1238540    -1.2691650     0.4354900
  N        1.4473370    -1.0090820    -0.1563980
  C        0.5921764     0.1794266    -0.3506506
  C        1.1187320     1.3933860     0.3994720
  C       -0.8221020    -0.1825100    -0.0303730
  H        0.6501100     0.4122580    -1.4678430
  H        1.1192750    -1.8168460    -0.6997980
  H        1.4281670    -1.2902280     0.8311830
  H        2.4275310    -0.8373030    -0.4139920
  H        1.0613318     1.1602929     1.4654228
  H        0.4939250     2.2572030     0.1746130
  H        2.1464930     1.6243000     0.1133420
  H       -2.5686030     0.5447890    -0.0239170
units angstrom
no_reorient  #important for SAPT in psi4, default
symmetry c1  #important for SAPT in psi4, default
}

set PROPERTIES_ORIGIN ["COM"]
properties('MP2/aug-cc-pvtz', properties = ['dipole'])
--------------------------------------------------------------------------

    Molecular point group: c1
  Charge       = 1
  Multiplicity = 1
  Basis Set: AUG-CC-PVTZ
    Blend: AUG-CC-PVTZ
  Basis Set: (AUG-CC-PVTZ AUX)
    Blend: AUG-CC-PVTZ-JKFIT

    Orbital Energies [Eh]
    ---------------------

    Doubly Occupied:

       1A    -20.787085     2A    -20.733353     3A    -15.903446
       4A    -11.574998     5A    -11.508920     6A    -11.417169
       7A     -1.639757     8A     -1.546417     9A     -1.520326
      10A     -1.256904    11A     -1.110507    12A     -1.012349
      13A     -0.984399    14A     -0.969648    15A     -0.885730
      16A     -0.867147    17A     -0.840290    18A     -0.812247
      19A     -0.773086    20A     -0.738852    21A     -0.737116
      22A     -0.703142    23A     -0.655891    24A     -0.637348

  @DF-RHF Final Energy:  -322.35481329060406

   => Energetics <=

    Nuclear Repulsion Energy =            260.8653716789394252
    One-Electron Energy =                -947.2081194291228030
    Two-Electron Energy =                 363.9879344595793782
    Total Energy =                       -322.3548132906040564
  Basis Set: (AUG-CC-PVTZ AUX)
    Blend: AUG-CC-PVTZ-RI
    Molecular point group: c1

    Geometry (in Angstrom), charge = 1, multiplicity = 1:

       Center              X                  Y                   Z               Mass
    ------------   -----------------  -----------------  -----------------  -----------------
         O           -1.586649875853     0.855921204623    -0.282676663597    15.994914619570
         O           -1.048100875853    -1.242350795377     0.429354336403    15.994914619570
         N            1.523090124147    -0.982267795377    -0.162533663597    14.003074004430
         C            0.667929524147     0.206240804623    -0.356786263597    12.000000000000
         C            1.194485124147     1.420200204623     0.393336336403    12.000000000000
         C           -0.746348875853    -0.155695795377    -0.036508663597    12.000000000000
         H            0.725863124147     0.439072204623    -1.473978663597     1.007825032230
         H            1.195028124147    -1.790031795377    -0.705933663597     1.007825032230
         H            1.503920124147    -1.263413795377     0.825047336403     1.007825032230
         H            2.503284124147    -0.810488795377    -0.420127663597     1.007825032230
         H            1.137084924147     1.187107104623     1.459287136403     1.007825032230
         H            0.569678124147     2.284017204623     0.168477336403     1.007825032230
         H            2.222246124147     1.651114204623     0.107206336403     1.007825032230
         H           -2.492849875853     0.571603204623    -0.030052663597     1.007825032230

  Basis Set: AUG-CC-PVTZ
    Blend: AUG-CC-PVTZ
  Basis Set: (AUG-CC-PVTZ AUX)
    Blend: AUG-CC-PVTZ-JKFIT
	 Reference Energy          =    -322.3548132906040564 [Eh]
	 Singles Energy            =      -0.0000000000000000 [Eh]
	 Same-Spin Energy          =      -0.3119354325363393 [Eh]
	 Opposite-Spin Energy      =      -0.9979731812878687 [Eh]
	 Correlation Energy        =      -1.3099086138242080 [Eh]
	 Total Energy              =    -323.6647219044282906 [Eh]

	 ================> DF-SCS-MP2 Energies <==================
	-----------------------------------------------------------
	 SCS Same-Spin Scale       =       0.3333333333333333 [-]
	 SCS Opposite-Spin Scale   =       1.2000000000000000 [-]
	 SCS Same-Spin Energy      =      -0.1039784775121131 [Eh]
	 SCS Opposite-Spin Energy  =      -1.1975678175454425 [Eh]
	 SCS Correlation Energy    =      -1.3015462950575556 [Eh]
	 SCS Total Energy          =    -323.6563595856616189 [Eh]
	-----------------------------------------------------------

  Dipole Moment: [D]
     X:     5.7450      Y:    -1.2385      Z:    -1.1023     Total:     5.9795

*** Psi4 exiting successfully. Buy a developer a beer!
