                               Psi4 1.3.2 release

  ==> Input File <==

--------------------------------------------------------------------------
#psi4
#
memory 32 gb

molecule  {
1 1
  O       -1.6624030     0.8291070    -0.2765410
  O       -1.1238540    -1.2691650     0.4354900
  N        1.4260238    -1.0221209    -0.1486251
  C        0.6010380     0.2049760    -0.3963400
  C        1.1187320     1.3933860     0.3994720
  C       -0.8136186    -0.2068476    -0.0241134
  H        0.6501100     0.4122580    -1.4678430
  H        1.1192750    -1.8168460    -0.6997980
  H        1.4281670    -1.2902280     0.8311830
  H        2.4275310    -0.8373030    -0.4139920
  H        1.0757850     1.1947520     1.4730540
  H        0.4939250     2.2572030     0.1746130
  H        2.1464930     1.6243000     0.1133420
  H       -2.5686030     0.5447890    -0.0239170
units angstrom
no_reorient  #important for SAPT in psi4, default
symmetry c1  #important for SAPT in psi4, default
}

set PROPERTIES_ORIGIN ["COM"]
properties('MP2/aug-cc-pvtz', properties = ['dipole'])
--------------------------------------------------------------------------

    Molecular point group: c1
  Charge       = 1
  Multiplicity = 1
  Basis Set: AUG-CC-PVTZ
    Blend: AUG-CC-PVTZ
  Basis Set: (AUG-CC-PVTZ AUX)
    Blend: AUG-CC-PVTZ-JKFIT

    Orbital Energies [Eh]
    ---------------------

    Doubly Occupied:

       1A    -20.779098     2A    -20.739228     3A    -15.900911
       4A    -11.573809     5A    -11.509575     6A    -11.416937
       7A     -1.637242     8A     -1.546155     9A     -1.518329
      10A     -1.255768    11A     -1.107348    12A     -1.008805
      13A     -0.978531    14A     -0.965836    15A     -0.888299
      16A     -0.853091    17A     -0.848580    18A     -0.809891
      19A     -0.772219    20A     -0.737619    21A     -0.735700
      22A     -0.717260    23A     -0.661626    24A     -0.638207

  @DF-RHF Final Energy:  -322.35764354425982

   => Energetics <=

    Nuclear Repulsion Energy =            260.4729390789199783
    One-Electron Energy =                -946.4610384889286934
    Two-Electron Energy =                 363.6304558657489565
    Total Energy =                       -322.3576435442598154
  Basis Set: (AUG-CC-PVTZ AUX)
    Blend: AUG-CC-PVTZ-RI
    Molecular point group: c1

    Geometry (in Angstrom), charge = 1, multiplicity = 1:

       Center              X                  Y                   Z               Mass
    ------------   -----------------  -----------------  -----------------  -----------------
         O           -1.585808794330     0.857401562101    -0.278716636971    15.994914619570
         O           -1.047259794330    -1.240870437899     0.433314363029    15.994914619570
         N            1.502618005670    -0.993826337899    -0.150800736971    14.003074004430
         C            0.677632205670     0.233270562101    -0.398515636971    12.000000000000
         C            1.195326205670     1.421680562101     0.397296363029    12.000000000000
         C           -0.737024394330    -0.178553037899    -0.026289036971    12.000000000000
         H            0.726704205670     0.440552562101    -1.470018636971     1.007825032230
         H            1.195869205670    -1.788551437899    -0.701973636971     1.007825032230
         H            1.504761205670    -1.261933437899     0.829007363029     1.007825032230
         H            2.504125205670    -0.809008437899    -0.416167636971     1.007825032230
         H            1.152379205670     1.223046562101     1.470878363029     1.007825032230
         H            0.570519205670     2.285497562101     0.172437363029     1.007825032230
         H            2.223087205670     1.652594562101     0.111166363029     1.007825032230
         H           -2.492008794330     0.573083562101    -0.026092636971     1.007825032230

  Basis Set: AUG-CC-PVTZ
    Blend: AUG-CC-PVTZ
  Basis Set: (AUG-CC-PVTZ AUX)
    Blend: AUG-CC-PVTZ-JKFIT
	 Reference Energy          =    -322.3576435442598154 [Eh]
	 Singles Energy            =      -0.0000000000000000 [Eh]
	 Same-Spin Energy          =      -0.3113319784182627 [Eh]
	 Opposite-Spin Energy      =      -0.9972864103970311 [Eh]
	 Correlation Energy        =      -1.3086183888152938 [Eh]
	 Total Energy              =    -323.6662619330751340 [Eh]

	 ================> DF-SCS-MP2 Energies <==================
	-----------------------------------------------------------
	 SCS Same-Spin Scale       =       0.3333333333333333 [-]
	 SCS Opposite-Spin Scale   =       1.2000000000000000 [-]
	 SCS Same-Spin Energy      =      -0.1037773261394209 [Eh]
	 SCS Opposite-Spin Energy  =      -1.1967436924764374 [Eh]
	 SCS Correlation Energy    =      -1.3005210186158582 [Eh]
	 SCS Total Energy          =    -323.6581645628756974 [Eh]
	-----------------------------------------------------------

  Dipole Moment: [D]
     X:     5.8065      Y:    -1.3657      Z:    -1.0430     Total:     6.0555

*** Psi4 exiting successfully. Buy a developer a beer!
