                               Psi4 1.4a3.dev225

  ==> Input File <==

--------------------------------------------------------------------------
#psi4
#
memory 32 gb

molecule  {
1 1
  O       -1.6123010     0.9094490    -0.1675920
  O       -1.1928110    -1.2795120     0.3034070
  N        1.4156850    -1.0522820    -0.0637630
  C        0.6095860     0.1674070    -0.3957710
  C        1.1650120     1.3928430     0.3122100
  C       -0.8284910    -0.1652490    -0.0350320
  H        0.6682530     0.2962105    -1.5305846
  H        0.9122540    -1.9066690    -0.3390640
  H        1.5920220    -1.1264780     0.9462830
  H        2.3268530    -1.0442670    -0.5383350
  H        1.0907020     1.2862690     1.3970100
  H        0.5903660     2.2672430     0.0071660
  H        2.2096640     1.5504630     0.0359860
  H       -2.5330880     0.6393330     0.0432950
units angstrom
no_reorient  #important for SAPT in psi4, default
symmetry c1  #important for SAPT in psi4, default
}

set PROPERTIES_ORIGIN ["COM"]
properties('MP2/aug-cc-pvtz', properties = ['dipole'])
--------------------------------------------------------------------------

    Molecular point group: c1
  Charge       = 1
  Multiplicity = 1
  Basis Set: AUG-CC-PVTZ
    Blend: AUG-CC-PVTZ
  Basis Set: (AUG-CC-PVTZ AUX)
    Blend: AUG-CC-PVTZ-JKFIT

    Orbital Energies [Eh]
    ---------------------

    Doubly Occupied:

       1A    -20.788089     2A    -20.735650     3A    -15.898854
       4A    -11.577277     5A    -11.514311     6A    -11.415881
       7A     -1.641102     8A     -1.545760     9A     -1.514259
      10A     -1.252723    11A     -1.107093    12A     -1.010925
      13A     -0.978475    14A     -0.963946    15A     -0.886064
      16A     -0.859046    17A     -0.847241    18A     -0.807619
      19A     -0.772608    20A     -0.736457    21A     -0.734191
      22A     -0.712744    23A     -0.657715    24A     -0.637957

  @DF-RHF Final Energy:  -322.35671035183645

   => Energetics <=

    Nuclear Repulsion Energy =            260.1454277369164174
    One-Electron Energy =                -945.8123014396329609
    Two-Electron Energy =                 363.3101633508800887
    Total Energy =                       -322.3567103518364547
  Basis Set: (AUG-CC-PVTZ AUX)
    Blend: AUG-CC-PVTZ-RI
    Molecular point group: c1

    Geometry (in Angstrom), charge = 1, multiplicity = 1:

       Center              X                  Y                   Z               Mass
    ------------   -----------------  -----------------  -----------------  -----------------
         O           -1.537018330942     0.930956167271    -0.166240410931    15.994914619570
         O           -1.117528330942    -1.258004832729     0.304758589069    15.994914619570
         N            1.490967669058    -1.030774832729    -0.062411410931    14.003074004430
         C            0.684868669058     0.188914167271    -0.394419410931    12.000000000000
         C            1.240294669058     1.414350167271     0.313561589069    12.000000000000
         C           -0.753208330942    -0.143741832729    -0.033680410931    12.000000000000
         H            0.743535669058     0.317717667271    -1.529233010931     1.007825032230
         H            0.987536669058    -1.885161832729    -0.337712410931     1.007825032230
         H            1.667304669058    -1.104970832729     0.947634589069     1.007825032230
         H            2.402135669058    -1.022759832729    -0.536983410931     1.007825032230
         H            1.165984669058     1.307776167271     1.398361589069     1.007825032230
         H            0.665648669058     2.288750167271     0.008517589069     1.007825032230
         H            2.284946669058     1.571970167271     0.037337589069     1.007825032230
         H           -2.457805330942     0.660840167271     0.044646589069     1.007825032230

  Basis Set: AUG-CC-PVTZ
    Blend: AUG-CC-PVTZ
  Basis Set: (AUG-CC-PVTZ AUX)
    Blend: AUG-CC-PVTZ-JKFIT
	 Reference Energy          =    -322.3567103518364547 [Eh]
	 Singles Energy            =      -0.0000000000000000 [Eh]
	 Same-Spin Energy          =      -0.3118594205768766 [Eh]
	 Opposite-Spin Energy      =      -0.9982299331140868 [Eh]
	 Correlation Energy        =      -1.3100893536909635 [Eh]
	 Total Energy              =    -323.6667997055274100 [Eh]

	 ================> DF-SCS-MP2 Energies <==================
	-----------------------------------------------------------
	 SCS Same-Spin Scale       =       0.3333333333333333 [-]
	 SCS Opposite-Spin Scale   =       1.2000000000000000 [-]
	 SCS Same-Spin Energy      =      -0.1039531401922922 [Eh]
	 SCS Opposite-Spin Energy  =      -1.1978759197369042 [Eh]
	 SCS Correlation Energy    =      -1.3018290599291964 [Eh]
	 SCS Total Energy          =    -323.6585394117656733 [Eh]
	-----------------------------------------------------------

  Dipole Moment: [D]
     X:     5.6241      Y:    -1.3101      Z:    -0.6681     Total:     5.8132

*** Psi4 exiting successfully. Buy a developer a beer!
