                               Psi4 1.4a3.dev225

  ==> Input File <==

--------------------------------------------------------------------------
#psi4
#
memory 32 gb

molecule  {
1 1
  O       -1.6123010     0.9094490    -0.1675920
  O       -1.1928110    -1.2795120     0.3034070
  N        1.4156850    -1.0522820    -0.0637630
  C        0.6095860     0.1674070    -0.3957710
  C        1.1650120     1.3928430     0.3122100
  C       -0.7811700    -0.1543027    -0.0469024
  H        0.6656880     0.2905790    -1.4809690
  H        0.9122540    -1.9066690    -0.3390640
  H        1.5920220    -1.1264780     0.9462830
  H        2.3268530    -1.0442670    -0.5383350
  H        1.0907020     1.2862690     1.3970100
  H        0.5903660     2.2672430     0.0071660
  H        2.2096640     1.5504630     0.0359860
  H       -2.5330880     0.6393330     0.0432950
units angstrom
no_reorient  #important for SAPT in psi4, default
symmetry c1  #important for SAPT in psi4, default
}

set PROPERTIES_ORIGIN ["COM"]
properties('MP2/aug-cc-pvtz', properties = ['dipole'])
--------------------------------------------------------------------------

    Molecular point group: c1
  Charge       = 1
  Multiplicity = 1
  Basis Set: AUG-CC-PVTZ
    Blend: AUG-CC-PVTZ
  Basis Set: (AUG-CC-PVTZ AUX)
    Blend: AUG-CC-PVTZ-JKFIT

    Orbital Energies [Eh]
    ---------------------

    Doubly Occupied:

       1A    -20.783772     2A    -20.734535     3A    -15.901896
       4A    -11.580226     5A    -11.513077     6A    -11.419551
       7A     -1.628564     8A     -1.536147     9A     -1.510149
      10A     -1.266909    11A     -1.117850    12A     -1.014928
      13A     -0.981510    14A     -0.966949    15A     -0.883777
      16A     -0.859079    17A     -0.853096    18A     -0.803478
      19A     -0.769998    20A     -0.738774    21A     -0.733592
      22A     -0.718910    23A     -0.648736    24A     -0.639707

  @DF-RHF Final Energy:  -322.35083459041965

   => Energetics <=

    Nuclear Repulsion Energy =            260.4512049563998630
    One-Electron Energy =                -946.3936579951915746
    Two-Electron Energy =                 363.5916184483720031
    Total Energy =                       -322.3508345904196517
  Basis Set: (AUG-CC-PVTZ AUX)
    Blend: AUG-CC-PVTZ-RI
    Molecular point group: c1

    Geometry (in Angstrom), charge = 1, multiplicity = 1:

       Center              X                  Y                   Z               Mass
    ------------   -----------------  -----------------  -----------------  -----------------
         O           -1.543295203613     0.929560583120    -0.165213922235    15.994914619570
         O           -1.123805203613    -1.259400416880     0.305785077765    15.994914619570
         N            1.484690796387    -1.032170416880    -0.061384922235    14.003074004430
         C            0.678591796387     0.187518583120    -0.393392922235    12.000000000000
         C            1.234017796387     1.412954583120     0.314588077765    12.000000000000
         C           -0.712164203613    -0.134191116880    -0.044524322235    12.000000000000
         H            0.734693796387     0.310690583120    -1.478590922235     1.007825032230
         H            0.981259796387    -1.886557416880    -0.336685922235     1.007825032230
         H            1.661027796387    -1.106366416880     0.948661077765     1.007825032230
         H            2.395858796387    -1.024155416880    -0.535956922235     1.007825032230
         H            1.159707796387     1.306380583120     1.399388077765     1.007825032230
         H            0.659371796387     2.287354583120     0.009544077765     1.007825032230
         H            2.278669796387     1.570574583120     0.038364077765     1.007825032230
         H           -2.464082203613     0.659444583120     0.045673077765     1.007825032230

  Basis Set: AUG-CC-PVTZ
    Blend: AUG-CC-PVTZ
  Basis Set: (AUG-CC-PVTZ AUX)
    Blend: AUG-CC-PVTZ-JKFIT
	 Reference Energy          =    -322.3508345904196517 [Eh]
	 Singles Energy            =      -0.0000000000000000 [Eh]
	 Same-Spin Energy          =      -0.3128430957625663 [Eh]
	 Opposite-Spin Energy      =      -1.0000353422277830 [Eh]
	 Correlation Energy        =      -1.3128784379903493 [Eh]
	 Total Energy              =    -323.6637130284100294 [Eh]

	 ================> DF-SCS-MP2 Energies <==================
	-----------------------------------------------------------
	 SCS Same-Spin Scale       =       0.3333333333333333 [-]
	 SCS Opposite-Spin Scale   =       1.2000000000000000 [-]
	 SCS Same-Spin Energy      =      -0.1042810319208554 [Eh]
	 SCS Opposite-Spin Energy  =      -1.2000424106733396 [Eh]
	 SCS Correlation Energy    =      -1.3043234425941950 [Eh]
	 SCS Total Energy          =    -323.6551580330138336 [Eh]
	-----------------------------------------------------------

  Dipole Moment: [D]
     X:     5.8591      Y:    -1.2811      Z:    -0.6932     Total:     6.0374

*** Psi4 exiting successfully. Buy a developer a beer!
