                               Psi4 1.4a3.dev225

  ==> Input File <==

--------------------------------------------------------------------------
#psi4
#
memory 32 gb

molecule  {
1 1
  O       -1.6123010     0.9094490    -0.1675920
  O       -1.1928110    -1.2795120     0.3034070
  N        1.4156850    -1.0522820    -0.0637630
  C        0.6203396     0.1511360    -0.3913419
  C        1.1650120     1.3928430     0.3122100
  C       -0.8284910    -0.1652490    -0.0350320
  H        0.6656880     0.2905790    -1.4809690
  H        0.9122540    -1.9066690    -0.3390640
  H        1.5920220    -1.1264780     0.9462830
  H        2.3268530    -1.0442670    -0.5383350
  H        1.0907020     1.2862690     1.3970100
  H        0.5903660     2.2672430     0.0071660
  H        2.2096640     1.5504630     0.0359860
  H       -2.5330880     0.6393330     0.0432950
units angstrom
no_reorient  #important for SAPT in psi4, default
symmetry c1  #important for SAPT in psi4, default
}

set PROPERTIES_ORIGIN ["COM"]
properties('MP2/aug-cc-pvtz', properties = ['dipole'])
--------------------------------------------------------------------------

    Molecular point group: c1
  Charge       = 1
  Multiplicity = 1
  Basis Set: AUG-CC-PVTZ
    Blend: AUG-CC-PVTZ
  Basis Set: (AUG-CC-PVTZ AUX)
    Blend: AUG-CC-PVTZ-JKFIT

    Orbital Energies [Eh]
    ---------------------

    Doubly Occupied:

       1A    -20.788196     2A    -20.734896     3A    -15.900982
       4A    -11.576839     5A    -11.508299     6A    -11.415618
       7A     -1.640740     8A     -1.546763     9A     -1.518948
      10A     -1.252568    11A     -1.106780    12A     -1.015369
      13A     -0.981935    14A     -0.967415    15A     -0.887101
      16A     -0.861478    17A     -0.851915    18A     -0.807160
      19A     -0.772011    20A     -0.736765    21A     -0.732336
      22A     -0.714554    23A     -0.657401    24A     -0.636830

  @DF-RHF Final Energy:  -322.35849773752949

   => Energetics <=

    Nuclear Repulsion Energy =            260.4439110300730817
    One-Electron Energy =                -946.3790230773336134
    Two-Electron Energy =                 363.5766143097310419
    Total Energy =                       -322.3584977375294898
  Basis Set: (AUG-CC-PVTZ AUX)
    Blend: AUG-CC-PVTZ-RI
    Molecular point group: c1

    Geometry (in Angstrom), charge = 1, multiplicity = 1:

       Center              X                  Y                   Z               Mass
    ------------   -----------------  -----------------  -----------------  -----------------
         O           -1.538422555269     0.933187319825    -0.167385849462    15.994914619570
         O           -1.118932555269    -1.255773680175     0.303613150538    15.994914619570
         N            1.489563444731    -1.028543680175    -0.063556849462    14.003074004430
         C            0.694218044731     0.174874319825    -0.391135749462    12.000000000000
         C            1.238890444731     1.416581319825     0.312416150538    12.000000000000
         C           -0.754612555269    -0.141510680175    -0.034825849462    12.000000000000
         H            0.739566444731     0.314317319825    -1.480762849462     1.007825032230
         H            0.986132444731    -1.882930680175    -0.338857849462     1.007825032230
         H            1.665900444731    -1.102739680175     0.946489150538     1.007825032230
         H            2.400731444731    -1.020528680175    -0.538128849462     1.007825032230
         H            1.164580444731     1.310007319825     1.397216150538     1.007825032230
         H            0.664244444731     2.290981319825     0.007372150538     1.007825032230
         H            2.283542444731     1.574201319825     0.036192150538     1.007825032230
         H           -2.459209555269     0.663071319825     0.043501150538     1.007825032230

  Basis Set: AUG-CC-PVTZ
    Blend: AUG-CC-PVTZ
  Basis Set: (AUG-CC-PVTZ AUX)
    Blend: AUG-CC-PVTZ-JKFIT
	 Reference Energy          =    -322.3584977375294898 [Eh]
	 Singles Energy            =      -0.0000000000000000 [Eh]
	 Same-Spin Energy          =      -0.3117856460882568 [Eh]
	 Opposite-Spin Energy      =      -0.9977025603630326 [Eh]
	 Correlation Energy        =      -1.3094882064512894 [Eh]
	 Total Energy              =    -323.6679859439807956 [Eh]

	 ================> DF-SCS-MP2 Energies <==================
	-----------------------------------------------------------
	 SCS Same-Spin Scale       =       0.3333333333333333 [-]
	 SCS Opposite-Spin Scale   =       1.2000000000000000 [-]
	 SCS Same-Spin Energy      =      -0.1039285486960856 [Eh]
	 SCS Opposite-Spin Energy  =      -1.1972430724356391 [Eh]
	 SCS Correlation Energy    =      -1.3011716211317246 [Eh]
	 SCS Total Energy          =    -323.6596693586612332 [Eh]
	-----------------------------------------------------------

  Dipole Moment: [D]
     X:     5.6436      Y:    -1.3498      Z:    -0.6548     Total:     5.8396

*** Psi4 exiting successfully. Buy a developer a beer!
