                               Psi4 1.3.2 release

  ==> Input File <==

--------------------------------------------------------------------------
#psi4
#
memory 32 gb

molecule  {
1 1
  O       -1.6624030     0.8291070    -0.2765410
  O       -1.1238540    -1.2691650     0.4354900
  N        1.4473370    -1.0090820    -0.1563980
  C        0.6033524     0.2115908    -0.4076130
  C        1.1187320     1.3933860     0.3994720
  C       -0.8221020    -0.1825100    -0.0303730
  H        0.6501100     0.4122580    -1.4678430
  H        1.1192750    -1.8168460    -0.6997980
  H        1.4281670    -1.2902280     0.8311830
  H        2.4275310    -0.8373030    -0.4139920
  H        1.0794072     1.2034062     1.4747578
  H        0.4939250     2.2572030     0.1746130
  H        2.1464930     1.6243000     0.1133420
  H       -2.5686030     0.5447890    -0.0239170
units angstrom
no_reorient  #important for SAPT in psi4, default
symmetry c1  #important for SAPT in psi4, default
}

set PROPERTIES_ORIGIN ["COM"]
properties('MP2/aug-cc-pvtz', properties = ['dipole'])
--------------------------------------------------------------------------

    Molecular point group: c1
  Charge       = 1
  Multiplicity = 1
  Basis Set: AUG-CC-PVTZ
    Blend: AUG-CC-PVTZ
  Basis Set: (AUG-CC-PVTZ AUX)
    Blend: AUG-CC-PVTZ-JKFIT

    Orbital Energies [Eh]
    ---------------------

    Doubly Occupied:

       1A    -20.786851     2A    -20.734713     3A    -15.899668
       4A    -11.576427     5A    -11.509468     6A    -11.416395
       7A     -1.639015     8A     -1.543840     9A     -1.514129
      10A     -1.255847    11A     -1.106975    12A     -1.012845
      13A     -0.978055    14A     -0.964599    15A     -0.887282
      16A     -0.858374    17A     -0.849635    18A     -0.811379
      19A     -0.771446    20A     -0.736468    21A     -0.733495
      22A     -0.719272    23A     -0.656653    24A     -0.636338

  @DF-RHF Final Energy:  -322.35885988974678

   => Energetics <=

    Nuclear Repulsion Energy =            260.1080826202473872
    One-Electron Energy =                -945.7355477283077789
    Two-Electron Energy =                 363.2686052183136098
    Total Energy =                       -322.3588598897467818
  Basis Set: (AUG-CC-PVTZ AUX)
    Blend: AUG-CC-PVTZ-RI
    Molecular point group: c1

    Geometry (in Angstrom), charge = 1, multiplicity = 1:

       Center              X                  Y                   Z               Mass
    ------------   -----------------  -----------------  -----------------  -----------------
         O           -1.588341375369     0.851152800181    -0.275190827339    15.994914619570
         O           -1.049792375369    -1.247119199819     0.436840172661    15.994914619570
         N            1.521398624631    -0.987036199819    -0.155047827339    14.003074004430
         C            0.677414024631     0.233636600181    -0.406262827339    12.000000000000
         C            1.192793624631     1.415431800181     0.400822172661    12.000000000000
         C           -0.748040375369    -0.160464199819    -0.029022827339    12.000000000000
         H            0.724171624631     0.434303800181    -1.466492827339     1.007825032230
         H            1.193336624631    -1.794800199819    -0.698447827339     1.007825032230
         H            1.502228624631    -1.268182199819     0.832533172661     1.007825032230
         H            2.501592624631    -0.815257199819    -0.412641827339     1.007825032230
         H            1.153468824631     1.225452000181     1.476107972661     1.007825032230
         H            0.567986624631     2.279248800181     0.175963172661     1.007825032230
         H            2.220554624631     1.646345800181     0.114692172661     1.007825032230
         H           -2.494541375369     0.566834800181    -0.022566827339     1.007825032230

  Basis Set: AUG-CC-PVTZ
    Blend: AUG-CC-PVTZ
  Basis Set: (AUG-CC-PVTZ AUX)
    Blend: AUG-CC-PVTZ-JKFIT
	 Reference Energy          =    -322.3588598897467818 [Eh]
	 Singles Energy            =      -0.0000000000000000 [Eh]
	 Same-Spin Energy          =      -0.3115402368348846 [Eh]
	 Opposite-Spin Energy      =      -0.9976135207243082 [Eh]
	 Correlation Energy        =      -1.3091537575591927 [Eh]
	 Total Energy              =    -323.6680136473059974 [Eh]

	 ================> DF-SCS-MP2 Energies <==================
	-----------------------------------------------------------
	 SCS Same-Spin Scale       =       0.3333333333333333 [-]
	 SCS Opposite-Spin Scale   =       1.2000000000000000 [-]
	 SCS Same-Spin Energy      =      -0.1038467456116282 [Eh]
	 SCS Opposite-Spin Energy  =      -1.1971362248691697 [Eh]
	 SCS Correlation Energy    =      -1.3009829704807978 [Eh]
	 SCS Total Energy          =    -323.6598428602275703 [Eh]
	-----------------------------------------------------------

  Dipole Moment: [D]
     X:     5.6668      Y:    -1.2123      Z:    -1.0835     Total:     5.8954

*** Psi4 exiting successfully. Buy a developer a beer!
