                               Psi4 1.4a3.dev225

  ==> Input File <==

--------------------------------------------------------------------------
#psi4
#
memory 32 gb

molecule  {
1 1
  O       -1.6123010     0.9094490    -0.1675920
  O       -1.1928110    -1.2795120     0.3034070
  N        1.4156850    -1.0522820    -0.0637630
  C        0.6095860     0.1674070    -0.3957710
  C        1.1650120     1.3928430     0.3122100
  C       -0.8344626    -0.1835128    -0.0294847
  H        0.6656880     0.2905790    -1.4809690
  H        0.9122540    -1.9066690    -0.3390640
  H        1.5920220    -1.1264780     0.9462830
  H        2.3268530    -1.0442670    -0.5383350
  H        1.0907020     1.2862690     1.3970100
  H        0.5903660     2.2672430     0.0071660
  H        2.2096640     1.5504630     0.0359860
  H       -2.5330880     0.6393330     0.0432950
units angstrom
no_reorient  #important for SAPT in psi4, default
symmetry c1  #important for SAPT in psi4, default
}

set PROPERTIES_ORIGIN ["COM"]
properties('MP2/aug-cc-pvtz', properties = ['dipole'])
--------------------------------------------------------------------------

    Molecular point group: c1
  Charge       = 1
  Multiplicity = 1
  Basis Set: AUG-CC-PVTZ
    Blend: AUG-CC-PVTZ
  Basis Set: (AUG-CC-PVTZ AUX)
    Blend: AUG-CC-PVTZ-JKFIT

    Orbital Energies [Eh]
    ---------------------

    Doubly Occupied:

       1A    -20.784743     2A    -20.739390     3A    -15.898300
       4A    -11.575662     5A    -11.508586     6A    -11.414809
       7A     -1.642535     8A     -1.551100     9A     -1.516337
      10A     -1.252414    11A     -1.105791    12A     -1.010280
      13A     -0.977726    14A     -0.963912    15A     -0.888607
      16A     -0.857742    17A     -0.852534    18A     -0.807725
      19A     -0.774151    20A     -0.737921    21A     -0.734162
      22A     -0.715947    23A     -0.663621    24A     -0.638718

  @DF-RHF Final Energy:  -322.35978398532654

   => Energetics <=

    Nuclear Repulsion Energy =            260.4273204427227597
    One-Electron Energy =                -946.3487834513169901
    Two-Electron Energy =                 363.5616790232676294
    Total Energy =                       -322.3597839853265441
  Basis Set: (AUG-CC-PVTZ AUX)
    Blend: AUG-CC-PVTZ-RI
    Molecular point group: c1

    Geometry (in Angstrom), charge = 1, multiplicity = 1:

       Center              X                  Y                   Z               Mass
    ------------   -----------------  -----------------  -----------------  -----------------
         O           -1.536193903025     0.933452862730    -0.167534850905    15.994914619570
         O           -1.116703903025    -1.255508137270     0.303464149095    15.994914619570
         N            1.491792096975    -1.028278137270    -0.063705850905    14.003074004430
         C            0.685693096975     0.191410862730    -0.395713850905    12.000000000000
         C            1.241119096975     1.416846862730     0.312267149095    12.000000000000
         C           -0.758355503025    -0.159508937270    -0.029427550905    12.000000000000
         H            0.741795096975     0.314582862730    -1.480911850905     1.007825032230
         H            0.988361096975    -1.882665137270    -0.339006850905     1.007825032230
         H            1.668129096975    -1.102474137270     0.946340149095     1.007825032230
         H            2.402960096975    -1.020263137270    -0.538277850905     1.007825032230
         H            1.166809096975     1.310272862730     1.397067149095     1.007825032230
         H            0.666473096975     2.291246862730     0.007223149095     1.007825032230
         H            2.285771096975     1.574466862730     0.036043149095     1.007825032230
         H           -2.456980903025     0.663336862730     0.043352149095     1.007825032230

  Basis Set: AUG-CC-PVTZ
    Blend: AUG-CC-PVTZ
  Basis Set: (AUG-CC-PVTZ AUX)
    Blend: AUG-CC-PVTZ-JKFIT
	 Reference Energy          =    -322.3597839853265441 [Eh]
	 Singles Energy            =      -0.0000000000000000 [Eh]
	 Same-Spin Energy          =      -0.3113696020909084 [Eh]
	 Opposite-Spin Energy      =      -0.9971451885654210 [Eh]
	 Correlation Energy        =      -1.3085147906563295 [Eh]
	 Total Energy              =    -323.6682987759828620 [Eh]

	 ================> DF-SCS-MP2 Energies <==================
	-----------------------------------------------------------
	 SCS Same-Spin Scale       =       0.3333333333333333 [-]
	 SCS Opposite-Spin Scale   =       1.2000000000000000 [-]
	 SCS Same-Spin Energy      =      -0.1037898673636361 [Eh]
	 SCS Opposite-Spin Energy  =      -1.1965742262785051 [Eh]
	 SCS Correlation Energy    =      -1.3003640936421412 [Eh]
	 SCS Total Energy          =    -323.6601480789686889 [Eh]
	-----------------------------------------------------------

  Dipole Moment: [D]
     X:     5.6136      Y:    -1.4393      Z:    -0.6270     Total:     5.8290

*** Psi4 exiting successfully. Buy a developer a beer!
