                               Psi4 1.3.2 release

  ==> Input File <==

--------------------------------------------------------------------------
#psi4
#
memory 32 gb

molecule  {
1 1
  O       -1.6624030     0.8291070    -0.2765410
  O       -1.1238540    -1.2691650     0.4354900
  N        1.4473370    -1.0090820    -0.1563980
  C        0.5862505     0.1911151    -0.4128895
  C        1.1187320     1.3933860     0.3994720
  C       -0.8221020    -0.1825100    -0.0303730
  H        0.6501100     0.4122580    -1.4678430
  H        1.1061295    -1.8067292    -0.7066046
  H        1.4281670    -1.2902280     0.8311830
  H        2.4275310    -0.8373030    -0.4139920
  H        1.0757850     1.1947520     1.4730540
  H        0.4939250     2.2572030     0.1746130
  H        2.1464930     1.6243000     0.1133420
  H       -2.5686030     0.5447890    -0.0239170
units angstrom
no_reorient  #important for SAPT in psi4, default
symmetry c1  #important for SAPT in psi4, default
}

set PROPERTIES_ORIGIN ["COM"]
properties('MP2/aug-cc-pvtz', properties = ['dipole'])
--------------------------------------------------------------------------

    Molecular point group: c1
  Charge       = 1
  Multiplicity = 1
  Basis Set: AUG-CC-PVTZ
    Blend: AUG-CC-PVTZ
  Basis Set: (AUG-CC-PVTZ AUX)
    Blend: AUG-CC-PVTZ-JKFIT

    Orbital Energies [Eh]
    ---------------------

    Doubly Occupied:

       1A    -20.787012     2A    -20.734448     3A    -15.900547
       4A    -11.575923     5A    -11.508286     6A    -11.417901
       7A     -1.639683     8A     -1.544656     9A     -1.515326
      10A     -1.253492    11A     -1.108510    12A     -1.013895
      13A     -0.979592    14A     -0.965690    15A     -0.887754
      16A     -0.861683    17A     -0.849829    18A     -0.810714
      19A     -0.771710    20A     -0.735658    21A     -0.729304
      22A     -0.718397    23A     -0.656504    24A     -0.638119

  @DF-RHF Final Energy:  -322.35854476244839

   => Energetics <=

    Nuclear Repulsion Energy =            260.2981984728671705
    One-Electron Energy =                -946.1042159562817915
    Two-Electron Energy =                 363.4474727209662319
    Total Energy =                       -322.3585447624483891
  Basis Set: (AUG-CC-PVTZ AUX)
    Blend: AUG-CC-PVTZ-RI
    Molecular point group: c1

    Geometry (in Angstrom), charge = 1, multiplicity = 1:

       Center              X                  Y                   Z               Mass
    ------------   -----------------  -----------------  -----------------  -----------------
         O           -1.585874877497     0.853864842706    -0.274392486412    15.994914619570
         O           -1.047325877497    -1.244407157294     0.437638513588    15.994914619570
         N            1.523865122503    -0.984324157294    -0.154249486412    14.003074004430
         C            0.662778622503     0.215872942706    -0.410740986412    12.000000000000
         C            1.195260122503     1.418143842706     0.401620513588    12.000000000000
         C           -0.745573877497    -0.157752157294    -0.028224486412    12.000000000000
         H            0.726638122503     0.437015842706    -1.465694486412     1.007825032230
         H            1.182657622503    -1.781971357294    -0.704456086412     1.007825032230
         H            1.504695122503    -1.265470157294     0.833331513588     1.007825032230
         H            2.504059122503    -0.812545157294    -0.411843486412     1.007825032230
         H            1.152313122503     1.219509842706     1.475202513588     1.007825032230
         H            0.570453122503     2.281960842706     0.176761513588     1.007825032230
         H            2.223021122503     1.649057842706     0.115490513588     1.007825032230
         H           -2.492074877497     0.569546842706    -0.021768486412     1.007825032230

  Basis Set: AUG-CC-PVTZ
    Blend: AUG-CC-PVTZ
  Basis Set: (AUG-CC-PVTZ AUX)
    Blend: AUG-CC-PVTZ-JKFIT
	 Reference Energy          =    -322.3585447624483891 [Eh]
	 Singles Energy            =      -0.0000000000000000 [Eh]
	 Same-Spin Energy          =      -0.3114847359812979 [Eh]
	 Opposite-Spin Energy      =      -0.9975569709553027 [Eh]
	 Correlation Energy        =      -1.3090417069366007 [Eh]
	 Total Energy              =    -323.6675864693850144 [Eh]

	 ================> DF-SCS-MP2 Energies <==================
	-----------------------------------------------------------
	 SCS Same-Spin Scale       =       0.3333333333333333 [-]
	 SCS Opposite-Spin Scale   =       1.2000000000000000 [-]
	 SCS Same-Spin Energy      =      -0.1038282453270993 [Eh]
	 SCS Opposite-Spin Energy  =      -1.1970683651463632 [Eh]
	 SCS Correlation Energy    =      -1.3008966104734625 [Eh]
	 SCS Total Energy          =    -323.6594413729218331 [Eh]
	-----------------------------------------------------------

  Dipole Moment: [D]
     X:     5.6854      Y:    -1.2095      Z:    -1.1001     Total:     5.9158

*** Psi4 exiting successfully. Buy a developer a beer!
