                               Psi4 1.3.2 release

  ==> Input File <==

--------------------------------------------------------------------------
#psi4
#
memory 32 gb

molecule  {
1 1
  O       -1.6624030     0.8291070    -0.2765410
  O       -1.1238540    -1.2691650     0.4354900
  N        1.4164768    -1.0359189    -0.1890468
  C        0.6010380     0.2049760    -0.3963400
  C        1.0794385     1.4228357     0.3792841
  C       -0.8221020    -0.1825100    -0.0303730
  H        0.6501100     0.4122580    -1.4678430
  H        1.1192750    -1.8168460    -0.6997980
  H        1.4281670    -1.2902280     0.8311830
  H        2.4275310    -0.8373030    -0.4139920
  H        1.0757850     1.1947520     1.4730540
  H        0.4939250     2.2572030     0.1746130
  H        2.1464930     1.6243000     0.1133420
  H       -2.5686030     0.5447890    -0.0239170
units angstrom
no_reorient  #important for SAPT in psi4, default
symmetry c1  #important for SAPT in psi4, default
}

set PROPERTIES_ORIGIN ["COM"]
properties('MP2/aug-cc-pvtz', properties = ['dipole'])
--------------------------------------------------------------------------

    Molecular point group: c1
  Charge       = 1
  Multiplicity = 1
  Basis Set: AUG-CC-PVTZ
    Blend: AUG-CC-PVTZ
  Basis Set: (AUG-CC-PVTZ AUX)
    Blend: AUG-CC-PVTZ-JKFIT

    Orbital Energies [Eh]
    ---------------------

    Doubly Occupied:

       1A    -20.785981     2A    -20.733284     3A    -15.902228
       4A    -11.574473     5A    -11.509303     6A    -11.419123
       7A     -1.638413     8A     -1.544060     9A     -1.515533
      10A     -1.257720    11A     -1.106924    12A     -1.012227
      13A     -0.984538    14A     -0.967888    15A     -0.885365
      16A     -0.854774    17A     -0.843833    18A     -0.811661
      19A     -0.770614    20A     -0.756907    21A     -0.728442
      22A     -0.708685    23A     -0.655902    24A     -0.634536

  @DF-RHF Final Energy:  -322.35098545888468

   => Energetics <=

    Nuclear Repulsion Energy =            260.3790762427874483
    One-Electron Energy =                -946.2552968517829868
    Two-Electron Energy =                 363.5252351501108024
    Total Energy =                       -322.3509854588846792
  Basis Set: (AUG-CC-PVTZ AUX)
    Blend: AUG-CC-PVTZ-RI
    Molecular point group: c1

    Geometry (in Angstrom), charge = 1, multiplicity = 1:

       Center              X                  Y                   Z               Mass
    ------------   -----------------  -----------------  -----------------  -----------------
         O           -1.577957967672     0.852379845856    -0.268907152574    15.994914619570
         O           -1.039408967672    -1.245892154144     0.443123847426    15.994914619570
         N            1.500921832328    -1.012646054144    -0.181412952574    14.003074004430
         C            0.685483032328     0.228248845856    -0.388706152574    12.000000000000
         C            1.163883532328     1.446108545856     0.386917947426    12.000000000000
         C           -0.737656967672    -0.159237154144    -0.022739152574    12.000000000000
         H            0.734555032328     0.435530845856    -1.460209152574     1.007825032230
         H            1.203720032328    -1.793573154144    -0.692164152574     1.007825032230
         H            1.512612032328    -1.266955154144     0.838816847426     1.007825032230
         H            2.511976032328    -0.814030154144    -0.406358152574     1.007825032230
         H            1.160230032328     1.218024845856     1.480687847426     1.007825032230
         H            0.578370032328     2.280475845856     0.182246847426     1.007825032230
         H            2.230938032328     1.647572845856     0.120975847426     1.007825032230
         H           -2.484157967672     0.568061845856    -0.016283152574     1.007825032230

  Basis Set: AUG-CC-PVTZ
    Blend: AUG-CC-PVTZ
  Basis Set: (AUG-CC-PVTZ AUX)
    Blend: AUG-CC-PVTZ-JKFIT
	 Reference Energy          =    -322.3509854588846792 [Eh]
	 Singles Energy            =      -0.0000000000000000 [Eh]
	 Same-Spin Energy          =      -0.3116792558926419 [Eh]
	 Opposite-Spin Energy      =      -0.9979464594012148 [Eh]
	 Correlation Energy        =      -1.3096257152938566 [Eh]
	 Total Energy              =    -323.6606111741785412 [Eh]

	 ================> DF-SCS-MP2 Energies <==================
	-----------------------------------------------------------
	 SCS Same-Spin Scale       =       0.3333333333333333 [-]
	 SCS Opposite-Spin Scale   =       1.2000000000000000 [-]
	 SCS Same-Spin Energy      =      -0.1038930852975473 [Eh]
	 SCS Opposite-Spin Energy  =      -1.1975357512814577 [Eh]
	 SCS Correlation Energy    =      -1.3014288365790050 [Eh]
	 SCS Total Energy          =    -323.6524142954637000 [Eh]
	-----------------------------------------------------------

  Dipole Moment: [D]
     X:     5.7817      Y:    -1.2013      Z:    -1.0245     Total:     5.9934

*** Psi4 exiting successfully. Buy a developer a beer!
