                               Psi4 1.3.2 release

  ==> Input File <==

--------------------------------------------------------------------------
#psi4
#
memory 32 gb

molecule  {
1 1
  O       -1.6444657     0.8418241    -0.2844024
  O       -1.1034375    -1.2751146     0.4343497
  N        1.4473370    -1.0090820    -0.1563980
  C        0.6010380     0.2049760    -0.3963400
  C        1.1187320     1.3933860     0.3994720
  C       -0.8221020    -0.1825100    -0.0303730
  H        0.6501100     0.4122580    -1.4678430
  H        1.1192750    -1.8168460    -0.6997980
  H        1.4281670    -1.2902280     0.8311830
  H        2.4275310    -0.8373030    -0.4139920
  H        1.0757850     1.1947520     1.4730540
  H        0.4939250     2.2572030     0.1746130
  H        2.1464930     1.6243000     0.1133420
  H       -2.5686030     0.5447890    -0.0239170
units angstrom
no_reorient  #important for SAPT in psi4, default
symmetry c1  #important for SAPT in psi4, default
}

set PROPERTIES_ORIGIN ["COM"]
properties('MP2/aug-cc-pvtz', properties = ['dipole'])
--------------------------------------------------------------------------

    Molecular point group: c1
  Charge       = 1
  Multiplicity = 1
  Basis Set: AUG-CC-PVTZ
    Blend: AUG-CC-PVTZ
  Basis Set: (AUG-CC-PVTZ AUX)
    Blend: AUG-CC-PVTZ-JKFIT

    Orbital Energies [Eh]
    ---------------------

    Doubly Occupied:

       1A    -20.791534     2A    -20.735851     3A    -15.898830
       4A    -11.576523     5A    -11.506819     6A    -11.415390
       7A     -1.637908     8A     -1.545671     9A     -1.514273
      10A     -1.254179    11A     -1.105865    12A     -1.009052
      13A     -0.976910    14A     -0.964257    15A     -0.887950
      16A     -0.858185    17A     -0.846602    18A     -0.811821
      19A     -0.771531    20A     -0.735695    21A     -0.733933
      22A     -0.715866    23A     -0.658527    24A     -0.636513

  @DF-RHF Final Energy:  -322.35672947811690

   => Energetics <=

    Nuclear Repulsion Energy =            260.3948329921209961
    One-Electron Energy =                -946.3237522011989995
    Two-Electron Energy =                 363.5721897309610995
    Total Energy =                       -322.3567294781169039
  Basis Set: (AUG-CC-PVTZ AUX)
    Blend: AUG-CC-PVTZ-RI
    Molecular point group: c1

    Geometry (in Angstrom), charge = 1, multiplicity = 1:

       Center              X                  Y                   Z               Mass
    ------------   -----------------  -----------------  -----------------  -----------------
         O           -1.576867227424     0.863646192972    -0.282936492545    15.994914619570
         O           -1.035839027424    -1.253292507028     0.435815607455    15.994914619570
         N            1.514935472576    -0.987259907028    -0.154932092545    14.003074004430
         C            0.668636472576     0.226798092972    -0.394874092545    12.000000000000
         C            1.186330472576     1.415208092972     0.400937907455    12.000000000000
         C           -0.754503527424    -0.160687907028    -0.028907092545    12.000000000000
         H            0.717708472576     0.434080092972    -1.466377092545     1.007825032230
         H            1.186873472576    -1.795023907028    -0.698332092545     1.007825032230
         H            1.495765472576    -1.268405907028     0.832648907455     1.007825032230
         H            2.495129472576    -0.815480907028    -0.412526092545     1.007825032230
         H            1.143383472576     1.216574092972     1.474519907455     1.007825032230
         H            0.561523472576     2.279025092972     0.176078907455     1.007825032230
         H            2.214091472576     1.646122092972     0.114807907455     1.007825032230
         H           -2.501004527424     0.566611092972    -0.022451092545     1.007825032230

  Basis Set: AUG-CC-PVTZ
    Blend: AUG-CC-PVTZ
  Basis Set: (AUG-CC-PVTZ AUX)
    Blend: AUG-CC-PVTZ-JKFIT
	 Reference Energy          =    -322.3567294781169039 [Eh]
	 Singles Energy            =      -0.0000000000000000 [Eh]
	 Same-Spin Energy          =      -0.3120784487506379 [Eh]
	 Opposite-Spin Energy      =      -0.9986230959837274 [Eh]
	 Correlation Energy        =      -1.3107015447343655 [Eh]
	 Total Energy              =    -323.6674310228512468 [Eh]

	 ================> DF-SCS-MP2 Energies <==================
	-----------------------------------------------------------
	 SCS Same-Spin Scale       =       0.3333333333333333 [-]
	 SCS Opposite-Spin Scale   =       1.2000000000000000 [-]
	 SCS Same-Spin Energy      =      -0.1040261495835460 [Eh]
	 SCS Opposite-Spin Energy  =      -1.1983477151804729 [Eh]
	 SCS Correlation Energy    =      -1.3023738647640188 [Eh]
	 SCS Total Energy          =    -323.6591033428809396 [Eh]
	-----------------------------------------------------------

  Dipole Moment: [D]
     X:     5.5284      Y:    -1.2186      Z:    -1.0688     Total:     5.7611

*** Psi4 exiting successfully. Buy a developer a beer!
