                               Psi4 1.4a3.dev225

  ==> Input File <==

--------------------------------------------------------------------------
#psi4
#
memory 32 gb

molecule  {
1 1
  O       -1.6123010     0.9094490    -0.1675920
  O       -1.1928110    -1.2795120     0.3034070
  N        1.4156850    -1.0522820    -0.0637630
  C        0.6095860     0.1674070    -0.3957710
  C        1.1650120     1.3928430     0.3122100
  C       -0.8095626    -0.1608705    -0.0397802
  H        0.6656880     0.2905790    -1.4809690
  H        0.9122540    -1.9066690    -0.3390640
  H        1.5920220    -1.1264780     0.9462830
  H        2.3268530    -1.0442670    -0.5383350
  H        1.0907020     1.2862690     1.3970100
  H        0.5903660     2.2672430     0.0071660
  H        2.2096640     1.5504630     0.0359860
  H       -2.5330880     0.6393330     0.0432950
units angstrom
no_reorient  #important for SAPT in psi4, default
symmetry c1  #important for SAPT in psi4, default
}

set PROPERTIES_ORIGIN ["COM"]
properties('MP2/aug-cc-pvtz', properties = ['dipole'])
--------------------------------------------------------------------------

    Molecular point group: c1
  Charge       = 1
  Multiplicity = 1
  Basis Set: AUG-CC-PVTZ
    Blend: AUG-CC-PVTZ
  Basis Set: (AUG-CC-PVTZ AUX)
    Blend: AUG-CC-PVTZ-JKFIT

    Orbital Energies [Eh]
    ---------------------

    Doubly Occupied:

       1A    -20.786449     2A    -20.735179     3A    -15.899994
       4A    -11.578328     5A    -11.511038     6A    -11.417254
       7A     -1.636154     8A     -1.540962     9A     -1.513761
      10A     -1.259702    11A     -1.111930    12A     -1.014173
      13A     -0.980082    14A     -0.965173    15A     -0.885481
      16A     -0.858823    17A     -0.853304    18A     -0.805963
      19A     -0.772067    20A     -0.737145    21A     -0.734486
      22A     -0.717525    23A     -0.654206    24A     -0.639249

  @DF-RHF Final Energy:  -322.35655845738427

   => Energetics <=

    Nuclear Repulsion Energy =            260.4171184650232931
    One-Electron Energy =                -946.3304949297753410
    Two-Electron Energy =                 363.5568180073677240
    Total Energy =                       -322.3565584573842671
  Basis Set: (AUG-CC-PVTZ AUX)
    Blend: AUG-CC-PVTZ-RI
    Molecular point group: c1

    Geometry (in Angstrom), charge = 1, multiplicity = 1:

       Center              X                  Y                   Z               Mass
    ------------   -----------------  -----------------  -----------------  -----------------
         O           -1.539511856824     0.930435750067    -0.166162963623    15.994914619570
         O           -1.120021856824    -1.258525249933     0.304836036377    15.994914619570
         N            1.488474143176    -1.031295249933    -0.062333963623    14.003074004430
         C            0.682375143176     0.188393750067    -0.394341963623    12.000000000000
         C            1.237801143176     1.413829750067     0.313639036377    12.000000000000
         C           -0.736773456824    -0.139883749933    -0.038351163623    12.000000000000
         H            0.738477143176     0.311565750067    -1.479539963623     1.007825032230
         H            0.985043143176    -1.885682249933    -0.337634963623     1.007825032230
         H            1.664811143176    -1.105491249933     0.947712036377     1.007825032230
         H            2.399642143176    -1.023280249933    -0.536905963623     1.007825032230
         H            1.163491143176     1.307255750067     1.398439036377     1.007825032230
         H            0.663155143176     2.288229750067     0.008595036377     1.007825032230
         H            2.282453143176     1.571449750067     0.037415036377     1.007825032230
         H           -2.460298856824     0.660319750067     0.044724036377     1.007825032230

  Basis Set: AUG-CC-PVTZ
    Blend: AUG-CC-PVTZ
  Basis Set: (AUG-CC-PVTZ AUX)
    Blend: AUG-CC-PVTZ-JKFIT
	 Reference Energy          =    -322.3565584573842671 [Eh]
	 Singles Energy            =      -0.0000000000000000 [Eh]
	 Same-Spin Energy          =      -0.3121592514960969 [Eh]
	 Opposite-Spin Energy      =      -0.9986423289585391 [Eh]
	 Correlation Energy        =      -1.3108015804546360 [Eh]
	 Total Energy              =    -323.6673600378388755 [Eh]

	 ================> DF-SCS-MP2 Energies <==================
	-----------------------------------------------------------
	 SCS Same-Spin Scale       =       0.3333333333333333 [-]
	 SCS Opposite-Spin Scale   =       1.2000000000000000 [-]
	 SCS Same-Spin Energy      =      -0.1040530838320323 [Eh]
	 SCS Opposite-Spin Energy  =      -1.1983707947502469 [Eh]
	 SCS Correlation Energy    =      -1.3024238785822793 [Eh]
	 SCS Total Energy          =    -323.6589823359665274 [Eh]
	-----------------------------------------------------------

  Dipole Moment: [D]
     X:     5.7181      Y:    -1.3007      Z:    -0.6724     Total:     5.9026

*** Psi4 exiting successfully. Buy a developer a beer!
