                               Psi4 1.3.2 release

  ==> Input File <==

--------------------------------------------------------------------------
#psi4
#
memory 32 gb

molecule  {
1 1
  O       -1.6624030     0.8291070    -0.2765410
  O       -1.1238540    -1.2691650     0.4354900
  N        1.4916826    -0.9660640    -0.1079853
  C        0.6010380     0.2049760    -0.3963400
  C        1.1764749     1.3465083     0.4279285
  C       -0.8221020    -0.1825100    -0.0303730
  H        0.6501100     0.4122580    -1.4678430
  H        1.1192750    -1.8168460    -0.6997980
  H        1.4281670    -1.2902280     0.8311830
  H        2.4275310    -0.8373030    -0.4139920
  H        1.0757850     1.1947520     1.4730540
  H        0.4939250     2.2572030     0.1746130
  H        2.1464930     1.6243000     0.1133420
  H       -2.5686030     0.5447890    -0.0239170
units angstrom
no_reorient  #important for SAPT in psi4, default
symmetry c1  #important for SAPT in psi4, default
}

set PROPERTIES_ORIGIN ["COM"]
properties('MP2/aug-cc-pvtz', properties = ['dipole'])
--------------------------------------------------------------------------

    Molecular point group: c1
  Charge       = 1
  Multiplicity = 1
  Basis Set: AUG-CC-PVTZ
    Blend: AUG-CC-PVTZ
  Basis Set: (AUG-CC-PVTZ AUX)
    Blend: AUG-CC-PVTZ-JKFIT

    Orbital Energies [Eh]
    ---------------------

    Doubly Occupied:

       1A    -20.788413     2A    -20.736407     3A    -15.898029
       4A    -11.578760     5A    -11.510538     6A    -11.414540
       7A     -1.640495     8A     -1.545095     9A     -1.516556
      10A     -1.255031    11A     -1.109610    12A     -1.017839
      13A     -0.994779    14A     -0.935569    15A     -0.889089
      16A     -0.866903    17A     -0.853611    18A     -0.811847
      19A     -0.779287    20A     -0.741592    21A     -0.728751
      22A     -0.698015    23A     -0.657394    24A     -0.639506

  @DF-RHF Final Energy:  -322.34345172260339

   => Energetics <=

    Nuclear Repulsion Energy =            260.1671507353414654
    One-Electron Energy =                -945.8058921421529703
    Two-Electron Energy =                 363.2952896842081145
    Total Energy =                       -322.3434517226033904
  Basis Set: (AUG-CC-PVTZ AUX)
    Blend: AUG-CC-PVTZ-RI
    Molecular point group: c1

    Geometry (in Angstrom), charge = 1, multiplicity = 1:

       Center              X                  Y                   Z               Mass
    ------------   -----------------  -----------------  -----------------  -----------------
         O           -1.602582217127     0.851688555132    -0.287993637204    15.994914619570
         O           -1.064033217127    -1.246583444868     0.424037362796    15.994914619570
         N            1.551503382873    -0.943482444868    -0.119437937204    14.003074004430
         C            0.660858782873     0.227557555132    -0.407792637204    12.000000000000
         C            1.236295682873     1.369089855132     0.416475862796    12.000000000000
         C           -0.762281217127    -0.159928444868    -0.041825637204    12.000000000000
         H            0.709930782873     0.434839555132    -1.479295637204     1.007825032230
         H            1.179095782873    -1.794264444868    -0.711250637204     1.007825032230
         H            1.487987782873    -1.267646444868     0.819730362796     1.007825032230
         H            2.487351782873    -0.814721444868    -0.425444637204     1.007825032230
         H            1.135605782873     1.217333555132     1.461601362796     1.007825032230
         H            0.553745782873     2.279784555132     0.163160362796     1.007825032230
         H            2.206313782873     1.646881555132     0.101889362796     1.007825032230
         H           -2.508782217127     0.567370555132    -0.035369637204     1.007825032230

  Basis Set: AUG-CC-PVTZ
    Blend: AUG-CC-PVTZ
  Basis Set: (AUG-CC-PVTZ AUX)
    Blend: AUG-CC-PVTZ-JKFIT
	 Reference Energy          =    -322.3434517226033904 [Eh]
	 Singles Energy            =      -0.0000000000000000 [Eh]
	 Same-Spin Energy          =      -0.3120897965080845 [Eh]
	 Opposite-Spin Energy      =      -0.9987687707182780 [Eh]
	 Correlation Energy        =      -1.3108585672263624 [Eh]
	 Total Energy              =    -323.6543102898297661 [Eh]

	 ================> DF-SCS-MP2 Energies <==================
	-----------------------------------------------------------
	 SCS Same-Spin Scale       =       0.3333333333333333 [-]
	 SCS Opposite-Spin Scale   =       1.2000000000000000 [-]
	 SCS Same-Spin Energy      =      -0.1040299321693615 [Eh]
	 SCS Opposite-Spin Energy  =      -1.1985225248619336 [Eh]
	 SCS Correlation Energy    =      -1.3025524570312950 [Eh]
	 SCS Total Energy          =    -323.6460041796347014 [Eh]
	-----------------------------------------------------------

  Dipole Moment: [D]
     X:     5.5291      Y:    -1.2433      Z:    -1.1776     Total:     5.7882

*** Psi4 exiting successfully. Buy a developer a beer!
