                               Psi4 1.4a3.dev225

  ==> Input File <==

--------------------------------------------------------------------------
#psi4
#
memory 32 gb

molecule  {
1 1
  O       -1.6123010     0.9094490    -0.1675920
  O       -1.1928110    -1.2795120     0.3034070
  N        1.4156850    -1.0522820    -0.0637630
  C        0.6095860     0.1674070    -0.3957710
  C        1.1650120     1.3928430     0.3122100
  C       -0.8284910    -0.1652490    -0.0350320
  H        0.6667140     0.2928316    -1.5008152
  H        0.9122540    -1.9066690    -0.3390640
  H        1.5920220    -1.1264780     0.9462830
  H        2.3268530    -1.0442670    -0.5383350
  H        1.0907020     1.2862690     1.3970100
  H        0.5903660     2.2672430     0.0071660
  H        2.2096640     1.5504630     0.0359860
  H       -2.5330880     0.6393330     0.0432950
units angstrom
no_reorient  #important for SAPT in psi4, default
symmetry c1  #important for SAPT in psi4, default
}

set PROPERTIES_ORIGIN ["COM"]
properties('MP2/aug-cc-pvtz', properties = ['dipole'])
--------------------------------------------------------------------------

    Molecular point group: c1
  Charge       = 1
  Multiplicity = 1
  Basis Set: AUG-CC-PVTZ
    Blend: AUG-CC-PVTZ
  Basis Set: (AUG-CC-PVTZ AUX)
    Blend: AUG-CC-PVTZ-JKFIT

    Orbital Energies [Eh]
    ---------------------

    Doubly Occupied:

       1A    -20.788206     2A    -20.735679     3A    -15.898765
       4A    -11.577227     5A    -11.511427     6A    -11.415782
       7A     -1.641197     8A     -1.545832     9A     -1.514412
      10A     -1.254129    11A     -1.107638    12A     -1.012551
      13A     -0.978824    14A     -0.963961    15A     -0.886645
      16A     -0.859049    17A     -0.850738    18A     -0.807803
      19A     -0.772887    20A     -0.736468    21A     -0.734393
      22A     -0.715107    23A     -0.657833    24A     -0.638152

  @DF-RHF Final Energy:  -322.35835092073074

   => Energetics <=

    Nuclear Repulsion Energy =            260.2957547629602004
    One-Electron Energy =                -946.0988006652884224
    Two-Electron Energy =                 363.4446949815974790
    Total Energy =                       -322.3583509207307429
  Basis Set: (AUG-CC-PVTZ AUX)
    Blend: AUG-CC-PVTZ-RI
    Molecular point group: c1

    Geometry (in Angstrom), charge = 1, multiplicity = 1:

       Center              X                  Y                   Z               Mass
    ------------   -----------------  -----------------  -----------------  -----------------
         O           -1.537001107756     0.930993981062    -0.166573564879    15.994914619570
         O           -1.117511107756    -1.257967018938     0.304425435121    15.994914619570
         N            1.490984892244    -1.030737018938    -0.062744564879    14.003074004430
         C            0.684885892244     0.188951981062    -0.394752564879    12.000000000000
         C            1.240311892244     1.414387981062     0.313228435121    12.000000000000
         C           -0.753191107756    -0.143704018938    -0.034013564879    12.000000000000
         H            0.742013892244     0.314376581062    -1.499796764879     1.007825032230
         H            0.987553892244    -1.885124018938    -0.338045564879     1.007825032230
         H            1.667321892244    -1.104933018938     0.947301435121     1.007825032230
         H            2.402152892244    -1.022722018938    -0.537316564879     1.007825032230
         H            1.166001892244     1.307813981062     1.398028435121     1.007825032230
         H            0.665665892244     2.288787981062     0.008184435121     1.007825032230
         H            2.284963892244     1.572007981062     0.037004435121     1.007825032230
         H           -2.457788107756     0.660877981062     0.044313435121     1.007825032230

  Basis Set: AUG-CC-PVTZ
    Blend: AUG-CC-PVTZ
  Basis Set: (AUG-CC-PVTZ AUX)
    Blend: AUG-CC-PVTZ-JKFIT
	 Reference Energy          =    -322.3583509207307429 [Eh]
	 Singles Energy            =      -0.0000000000000000 [Eh]
	 Same-Spin Energy          =      -0.3118010851030117 [Eh]
	 Opposite-Spin Energy      =      -0.9979836292556773 [Eh]
	 Correlation Energy        =      -1.3097847143586892 [Eh]
	 Total Energy              =    -323.6681356350894134 [Eh]

	 ================> DF-SCS-MP2 Energies <==================
	-----------------------------------------------------------
	 SCS Same-Spin Scale       =       0.3333333333333333 [-]
	 SCS Opposite-Spin Scale   =       1.2000000000000000 [-]
	 SCS Same-Spin Energy      =      -0.1039336950343372 [Eh]
	 SCS Opposite-Spin Energy  =      -1.1975803551068127 [Eh]
	 SCS Correlation Energy    =      -1.3015140501411500 [Eh]
	 SCS Total Energy          =    -323.6598649708718654 [Eh]
	-----------------------------------------------------------

  Dipole Moment: [D]
     X:     5.6219      Y:    -1.3140      Z:    -0.6619     Total:     5.8113

*** Psi4 exiting successfully. Buy a developer a beer!
