                               Psi4 1.4a3.dev225

  ==> Input File <==

--------------------------------------------------------------------------
#psi4
#
memory 32 gb

molecule  {
1 1
  O       -1.6123010     0.9094490    -0.1675920
  O       -1.1928110    -1.2795120     0.3034070
  N        1.4156850    -1.0522820    -0.0637630
  C        0.6095860     0.1674070    -0.3957710
  C        1.1650120     1.3928430     0.3122100
  C       -0.8284910    -0.1652490    -0.0350320
  H        0.6656880     0.2905790    -1.4809690
  H        0.9367119    -1.8651608    -0.3256892
  H        1.5920220    -1.1264780     0.9462830
  H        2.3268530    -1.0442670    -0.5383350
  H        1.0907020     1.2862690     1.3970100
  H        0.5903660     2.2672430     0.0071660
  H        2.2096640     1.5504630     0.0359860
  H       -2.5330880     0.6393330     0.0432950
units angstrom
no_reorient  #important for SAPT in psi4, default
symmetry c1  #important for SAPT in psi4, default
}

set PROPERTIES_ORIGIN ["COM"]
properties('MP2/aug-cc-pvtz', properties = ['dipole'])
--------------------------------------------------------------------------

    Molecular point group: c1
  Charge       = 1
  Multiplicity = 1
  Basis Set: AUG-CC-PVTZ
    Blend: AUG-CC-PVTZ
  Basis Set: (AUG-CC-PVTZ AUX)
    Blend: AUG-CC-PVTZ-JKFIT

    Orbital Energies [Eh]
    ---------------------

    Doubly Occupied:

       1A    -20.788389     2A    -20.735727     3A    -15.896378
       4A    -11.577392     5A    -11.510195     6A    -11.416188
       7A     -1.641447     8A     -1.547696     9A     -1.521285
      10A     -1.257688    11A     -1.108755    12A     -1.015349
      13A     -0.983062    14A     -0.976604    15A     -0.887429
      16A     -0.860138    17A     -0.854109    18A     -0.808749
      19A     -0.773344    20A     -0.736883    21A     -0.736068
      22A     -0.717070    23A     -0.657832    24A     -0.638352

  @DF-RHF Final Energy:  -322.35830822915335

   => Energetics <=

    Nuclear Repulsion Energy =            260.6503267948099847
    One-Electron Energy =                -946.7250138952138059
    Two-Electron Energy =                 363.7163788712504697
    Total Energy =                       -322.3583082291533515
  Basis Set: (AUG-CC-PVTZ AUX)
    Blend: AUG-CC-PVTZ-RI
    Molecular point group: c1

    Geometry (in Angstrom), charge = 1, multiplicity = 1:

       Center              X                  Y                   Z               Mass
    ------------   -----------------  -----------------  -----------------  -----------------
         O           -1.537263337764     0.930554665586    -0.166945346214    15.994914619570
         O           -1.117773337764    -1.258406334414     0.304053653786    15.994914619570
         N            1.490722662236    -1.031176334414    -0.063116346214    14.003074004430
         C            0.684623662236     0.188512665586    -0.395124346214    12.000000000000
         C            1.240049662236     1.413948665586     0.312856653786    12.000000000000
         C           -0.753453337764    -0.144143334414    -0.034385346214    12.000000000000
         H            0.740725662236     0.311684665586    -1.480322346214     1.007825032230
         H            1.011749562236    -1.844055134414    -0.325042546214     1.007825032230
         H            1.667059662236    -1.105372334414     0.946929653786     1.007825032230
         H            2.401890662236    -1.023161334414    -0.537688346214     1.007825032230
         H            1.165739662236     1.307374665586     1.397656653786     1.007825032230
         H            0.665403662236     2.288348665586     0.007812653786     1.007825032230
         H            2.284701662236     1.571568665586     0.036632653786     1.007825032230
         H           -2.458050337764     0.660438665586     0.043941653786     1.007825032230

  Basis Set: AUG-CC-PVTZ
    Blend: AUG-CC-PVTZ
  Basis Set: (AUG-CC-PVTZ AUX)
    Blend: AUG-CC-PVTZ-JKFIT
	 Reference Energy          =    -322.3583082291533515 [Eh]
	 Singles Energy            =      -0.0000000000000000 [Eh]
	 Same-Spin Energy          =      -0.3114386424046512 [Eh]
	 Opposite-Spin Energy      =      -0.9970253390519573 [Eh]
	 Correlation Energy        =      -1.3084639814566086 [Eh]
	 Total Energy              =    -323.6667722106099632 [Eh]

	 ================> DF-SCS-MP2 Energies <==================
	-----------------------------------------------------------
	 SCS Same-Spin Scale       =       0.3333333333333333 [-]
	 SCS Opposite-Spin Scale   =       1.2000000000000000 [-]
	 SCS Same-Spin Energy      =      -0.1038128808015504 [Eh]
	 SCS Opposite-Spin Energy  =      -1.1964304068623488 [Eh]
	 SCS Correlation Energy    =      -1.3002432876638992 [Eh]
	 SCS Total Energy          =    -323.6585515168172265 [Eh]
	-----------------------------------------------------------

  Dipole Moment: [D]
     X:     5.6624      Y:    -1.2560      Z:    -0.6394     Total:     5.8351

*** Psi4 exiting successfully. Buy a developer a beer!
