                               Psi4 1.4a3.dev225

  ==> Input File <==

--------------------------------------------------------------------------
#psi4
#
memory 32 gb

molecule  {
1 1
  O       -1.6123010     0.9094490    -0.1675920
  O       -1.1928110    -1.2795120     0.3034070
  N        1.4156850    -1.0522820    -0.0637630
  C        0.6095860     0.1674070    -0.3957710
  C        1.1650120     1.3928430     0.3122100
  C       -0.8474194    -0.1696275    -0.0302838
  H        0.6656880     0.2905790    -1.4809690
  H        0.9122540    -1.9066690    -0.3390640
  H        1.5920220    -1.1264780     0.9462830
  H        2.3268530    -1.0442670    -0.5383350
  H        1.0907020     1.2862690     1.3970100
  H        0.5903660     2.2672430     0.0071660
  H        2.2096640     1.5504630     0.0359860
  H       -2.5330880     0.6393330     0.0432950
units angstrom
no_reorient  #important for SAPT in psi4, default
symmetry c1  #important for SAPT in psi4, default
}

set PROPERTIES_ORIGIN ["COM"]
properties('MP2/aug-cc-pvtz', properties = ['dipole'])
--------------------------------------------------------------------------

    Molecular point group: c1
  Charge       = 1
  Multiplicity = 1
  Basis Set: AUG-CC-PVTZ
    Blend: AUG-CC-PVTZ
  Basis Set: (AUG-CC-PVTZ AUX)
    Blend: AUG-CC-PVTZ-JKFIT

    Orbital Energies [Eh]
    ---------------------

    Doubly Occupied:

       1A    -20.790172     2A    -20.736328     3A    -15.897412
       4A    -11.576211     5A    -11.507678     6A    -11.414181
       7A     -1.646410     8A     -1.551743     9A     -1.514414
      10A     -1.250812    11A     -1.104212    12A     -1.013345
      13A     -0.977973    14A     -0.962759    15A     -0.889051
      16A     -0.859605    17A     -0.852698    18A     -0.810105
      19A     -0.773752    20A     -0.736644    21A     -0.733786
      22A     -0.715569    23A     -0.661666    24A     -0.636725

  @DF-RHF Final Energy:  -322.36010364406604

   => Energetics <=

    Nuclear Repulsion Energy =            260.3827780187002645
    One-Electron Energy =                -946.2592644186121333
    Two-Electron Energy =                 363.5163827558458252
    Total Energy =                       -322.3601036440660437
  Basis Set: (AUG-CC-PVTZ AUX)
    Blend: AUG-CC-PVTZ-RI
    Molecular point group: c1

    Geometry (in Angstrom), charge = 1, multiplicity = 1:

       Center              X                  Y                   Z               Mass
    ------------   -----------------  -----------------  -----------------  -----------------
         O           -1.534467394439     0.931602630445    -0.167428369906    15.994914619570
         O           -1.114977394439    -1.257358369555     0.303570630094    15.994914619570
         N            1.493518605561    -1.030128369555    -0.063599369906    14.003074004430
         C            0.687419605561     0.189560630445    -0.395607369906    12.000000000000
         C            1.242845605561     1.414996630445     0.312373630094    12.000000000000
         C           -0.769585794439    -0.147473869555    -0.030120169906    12.000000000000
         H            0.743521605561     0.312732630445    -1.480805369906     1.007825032230
         H            0.990087605561    -1.884515369555    -0.338900369906     1.007825032230
         H            1.669855605561    -1.104324369555     0.946446630094     1.007825032230
         H            2.404686605561    -1.022113369555    -0.538171369906     1.007825032230
         H            1.168535605561     1.308422630445     1.397173630094     1.007825032230
         H            0.668199605561     2.289396630445     0.007329630094     1.007825032230
         H            2.287497605561     1.572616630445     0.036149630094     1.007825032230
         H           -2.455254394439     0.661486630445     0.043458630094     1.007825032230

  Basis Set: AUG-CC-PVTZ
    Blend: AUG-CC-PVTZ
  Basis Set: (AUG-CC-PVTZ AUX)
    Blend: AUG-CC-PVTZ-JKFIT
	 Reference Energy          =    -322.3601036440660437 [Eh]
	 Singles Energy            =      -0.0000000000000000 [Eh]
	 Same-Spin Energy          =      -0.3114200930076561 [Eh]
	 Opposite-Spin Energy      =      -0.9971195162355235 [Eh]
	 Correlation Energy        =      -1.3085396092431796 [Eh]
	 Total Energy              =    -323.6686432533091988 [Eh]

	 ================> DF-SCS-MP2 Energies <==================
	-----------------------------------------------------------
	 SCS Same-Spin Scale       =       0.3333333333333333 [-]
	 SCS Opposite-Spin Scale   =       1.2000000000000000 [-]
	 SCS Same-Spin Energy      =      -0.1038066976692187 [Eh]
	 SCS Opposite-Spin Energy  =      -1.1965434194826281 [Eh]
	 SCS Correlation Energy    =      -1.3003501171518468 [Eh]
	 SCS Total Energy          =    -323.6604537612178660 [Eh]
	-----------------------------------------------------------

  Dipole Moment: [D]
     X:     5.5193      Y:    -1.3346      Z:    -0.6416     Total:     5.7145

*** Psi4 exiting successfully. Buy a developer a beer!
