                               Psi4 1.4a3.dev225

  ==> Input File <==

--------------------------------------------------------------------------
#psi4
#
memory 32 gb

molecule  {
1 1
  O       -1.6123010     0.9094490    -0.1675920
  O       -1.1928110    -1.2795120     0.3034070
  N        1.4156850    -1.0522820    -0.0637630
  C        0.6095860     0.1674070    -0.3957710
  C        1.1650120     1.3928430     0.3122100
  C       -0.8402181    -0.1491698    -0.0370153
  H        0.6656880     0.2905790    -1.4809690
  H        0.9122540    -1.9066690    -0.3390640
  H        1.5920220    -1.1264780     0.9462830
  H        2.3268530    -1.0442670    -0.5383350
  H        1.0907020     1.2862690     1.3970100
  H        0.5903660     2.2672430     0.0071660
  H        2.2096640     1.5504630     0.0359860
  H       -2.5330880     0.6393330     0.0432950
units angstrom
no_reorient  #important for SAPT in psi4, default
symmetry c1  #important for SAPT in psi4, default
}

set PROPERTIES_ORIGIN ["COM"]
properties('MP2/aug-cc-pvtz', properties = ['dipole'])
--------------------------------------------------------------------------

    Molecular point group: c1
  Charge       = 1
  Multiplicity = 1
  Basis Set: AUG-CC-PVTZ
    Blend: AUG-CC-PVTZ
  Basis Set: (AUG-CC-PVTZ AUX)
    Blend: AUG-CC-PVTZ-JKFIT

    Orbital Energies [Eh]
    ---------------------

    Doubly Occupied:

       1A    -20.794018     2A    -20.732077     3A    -15.897919
       4A    -11.577840     5A    -11.508790     6A    -11.415257
       7A     -1.647613     8A     -1.543887     9A     -1.511912
      10A     -1.253962    11A     -1.106922    12A     -1.017654
      13A     -0.979223    14A     -0.962883    15A     -0.887990
      16A     -0.861057    17A     -0.853600    18A     -0.810707
      19A     -0.772513    20A     -0.735494    21A     -0.733649
      22A     -0.716095    23A     -0.654593    24A     -0.635958

  @DF-RHF Final Energy:  -322.35829458944886

   => Energetics <=

    Nuclear Repulsion Energy =            260.3594666853299486
    One-Electron Energy =                -946.2122943636433092
    Two-Electron Energy =                 363.4945330888645003
    Total Energy =                       -322.3582945894488603
  Basis Set: (AUG-CC-PVTZ AUX)
    Blend: AUG-CC-PVTZ-RI
    Molecular point group: c1

    Geometry (in Angstrom), charge = 1, multiplicity = 1:

       Center              X                  Y                   Z               Mass
    ------------   -----------------  -----------------  -----------------  -----------------
         O           -1.535426975993     0.928876618259    -0.166531389746    15.994914619570
         O           -1.115936975993    -1.260084381741     0.304467610254    15.994914619570
         N            1.492559024007    -1.032854381741    -0.062702389746    14.003074004430
         C            0.686460024007     0.186834618259    -0.394710389746    12.000000000000
         C            1.241886024007     1.412270618259     0.313270610254    12.000000000000
         C           -0.763344075993    -0.129742181741    -0.035954689746    12.000000000000
         H            0.742562024007     0.310006618259    -1.479908389746     1.007825032230
         H            0.989128024007    -1.887241381741    -0.338003389746     1.007825032230
         H            1.668896024007    -1.107050381741     0.947343610254     1.007825032230
         H            2.403727024007    -1.024839381741    -0.537274389746     1.007825032230
         H            1.167576024007     1.305696618259     1.398070610254     1.007825032230
         H            0.667240024007     2.286670618259     0.008226610254     1.007825032230
         H            2.286538024007     1.569890618259     0.037046610254     1.007825032230
         H           -2.456213975993     0.658760618259     0.044355610254     1.007825032230

  Basis Set: AUG-CC-PVTZ
    Blend: AUG-CC-PVTZ
  Basis Set: (AUG-CC-PVTZ AUX)
    Blend: AUG-CC-PVTZ-JKFIT
	 Reference Energy          =    -322.3582945894488603 [Eh]
	 Singles Energy            =      -0.0000000000000000 [Eh]
	 Same-Spin Energy          =      -0.3118652431010429 [Eh]
	 Opposite-Spin Energy      =      -0.9978945487991064 [Eh]
	 Correlation Energy        =      -1.3097597919001494 [Eh]
	 Total Energy              =    -323.6680543813490090 [Eh]

	 ================> DF-SCS-MP2 Energies <==================
	-----------------------------------------------------------
	 SCS Same-Spin Scale       =       0.3333333333333333 [-]
	 SCS Opposite-Spin Scale   =       1.2000000000000000 [-]
	 SCS Same-Spin Energy      =      -0.1039550810336810 [Eh]
	 SCS Opposite-Spin Energy  =      -1.1974734585589277 [Eh]
	 SCS Correlation Energy    =      -1.3014285395926086 [Eh]
	 SCS Total Energy          =    -323.6597231290414811 [Eh]
	-----------------------------------------------------------

  Dipole Moment: [D]
     X:     5.5315      Y:    -1.1976      Z:    -0.6763     Total:     5.7000

*** Psi4 exiting successfully. Buy a developer a beer!
