                               Psi4 1.3.2 release

  ==> Input File <==

--------------------------------------------------------------------------
#psi4
#
memory 32 gb

molecule  {
1 1
  O       -1.6624030     0.8291070    -0.2765410
  O       -1.1238540    -1.2691650     0.4354900
  N        1.4473370    -1.0090820    -0.1563980
  C        0.6010380     0.2049760    -0.3963400
  C        1.1187320     1.3933860     0.3994720
  C       -1.0093976    -0.2335060     0.0177909
  H        0.6501100     0.4122580    -1.4678430
  H        1.1192750    -1.8168460    -0.6997980
  H        1.4281670    -1.2902280     0.8311830
  H        2.4275310    -0.8373030    -0.4139920
  H        1.0757850     1.1947520     1.4730540
  H        0.4939250     2.2572030     0.1746130
  H        2.1464930     1.6243000     0.1133420
  H       -2.5686030     0.5447890    -0.0239170
units angstrom
no_reorient  #important for SAPT in psi4, default
symmetry c1  #important for SAPT in psi4, default
}

set PROPERTIES_ORIGIN ["COM"]
properties('MP2/aug-cc-pvtz', properties = ['dipole'])
--------------------------------------------------------------------------

    Molecular point group: c1
  Charge       = 1
  Multiplicity = 1
  Basis Set: AUG-CC-PVTZ
    Blend: AUG-CC-PVTZ
  Basis Set: (AUG-CC-PVTZ AUX)
    Blend: AUG-CC-PVTZ-JKFIT

    Orbital Energies [Eh]
    ---------------------

    Doubly Occupied:

       1A    -20.810017     2A    -20.748500     3A    -15.885592
       4A    -11.576712     5A    -11.480862     6A    -11.399495
       7A     -1.692805     8A     -1.615828     9A     -1.502672
      10A     -1.217873    11A     -1.073423    12A     -1.009106
      13A     -0.966390    14A     -0.951875    15A     -0.913888
      16A     -0.879547    17A     -0.852692    18A     -0.828339
      19A     -0.775690    20A     -0.744118    21A     -0.721540
      22A     -0.701789    23A     -0.696890    24A     -0.595715

  @DF-RHF Final Energy:  -322.32532151676571

   => Energetics <=

    Nuclear Repulsion Energy =            260.1224589470811566
    One-Electron Energy =                -945.6128376469459909
    Two-Electron Energy =                 363.1650571830990657
    Total Energy =                       -322.3253215167657117
  Basis Set: (AUG-CC-PVTZ AUX)
    Blend: AUG-CC-PVTZ-RI
    Molecular point group: c1

    Geometry (in Angstrom), charge = 1, multiplicity = 1:

       Center              X                  Y                   Z               Mass
    ------------   -----------------  -----------------  -----------------  -----------------
         O           -1.563035086967     0.858926356401    -0.283091795521    15.994914619570
         O           -1.024486086967    -1.239345643599     0.428939204479    15.994914619570
         N            1.546704913033    -0.979262643599    -0.162948795521    14.003074004430
         C            0.700405913033     0.234795356401    -0.402890795521    12.000000000000
         C            1.218099913033     1.423205356401     0.392921204479    12.000000000000
         C           -0.910029686967    -0.203686643599     0.011240104479    12.000000000000
         H            0.749477913033     0.442077356401    -1.474393795521     1.007825032230
         H            1.218642913033    -1.787026643599    -0.706348795521     1.007825032230
         H            1.527534913033    -1.260408643599     0.824632204479     1.007825032230
         H            2.526898913033    -0.807483643599    -0.420542795521     1.007825032230
         H            1.175152913033     1.224571356401     1.466503204479     1.007825032230
         H            0.593292913033     2.287022356401     0.168062204479     1.007825032230
         H            2.245860913033     1.654119356401     0.106791204479     1.007825032230
         H           -2.469235086967     0.574608356401    -0.030467795521     1.007825032230

  Basis Set: AUG-CC-PVTZ
    Blend: AUG-CC-PVTZ
  Basis Set: (AUG-CC-PVTZ AUX)
    Blend: AUG-CC-PVTZ-JKFIT
	 Reference Energy          =    -322.3253215167657117 [Eh]
	 Singles Energy            =      -0.0000000000000000 [Eh]
	 Same-Spin Energy          =      -0.3102139235897040 [Eh]
	 Opposite-Spin Energy      =      -0.9945003363459943 [Eh]
	 Correlation Energy        =      -1.3047142599356985 [Eh]
	 Total Energy              =    -323.6300357767013907 [Eh]

	 ================> DF-SCS-MP2 Energies <==================
	-----------------------------------------------------------
	 SCS Same-Spin Scale       =       0.3333333333333333 [-]
	 SCS Opposite-Spin Scale   =       1.2000000000000000 [-]
	 SCS Same-Spin Energy      =      -0.1034046411965680 [Eh]
	 SCS Opposite-Spin Energy  =      -1.1934004036151931 [Eh]
	 SCS Correlation Energy    =      -1.2968050448117610 [Eh]
	 SCS Total Energy          =    -323.6221265615774882 [Eh]
	-----------------------------------------------------------

  Dipole Moment: [D]
     X:     4.4577      Y:    -1.5559      Z:    -0.8760     Total:     4.8020

*** Psi4 exiting successfully. Buy a developer a beer!
