                               Psi4 1.3.2 release

  ==> Input File <==

--------------------------------------------------------------------------
#psi4
#
memory 32 gb

molecule  {
1 1
  O       -1.6624030     0.8291070    -0.2765410
  O       -1.1238540    -1.2691650     0.4354900
  N        1.4473370    -1.0090820    -0.1563980
  C        0.6155094     0.2460047    -0.4630390
  C        1.1187320     1.3933860     0.3994720
  C       -0.8221020    -0.1825100    -0.0303730
  H        0.6501100     0.4122580    -1.4678430
  H        1.1192750    -1.8168460    -0.6997980
  H        1.4281670    -1.2902280     0.8311830
  H        2.4275310    -0.8373030    -0.4139920
  H        1.0975574     1.2468811     1.4820459
  H        0.4939250     2.2572030     0.1746130
  H        2.1464930     1.6243000     0.1133420
  H       -2.5686030     0.5447890    -0.0239170
units angstrom
no_reorient  #important for SAPT in psi4, default
symmetry c1  #important for SAPT in psi4, default
}

set PROPERTIES_ORIGIN ["COM"]
properties('MP2/aug-cc-pvtz', properties = ['dipole'])
--------------------------------------------------------------------------

    Molecular point group: c1
  Charge       = 1
  Multiplicity = 1
  Basis Set: AUG-CC-PVTZ
    Blend: AUG-CC-PVTZ
  Basis Set: (AUG-CC-PVTZ AUX)
    Blend: AUG-CC-PVTZ-JKFIT

    Orbital Energies [Eh]
    ---------------------

    Doubly Occupied:

       1A    -20.786657     2A    -20.736109     3A    -15.895561
       4A    -11.578179     5A    -11.511291     6A    -11.416314
       7A     -1.638370     8A     -1.542257     9A     -1.506758
      10A     -1.255780    11A     -1.104524    12A     -1.014961
      13A     -0.971482    14A     -0.959071    15A     -0.889903
      16A     -0.860986    17A     -0.847068    18A     -0.810668
      19A     -0.769806    20A     -0.744740    21A     -0.732614
      22A     -0.719653    23A     -0.657136    24A     -0.634247

  @DF-RHF Final Energy:  -322.35117392746014

   => Energetics <=

    Nuclear Repulsion Energy =            259.3231090486855805
    One-Electron Energy =                -944.1802928066701952
    Two-Electron Energy =                 362.5060098305244196
    Total Energy =                       -322.3511739274601382
  Basis Set: (AUG-CC-PVTZ AUX)
    Blend: AUG-CC-PVTZ-RI
    Molecular point group: c1

    Geometry (in Angstrom), charge = 1, multiplicity = 1:

       Center              X                  Y                   Z               Mass
    ------------   -----------------  -----------------  -----------------  -----------------
         O           -1.590164431368     0.846080573890    -0.267886810985    15.994914619570
         O           -1.051615431368    -1.252191426110     0.444144189015    15.994914619570
         N            1.519575568632    -0.992108426110    -0.147743810985    14.003074004430
         C            0.687747968632     0.262978273890    -0.454384810985    12.000000000000
         C            1.190970568632     1.410359573890     0.408126189015    12.000000000000
         C           -0.749863431368    -0.165536426110    -0.021718810985    12.000000000000
         H            0.722348568632     0.429231573890    -1.459188810985     1.007825032230
         H            1.191513568632    -1.799872426110    -0.691143810985     1.007825032230
         H            1.500405568632    -1.273254426110     0.839837189015     1.007825032230
         H            2.499769568632    -0.820329426110    -0.405337810985     1.007825032230
         H            1.169795968632     1.263854673890     1.490700089015     1.007825032230
         H            0.566163568632     2.274176573890     0.183267189015     1.007825032230
         H            2.218731568632     1.641273573890     0.121996189015     1.007825032230
         H           -2.496364431368     0.561762573890    -0.015262810985     1.007825032230

  Basis Set: AUG-CC-PVTZ
    Blend: AUG-CC-PVTZ
  Basis Set: (AUG-CC-PVTZ AUX)
    Blend: AUG-CC-PVTZ-JKFIT
	 Reference Energy          =    -322.3511739274601382 [Eh]
	 Singles Energy            =      -0.0000000000000000 [Eh]
	 Same-Spin Energy          =      -0.3114332553602204 [Eh]
	 Opposite-Spin Energy      =      -0.9979621687066300 [Eh]
	 Correlation Energy        =      -1.3093954240668504 [Eh]
	 Total Energy              =    -323.6605693515269877 [Eh]

	 ================> DF-SCS-MP2 Energies <==================
	-----------------------------------------------------------
	 SCS Same-Spin Scale       =       0.3333333333333333 [-]
	 SCS Opposite-Spin Scale   =       1.2000000000000000 [-]
	 SCS Same-Spin Energy      =      -0.1038110851200735 [Eh]
	 SCS Opposite-Spin Energy  =      -1.1975546024479560 [Eh]
	 SCS Correlation Energy    =      -1.3013656875680295 [Eh]
	 SCS Total Energy          =    -323.6525396150281608 [Eh]
	-----------------------------------------------------------

  Dipole Moment: [D]
     X:     5.5854      Y:    -1.1743      Z:    -1.0591     Total:     5.8050

*** Psi4 exiting successfully. Buy a developer a beer!
