                               Psi4 1.3.2 release

  ==> Input File <==

--------------------------------------------------------------------------
#psi4
#
memory 32 gb

molecule  {
1 1
  O       -1.6624030     0.8291070    -0.2765410
  O       -1.1238540    -1.2691650     0.4354900
  N        1.4473370    -1.0090820    -0.1563980
  C        0.6010380     0.2049760    -0.3963400
  C        1.1868019     1.5496461     0.5041107
  C       -0.8221020    -0.1825100    -0.0303730
  H        0.6501100     0.4122580    -1.4678430
  H        1.1192750    -1.8168460    -0.6997980
  H        1.4281670    -1.2902280     0.8311830
  H        2.4275310    -0.8373030    -0.4139920
  H        1.0757850     1.1947520     1.4730540
  H        0.4939250     2.2572030     0.1746130
  H        2.1464930     1.6243000     0.1133420
  H       -2.5686030     0.5447890    -0.0239170
units angstrom
no_reorient  #important for SAPT in psi4, default
symmetry c1  #important for SAPT in psi4, default
}

set PROPERTIES_ORIGIN ["COM"]
properties('MP2/aug-cc-pvtz', properties = ['dipole'])
--------------------------------------------------------------------------

    Molecular point group: c1
  Charge       = 1
  Multiplicity = 1
  Basis Set: AUG-CC-PVTZ
    Blend: AUG-CC-PVTZ
  Basis Set: (AUG-CC-PVTZ AUX)
    Blend: AUG-CC-PVTZ-JKFIT

    Orbital Energies [Eh]
    ---------------------

    Doubly Occupied:

       1A    -20.784408     2A    -20.730615     3A    -15.898626
       4A    -11.572891     5A    -11.506477     6A    -11.424115
       7A     -1.635955     8A     -1.540853     9A     -1.510436
      10A     -1.230057    11A     -1.118362    12A     -1.008483
      13A     -0.975634    14A     -0.963287    15A     -0.882461
      16A     -0.854952    17A     -0.841591    18A     -0.803515
      19A     -0.784802    20A     -0.767618    21A     -0.741955
      22A     -0.679198    23A     -0.651296    24A     -0.630628

  @DF-RHF Final Energy:  -322.33307804661246

   => Energetics <=

    Nuclear Repulsion Energy =            257.2274381673187236
    One-Electron Energy =                -940.0446064599275360
    Two-Electron Energy =                 360.4840902459963559
    Total Energy =                       -322.3330780466124565
  Basis Set: (AUG-CC-PVTZ AUX)
    Blend: AUG-CC-PVTZ-RI
    Molecular point group: c1

    Geometry (in Angstrom), charge = 1, multiplicity = 1:

       Center              X                  Y                   Z               Mass
    ------------   -----------------  -----------------  -----------------  -----------------
         O           -1.597062835198     0.831309241363    -0.290617127939    15.994914619570
         O           -1.058513835198    -1.266962758637     0.421413872061    15.994914619570
         N            1.512677164802    -1.006879758637    -0.170474127939    14.003074004430
         C            0.666378164802     0.207178241363    -0.410416127939    12.000000000000
         C            1.252142064802     1.551848341363     0.490034572061    12.000000000000
         C           -0.756761835198    -0.180307758637    -0.044449127939    12.000000000000
         H            0.715450164802     0.414460241363    -1.481919127939     1.007825032230
         H            1.184615164802    -1.814643758637    -0.713874127939     1.007825032230
         H            1.493507164802    -1.288025758637     0.817106872061     1.007825032230
         H            2.492871164802    -0.835100758637    -0.428068127939     1.007825032230
         H            1.141125164802     1.196954241363     1.458977872061     1.007825032230
         H            0.559265164802     2.259405241363     0.160536872061     1.007825032230
         H            2.211833164802     1.626502241363     0.099265872061     1.007825032230
         H           -2.503262835198     0.546991241363    -0.037993127939     1.007825032230

  Basis Set: AUG-CC-PVTZ
    Blend: AUG-CC-PVTZ
  Basis Set: (AUG-CC-PVTZ AUX)
    Blend: AUG-CC-PVTZ-JKFIT
	 Reference Energy          =    -322.3330780466124565 [Eh]
	 Singles Energy            =      -0.0000000000000000 [Eh]
	 Same-Spin Energy          =      -0.3109817068790209 [Eh]
	 Opposite-Spin Energy      =      -0.9980731384768717 [Eh]
	 Correlation Energy        =      -1.3090548453558926 [Eh]
	 Total Energy              =    -323.6421328919683447 [Eh]

	 ================> DF-SCS-MP2 Energies <==================
	-----------------------------------------------------------
	 SCS Same-Spin Scale       =       0.3333333333333333 [-]
	 SCS Opposite-Spin Scale   =       1.2000000000000000 [-]
	 SCS Same-Spin Energy      =      -0.1036605689596736 [Eh]
	 SCS Opposite-Spin Energy  =      -1.1976877661722460 [Eh]
	 SCS Correlation Energy    =      -1.3013483351319197 [Eh]
	 SCS Total Energy          =    -323.6344263817443903 [Eh]
	-----------------------------------------------------------

  Dipole Moment: [D]
     X:     5.7651      Y:    -1.2433      Z:    -1.0879     Total:     5.9971

*** Psi4 exiting successfully. Buy a developer a beer!
