                               Psi4 1.4a3.dev225

  ==> Input File <==

--------------------------------------------------------------------------
#psi4
#
memory 32 gb

molecule  {
1 1
  O       -1.6123010     0.9094490    -0.1675920
  O       -1.1928110    -1.2795120     0.3034070
  N        1.4156850    -1.0522820    -0.0637630
  C        0.6095860     0.1674070    -0.3957710
  C        1.1650120     1.3928430     0.3122100
  C       -0.7991733    -0.2054471    -0.0300737
  H        0.6656880     0.2905790    -1.4809690
  H        0.9122540    -1.9066690    -0.3390640
  H        1.5920220    -1.1264780     0.9462830
  H        2.3268530    -1.0442670    -0.5383350
  H        1.0907020     1.2862690     1.3970100
  H        0.5903660     2.2672430     0.0071660
  H        2.2096640     1.5504630     0.0359860
  H       -2.5330880     0.6393330     0.0432950
units angstrom
no_reorient  #important for SAPT in psi4, default
symmetry c1  #important for SAPT in psi4, default
}

set PROPERTIES_ORIGIN ["COM"]
properties('MP2/aug-cc-pvtz', properties = ['dipole'])
--------------------------------------------------------------------------

    Molecular point group: c1
  Charge       = 1
  Multiplicity = 1
  Basis Set: AUG-CC-PVTZ
    Blend: AUG-CC-PVTZ
  Basis Set: (AUG-CC-PVTZ AUX)
    Blend: AUG-CC-PVTZ-JKFIT

    Orbital Energies [Eh]
    ---------------------

    Doubly Occupied:

       1A    -20.773871     2A    -20.744506     3A    -15.900708
       4A    -11.575639     5A    -11.511330     6A    -11.416933
       7A     -1.637486     8A     -1.541814     9A     -1.520029
      10A     -1.258243    11A     -1.111579    12A     -1.007367
      13A     -0.976496    14A     -0.966808    15A     -0.888269
      16A     -0.853910    17A     -0.852330    18A     -0.803485
      19A     -0.774072    20A     -0.739445    21A     -0.735288
      22A     -0.717083    23A     -0.663462    24A     -0.641797

  @DF-RHF Final Energy:  -322.35574795956546

   => Energetics <=

    Nuclear Repulsion Energy =            260.5292293945050233
    One-Electron Energy =                -946.5460566328956702
    Two-Electron Energy =                 363.6610792788251842
    Total Energy =                       -322.3557479595654627
  Basis Set: (AUG-CC-PVTZ AUX)
    Blend: AUG-CC-PVTZ-RI
    Molecular point group: c1

    Geometry (in Angstrom), charge = 1, multiplicity = 1:

       Center              X                  Y                   Z               Mass
    ------------   -----------------  -----------------  -----------------  -----------------
         O           -1.540896243066     0.936375633574    -0.167456365974    15.994914619570
         O           -1.121406243066    -1.252585366426     0.303542634026    15.994914619570
         N            1.487089756934    -1.025355366426    -0.063627365974    14.003074004430
         C            0.680990756934     0.194333633574    -0.395635365974    12.000000000000
         C            1.236416756934     1.419769633574     0.312345634026    12.000000000000
         C           -0.727768543066    -0.178520466426    -0.029938065974    12.000000000000
         H            0.737092756934     0.317505633574    -1.480833365974     1.007825032230
         H            0.983658756934    -1.879742366426    -0.338928365974     1.007825032230
         H            1.663426756934    -1.099551366426     0.946418634026     1.007825032230
         H            2.398257756934    -1.017340366426    -0.538199365974     1.007825032230
         H            1.162106756934     1.313195633574     1.397145634026     1.007825032230
         H            0.661770756934     2.294169633574     0.007301634026     1.007825032230
         H            2.281068756934     1.577389633574     0.036121634026     1.007825032230
         H           -2.461683243066     0.666259633574     0.043430634026     1.007825032230

  Basis Set: AUG-CC-PVTZ
    Blend: AUG-CC-PVTZ
  Basis Set: (AUG-CC-PVTZ AUX)
    Blend: AUG-CC-PVTZ-JKFIT
	 Reference Energy          =    -322.3557479595654627 [Eh]
	 Singles Energy            =      -0.0000000000000000 [Eh]
	 Same-Spin Energy          =      -0.3115855528341931 [Eh]
	 Opposite-Spin Energy      =      -0.9978243350017052 [Eh]
	 Correlation Energy        =      -1.3094098878358982 [Eh]
	 Total Energy              =    -323.6651578474013604 [Eh]

	 ================> DF-SCS-MP2 Energies <==================
	-----------------------------------------------------------
	 SCS Same-Spin Scale       =       0.3333333333333333 [-]
	 SCS Opposite-Spin Scale   =       1.2000000000000000 [-]
	 SCS Same-Spin Energy      =      -0.1038618509447310 [Eh]
	 SCS Opposite-Spin Energy  =      -1.1973892020020462 [Eh]
	 SCS Correlation Energy    =      -1.3012510529467773 [Eh]
	 SCS Total Energy          =    -323.6569990125122445 [Eh]
	-----------------------------------------------------------

  Dipole Moment: [D]
     X:     5.8476      Y:    -1.6137      Z:    -0.6109     Total:     6.0968

*** Psi4 exiting successfully. Buy a developer a beer!
