                               Psi4 1.3.2 release

  ==> Input File <==

--------------------------------------------------------------------------
#psi4
#
memory 32 gb

molecule  {
1 1
  O       -1.6624030     0.8291070    -0.2765410
  O       -1.1238540    -1.2691650     0.4354900
  N        1.4473370    -1.0090820    -0.1563980
  C        0.6010380     0.2049760    -0.3963400
  C        1.1187320     1.3933860     0.3994720
  C       -0.8221020    -0.1825100    -0.0303730
  H        0.6501100     0.4122580    -1.4678430
  H        1.1192750    -1.8168460    -0.6997980
  H        1.4281670    -1.2902280     0.8311830
  H        2.4275310    -0.8373030    -0.4139920
  H        1.0757850     1.1947520     1.4730540
  H        0.4939250     2.2572030     0.1746130
  H        2.1464930     1.6243000     0.1133420
  H       -2.5686030     0.5447890    -0.0239170
units angstrom
no_reorient  #important for SAPT in psi4, default
symmetry c1  #important for SAPT in psi4, default
}

set PROPERTIES_ORIGIN ["COM"]
properties('MP2/aug-cc-pvtz', properties = ['dipole'])
--------------------------------------------------------------------------

    Molecular point group: c1
  Charge       = 1
  Multiplicity = 1
  Basis Set: AUG-CC-PVTZ
    Blend: AUG-CC-PVTZ
  Basis Set: (AUG-CC-PVTZ AUX)
    Blend: AUG-CC-PVTZ-JKFIT

    Orbital Energies [Eh]
    ---------------------

    Doubly Occupied:

       1A    -20.786896     2A    -20.734439     3A    -15.900445
       4A    -11.576114     5A    -11.509254     6A    -11.416496
       7A     -1.639156     8A     -1.544267     9A     -1.515474
      10A     -1.255983    11A     -1.107616    12A     -1.012612
      13A     -0.979355    14A     -0.965647    15A     -0.886883
      16A     -0.859925    17A     -0.847985    18A     -0.811551
      19A     -0.771773    20A     -0.736719    21A     -0.733877
      22A     -0.716776    23A     -0.656535    24A     -0.636630

  @DF-RHF Final Energy:  -322.35894376880532

   => Energetics <=

    Nuclear Repulsion Energy =            260.2621863846364931
    One-Electron Energy =                -946.0374466548516921
    Two-Electron Energy =                 363.4163165014098809
    Total Energy =                       -322.3589437688053181
  Basis Set: (AUG-CC-PVTZ AUX)
    Blend: AUG-CC-PVTZ-RI
    Molecular point group: c1

    Geometry (in Angstrom), charge = 1, multiplicity = 1:

       Center              X                  Y                   Z               Mass
    ------------   -----------------  -----------------  -----------------  -----------------
         O           -1.587992442294     0.852131080419    -0.276673900139    15.994914619570
         O           -1.049443442294    -1.246140919581     0.435357099861    15.994914619570
         N            1.521747557706    -0.986057919581    -0.156530900139    14.003074004430
         C            0.675448557706     0.228000080419    -0.396472900139    12.000000000000
         C            1.193142557706     1.416410080419     0.399339099861    12.000000000000
         C           -0.747691442294    -0.159485919581    -0.030505900139    12.000000000000
         H            0.724520557706     0.435282080419    -1.467975900139     1.007825032230
         H            1.193685557706    -1.793821919581    -0.699930900139     1.007825032230
         H            1.502577557706    -1.267203919581     0.831050099861     1.007825032230
         H            2.501941557706    -0.814278919581    -0.414124900139     1.007825032230
         H            1.150195557706     1.217776080419     1.472921099861     1.007825032230
         H            0.568335557706     2.280227080419     0.174480099861     1.007825032230
         H            2.220903557706     1.647324080419     0.113209099861     1.007825032230
         H           -2.494192442294     0.567813080419    -0.024049900139     1.007825032230

  Basis Set: AUG-CC-PVTZ
    Blend: AUG-CC-PVTZ
  Basis Set: (AUG-CC-PVTZ AUX)
    Blend: AUG-CC-PVTZ-JKFIT
	 Reference Energy          =    -322.3589437688053181 [Eh]
	 Singles Energy            =      -0.0000000000000000 [Eh]
	 Same-Spin Energy          =      -0.3115965014839076 [Eh]
	 Opposite-Spin Energy      =      -0.9976298491303102 [Eh]
	 Correlation Energy        =      -1.3092263506142179 [Eh]
	 Total Energy              =    -323.6681701194195284 [Eh]

	 ================> DF-SCS-MP2 Energies <==================
	-----------------------------------------------------------
	 SCS Same-Spin Scale       =       0.3333333333333333 [-]
	 SCS Opposite-Spin Scale   =       1.2000000000000000 [-]
	 SCS Same-Spin Energy      =      -0.1038655004946359 [Eh]
	 SCS Opposite-Spin Energy  =      -1.1971558189563722 [Eh]
	 SCS Correlation Energy    =      -1.3010213194510081 [Eh]
	 SCS Total Energy          =    -323.6599650882563424 [Eh]
	-----------------------------------------------------------

  Dipole Moment: [D]
     X:     5.6826      Y:    -1.2184      Z:    -1.0877     Total:     5.9127

*** Psi4 exiting successfully. Buy a developer a beer!
