                               Psi4 1.3.2 release

  ==> Input File <==

--------------------------------------------------------------------------
#psi4
#
memory 32 gb

molecule  {
1 1
  O       -1.6624030     0.8291070    -0.2765410
  O       -1.1238540    -1.2691650     0.4354900
  N        1.4473370    -1.0090820    -0.1563980
  C        0.6469288     0.2443234    -0.3462731
  C        1.1187320     1.3933860     0.3994720
  C       -0.8221020    -0.1825100    -0.0303730
  H        0.6501100     0.4122580    -1.4678430
  H        1.1592949    -1.8457081    -0.6783937
  H        1.4281670    -1.2902280     0.8311830
  H        2.4275310    -0.8373030    -0.4139920
  H        1.0757850     1.1947520     1.4730540
  H        0.4939250     2.2572030     0.1746130
  H        2.1464930     1.6243000     0.1133420
  H       -2.5686030     0.5447890    -0.0239170
units angstrom
no_reorient  #important for SAPT in psi4, default
symmetry c1  #important for SAPT in psi4, default
}

set PROPERTIES_ORIGIN ["COM"]
properties('MP2/aug-cc-pvtz', properties = ['dipole'])
--------------------------------------------------------------------------

    Molecular point group: c1
  Charge       = 1
  Multiplicity = 1
  Basis Set: AUG-CC-PVTZ
    Blend: AUG-CC-PVTZ
  Basis Set: (AUG-CC-PVTZ AUX)
    Blend: AUG-CC-PVTZ-JKFIT

    Orbital Energies [Eh]
    ---------------------

    Doubly Occupied:

       1A    -20.786380     2A    -20.734124     3A    -15.900173
       4A    -11.576536     5A    -11.512733     6A    -11.412575
       7A     -1.637394     8A     -1.543015     9A     -1.516075
      10A     -1.266242    11A     -1.103806    12A     -1.010033
      13A     -0.979076    14A     -0.964448    15A     -0.884335
      16A     -0.855275    17A     -0.843110    18A     -0.814864
      19A     -0.773354    20A     -0.753377    21A     -0.733291
      22A     -0.708154    23A     -0.656216    24A     -0.630358

  @DF-RHF Final Energy:  -322.35014693028313

   => Energetics <=

    Nuclear Repulsion Energy =            260.1640367919525261
    One-Electron Energy =                -945.8384794376298714
    Two-Electron Energy =                 363.3242957153942143
    Total Energy =                       -322.3501469302831310
  Basis Set: (AUG-CC-PVTZ AUX)
    Blend: AUG-CC-PVTZ-RI
    Molecular point group: c1

    Geometry (in Angstrom), charge = 1, multiplicity = 1:

       Center              X                  Y                   Z               Mass
    ------------   -----------------  -----------------  -----------------  -----------------
         O           -1.594555313346     0.847210994073    -0.283584911295    15.994914619570
         O           -1.056006313346    -1.251061005927     0.428446088705    15.994914619570
         N            1.515184686654    -0.990978005927    -0.163441911295    14.003074004430
         C            0.714776486654     0.262427394073    -0.353317011295    12.000000000000
         C            1.186579686654     1.411489994073     0.392428088705    12.000000000000
         C           -0.754254313346    -0.164406005927    -0.037416911295    12.000000000000
         H            0.717957686654     0.430361994073    -1.474886911295     1.007825032230
         H            1.227142586654    -1.827604105927    -0.685437611295     1.007825032230
         H            1.496014686654    -1.272124005927     0.824139088705     1.007825032230
         H            2.495378686654    -0.819199005927    -0.421035911295     1.007825032230
         H            1.143632686654     1.212855994073     1.466010088705     1.007825032230
         H            0.561772686654     2.275306994073     0.167569088705     1.007825032230
         H            2.214340686654     1.642403994073     0.106298088705     1.007825032230
         H           -2.500755313346     0.562892994073    -0.030960911295     1.007825032230

  Basis Set: AUG-CC-PVTZ
    Blend: AUG-CC-PVTZ
  Basis Set: (AUG-CC-PVTZ AUX)
    Blend: AUG-CC-PVTZ-JKFIT
	 Reference Energy          =    -322.3501469302831310 [Eh]
	 Singles Energy            =      -0.0000000000000000 [Eh]
	 Same-Spin Energy          =      -0.3123181449993544 [Eh]
	 Opposite-Spin Energy      =      -0.9985416282443111 [Eh]
	 Correlation Energy        =      -1.3108597732436655 [Eh]
	 Total Energy              =    -323.6610067035268230 [Eh]

	 ================> DF-SCS-MP2 Energies <==================
	-----------------------------------------------------------
	 SCS Same-Spin Scale       =       0.3333333333333333 [-]
	 SCS Opposite-Spin Scale   =       1.2000000000000000 [-]
	 SCS Same-Spin Energy      =      -0.1041060483331181 [Eh]
	 SCS Opposite-Spin Energy  =      -1.1982499538931732 [Eh]
	 SCS Correlation Energy    =      -1.3023560022262914 [Eh]
	 SCS Total Energy          =    -323.6525029325094351 [Eh]
	-----------------------------------------------------------

  Dipole Moment: [D]
     X:     5.6853      Y:    -1.2297      Z:    -1.0373     Total:     5.9085

*** Psi4 exiting successfully. Buy a developer a beer!
