                               Psi4 1.3.2 release

  ==> Input File <==

--------------------------------------------------------------------------
#psi4
#
memory 32 gb

molecule  {
1 1
  O       -1.6624030     0.8291070    -0.2765410
  O       -1.1238540    -1.2691650     0.4354900
  N        1.4473370    -1.0090820    -0.1563980
  C        0.6010380     0.2049760    -0.3963400
  C        1.1187320     1.3933860     0.3994720
  C       -0.8400660    -0.1952889    -0.0226743
  H        0.6501100     0.4122580    -1.4678430
  H        1.1192750    -1.8168460    -0.6997980
  H        1.4281670    -1.2902280     0.8311830
  H        2.4275310    -0.8373030    -0.4139920
  H        1.0757850     1.1947520     1.4730540
  H        0.4939250     2.2572030     0.1746130
  H        2.1464930     1.6243000     0.1133420
  H       -2.5623360     0.5295415    -0.0191792
units angstrom
no_reorient  #important for SAPT in psi4, default
symmetry c1  #important for SAPT in psi4, default
}

set PROPERTIES_ORIGIN ["COM"]
properties('MP2/aug-cc-pvtz', properties = ['dipole'])
--------------------------------------------------------------------------

    Molecular point group: c1
  Charge       = 1
  Multiplicity = 1
  Basis Set: AUG-CC-PVTZ
    Blend: AUG-CC-PVTZ
  Basis Set: (AUG-CC-PVTZ AUX)
    Blend: AUG-CC-PVTZ-JKFIT

    Orbital Energies [Eh]
    ---------------------

    Doubly Occupied:

       1A    -20.787314     2A    -20.737095     3A    -15.899183
       4A    -11.574704     5A    -11.507320     6A    -11.414829
       7A     -1.644571     8A     -1.552319     9A     -1.516365
      10A     -1.251173    11A     -1.103247    12A     -1.009988
      13A     -0.977505    14A     -0.964580    15A     -0.889787
      16A     -0.859296    17A     -0.847825    18A     -0.813760
      19A     -0.773872    20A     -0.735739    21A     -0.735234
      22A     -0.715867    23A     -0.662838    24A     -0.635764

  @DF-RHF Final Energy:  -322.36011853043487

   => Energetics <=

    Nuclear Repulsion Energy =            260.2931171622003603
    One-Electron Energy =                -946.0861203398761745
    Two-Electron Energy =                 363.4328846472409396
    Total Energy =                       -322.3601185304348746
  Basis Set: (AUG-CC-PVTZ AUX)
    Blend: AUG-CC-PVTZ-RI
    Molecular point group: c1

    Geometry (in Angstrom), charge = 1, multiplicity = 1:

       Center              X                  Y                   Z               Mass
    ------------   -----------------  -----------------  -----------------  -----------------
         O           -1.585668853480     0.854004520748    -0.277752782269    15.994914619570
         O           -1.047119853480    -1.244267479252     0.434278217731    15.994914619570
         N            1.524071146520    -0.984184479252    -0.157609782269    14.003074004430
         C            0.677772146520     0.229873520748    -0.397551782269    12.000000000000
         C            1.195466146520     1.418283520748     0.398260217731    12.000000000000
         C           -0.763331853480    -0.170391379252    -0.023886082269    12.000000000000
         H            0.726844146520     0.437155520748    -1.469054782269     1.007825032230
         H            1.196009146520    -1.791948479252    -0.701009782269     1.007825032230
         H            1.504901146520    -1.265330479252     0.829971217731     1.007825032230
         H            2.504265146520    -0.812405479252    -0.415203782269     1.007825032230
         H            1.152519146520     1.219649520748     1.471842217731     1.007825032230
         H            0.570659146520     2.282100520748     0.173401217731     1.007825032230
         H            2.223227146520     1.649197520748     0.112130217731     1.007825032230
         H           -2.485601853480     0.554439020748    -0.020390982269     1.007825032230

  Basis Set: AUG-CC-PVTZ
    Blend: AUG-CC-PVTZ
  Basis Set: (AUG-CC-PVTZ AUX)
    Blend: AUG-CC-PVTZ-JKFIT
	 Reference Energy          =    -322.3601185304348746 [Eh]
	 Singles Energy            =      -0.0000000000000000 [Eh]
	 Same-Spin Energy          =      -0.3111630814316966 [Eh]
	 Opposite-Spin Energy      =      -0.9967800240244387 [Eh]
	 Correlation Energy        =      -1.3079431054561352 [Eh]
	 Total Energy              =    -323.6680616358910356 [Eh]

	 ================> DF-SCS-MP2 Energies <==================
	-----------------------------------------------------------
	 SCS Same-Spin Scale       =       0.3333333333333333 [-]
	 SCS Opposite-Spin Scale   =       1.2000000000000000 [-]
	 SCS Same-Spin Energy      =      -0.1037210271438989 [Eh]
	 SCS Opposite-Spin Energy  =      -1.1961360288293263 [Eh]
	 SCS Correlation Energy    =      -1.2998570559732252 [Eh]
	 SCS Total Energy          =    -323.6599755864081089 [Eh]
	-----------------------------------------------------------

  Dipole Moment: [D]
     X:     5.6137      Y:    -1.3139      Z:    -1.0499     Total:     5.8602

*** Psi4 exiting successfully. Buy a developer a beer!
