                               Psi4 1.4a3.dev225

  ==> Input File <==

--------------------------------------------------------------------------
#psi4
#
memory 32 gb

molecule  {
1 1
  O       -1.6123010     0.9094490    -0.1675920
  O       -1.1928110    -1.2795120     0.3034070
  N        1.4156850    -1.0522820    -0.0637630
  C        0.6095860     0.1674070    -0.3957710
  C        1.1650120     1.3928430     0.3122100
  C       -0.8284910    -0.1652490    -0.0350320
  H        0.6646620     0.2883264    -1.4611228
  H        0.9122540    -1.9066690    -0.3390640
  H        1.5920220    -1.1264780     0.9462830
  H        2.3268530    -1.0442670    -0.5383350
  H        1.0907020     1.2862690     1.3970100
  H        0.5903660     2.2672430     0.0071660
  H        2.2096640     1.5504630     0.0359860
  H       -2.5330880     0.6393330     0.0432950
units angstrom
no_reorient  #important for SAPT in psi4, default
symmetry c1  #important for SAPT in psi4, default
}

set PROPERTIES_ORIGIN ["COM"]
properties('MP2/aug-cc-pvtz', properties = ['dipole'])
--------------------------------------------------------------------------

    Molecular point group: c1
  Charge       = 1
  Multiplicity = 1
  Basis Set: AUG-CC-PVTZ
    Blend: AUG-CC-PVTZ
  Basis Set: (AUG-CC-PVTZ AUX)
    Blend: AUG-CC-PVTZ-JKFIT

    Orbital Energies [Eh]
    ---------------------

    Doubly Occupied:

       1A    -20.788364     2A    -20.735733     3A    -15.898663
       4A    -11.577177     5A    -11.507444     6A    -11.415666
       7A     -1.641334     8A     -1.545942     9A     -1.514655
      10A     -1.256276    11A     -1.108479    12A     -1.015009
      13A     -0.979285    14A     -0.963987    15A     -0.887625
      16A     -0.859071    17A     -0.855425    18A     -0.808041
      19A     -0.773253    20A     -0.736495    21A     -0.734748
      22A     -0.717924    23A     -0.657986    24A     -0.638396

  @DF-RHF Final Energy:  -322.35895873435527

   => Energetics <=

    Nuclear Repulsion Energy =            260.5036476890055610
    One-Electron Energy =                -946.4912541451805055
    Two-Electron Energy =                 363.6286477218196751
    Total Energy =                       -322.3589587343552694
  Basis Set: (AUG-CC-PVTZ AUX)
    Blend: AUG-CC-PVTZ-RI
    Molecular point group: c1

    Geometry (in Angstrom), charge = 1, multiplicity = 1:

       Center              X                  Y                   Z               Mass
    ------------   -----------------  -----------------  -----------------  -----------------
         O           -1.536978143507     0.931044399450    -0.167017768650    15.994914619570
         O           -1.117488143507    -1.257916600550     0.303981231350    15.994914619570
         N            1.491007856493    -1.030686600550    -0.063188768650    14.003074004430
         C            0.684908856493     0.189002399450    -0.395196768650    12.000000000000
         C            1.240334856493     1.414438399450     0.312784231350    12.000000000000
         C           -0.753168143507    -0.143653600550    -0.034457768650    12.000000000000
         H            0.739984856493     0.309921799450    -1.460548568650     1.007825032230
         H            0.987576856493    -1.885073600550    -0.338489768650     1.007825032230
         H            1.667344856493    -1.104882600550     0.946857231350     1.007825032230
         H            2.402175856493    -1.022671600550    -0.537760768650     1.007825032230
         H            1.166024856493     1.307864399450     1.397584231350     1.007825032230
         H            0.665688856493     2.288838399450     0.007740231350     1.007825032230
         H            2.284986856493     1.572058399450     0.036560231350     1.007825032230
         H           -2.457765143507     0.660928399450     0.043869231350     1.007825032230

  Basis Set: AUG-CC-PVTZ
    Blend: AUG-CC-PVTZ
  Basis Set: (AUG-CC-PVTZ AUX)
    Blend: AUG-CC-PVTZ-JKFIT
	 Reference Energy          =    -322.3589587343552694 [Eh]
	 Singles Energy            =      -0.0000000000000000 [Eh]
	 Same-Spin Energy          =      -0.3117314790351660 [Eh]
	 Opposite-Spin Energy      =      -0.9976945763689052 [Eh]
	 Correlation Energy        =      -1.3094260554040713 [Eh]
	 Total Energy              =    -323.6683847897593296 [Eh]

	 ================> DF-SCS-MP2 Energies <==================
	-----------------------------------------------------------
	 SCS Same-Spin Scale       =       0.3333333333333333 [-]
	 SCS Opposite-Spin Scale   =       1.2000000000000000 [-]
	 SCS Same-Spin Energy      =      -0.1039104930117220 [Eh]
	 SCS Opposite-Spin Energy  =      -1.1972334916426863 [Eh]
	 SCS Correlation Energy    =      -1.3011439846544084 [Eh]
	 SCS Total Energy          =    -323.6601027190096715 [Eh]
	-----------------------------------------------------------

  Dipole Moment: [D]
     X:     5.6189      Y:    -1.3192      Z:    -0.6529     Total:     5.8085

*** Psi4 exiting successfully. Buy a developer a beer!
