                               Psi4 1.3.2 release

  ==> Input File <==

--------------------------------------------------------------------------
#psi4
#
memory 32 gb

molecule  {
1 1
  O       -1.6624030     0.8291070    -0.2765410
  O       -1.1238540    -1.2691650     0.4354900
  N        1.4473370    -1.0090820    -0.1563980
  C        0.6010380     0.2049760    -0.3963400
  C        1.1187320     1.3933860     0.3994720
  C       -0.8221020    -0.1825100    -0.0303730
  H        0.6411263     0.3743106    -1.2716816
  H        1.1192750    -1.8168460    -0.6997980
  H        1.4281670    -1.2902280     0.8311830
  H        2.4275310    -0.8373030    -0.4139920
  H        1.0757850     1.1947520     1.4730540
  H        0.4939250     2.2572030     0.1746130
  H        2.1464930     1.6243000     0.1133420
  H       -2.5686030     0.5447890    -0.0239170
units angstrom
no_reorient  #important for SAPT in psi4, default
symmetry c1  #important for SAPT in psi4, default
}

set PROPERTIES_ORIGIN ["COM"]
properties('MP2/aug-cc-pvtz', properties = ['dipole'])
--------------------------------------------------------------------------

    Molecular point group: c1
  Charge       = 1
  Multiplicity = 1
  Basis Set: AUG-CC-PVTZ
    Blend: AUG-CC-PVTZ
  Basis Set: (AUG-CC-PVTZ AUX)
    Blend: AUG-CC-PVTZ-JKFIT

    Orbital Energies [Eh]
    ---------------------

    Doubly Occupied:

       1A    -20.787748     2A    -20.734625     3A    -15.900286
       4A    -11.576044     5A    -11.488381     6A    -11.416218
       7A     -1.639903     8A     -1.544914     9A     -1.517340
      10A     -1.271701    11A     -1.114083    12A     -1.028996
      13A     -0.981576    14A     -0.966071    15A     -0.898140
      16A     -0.868979    17A     -0.858399    18A     -0.812187
      19A     -0.772981    20A     -0.737927    21A     -0.735328
      22A     -0.727198    23A     -0.656987    24A     -0.637688

  @DF-RHF Final Energy:  -322.32468097475044

   => Energetics <=

    Nuclear Repulsion Energy =            261.4325890374344112
    One-Electron Energy =                -948.1671384568561507
    Two-Electron Energy =                 364.4098684446712468
    Total Energy =                       -322.3246809747504358
  Basis Set: (AUG-CC-PVTZ AUX)
    Blend: AUG-CC-PVTZ-RI
    Molecular point group: c1

    Geometry (in Angstrom), charge = 1, multiplicity = 1:

       Center              X                  Y                   Z               Mass
    ------------   -----------------  -----------------  -----------------  -----------------
         O           -1.587891904321     0.852555755626    -0.278869172628    15.994914619570
         O           -1.049342904321    -1.245716244374     0.433161827372    15.994914619570
         N            1.521848095679    -0.985633244374    -0.158726172628    14.003074004430
         C            0.675549095679     0.228424755626    -0.398668172628    12.000000000000
         C            1.193243095679     1.416834755626     0.397143827372    12.000000000000
         C           -0.747590904321    -0.159061244374    -0.032701172628    12.000000000000
         H            0.715637395679     0.397759355626    -1.274009772628     1.007825032230
         H            1.193786095679    -1.793397244374    -0.702126172628     1.007825032230
         H            1.502678095679    -1.266779244374     0.828854827372     1.007825032230
         H            2.502042095679    -0.813854244374    -0.416320172628     1.007825032230
         H            1.150296095679     1.218200755626     1.470725827372     1.007825032230
         H            0.568436095679     2.280651755626     0.172284827372     1.007825032230
         H            2.221004095679     1.647748755626     0.111013827372     1.007825032230
         H           -2.494091904321     0.568237755626    -0.026245172628     1.007825032230

  Basis Set: AUG-CC-PVTZ
    Blend: AUG-CC-PVTZ
  Basis Set: (AUG-CC-PVTZ AUX)
    Blend: AUG-CC-PVTZ-JKFIT
	 Reference Energy          =    -322.3246809747504358 [Eh]
	 Singles Energy            =      -0.0000000000000000 [Eh]
	 Same-Spin Energy          =      -0.3114067020099099 [Eh]
	 Opposite-Spin Energy      =      -0.9969158781611398 [Eh]
	 Correlation Energy        =      -1.3083225801710499 [Eh]
	 Total Energy              =    -323.6330035549214585 [Eh]

	 ================> DF-SCS-MP2 Energies <==================
	-----------------------------------------------------------
	 SCS Same-Spin Scale       =       0.3333333333333333 [-]
	 SCS Opposite-Spin Scale   =       1.2000000000000000 [-]
	 SCS Same-Spin Energy      =      -0.1038022340033033 [Eh]
	 SCS Opposite-Spin Energy  =      -1.1962990537933678 [Eh]
	 SCS Correlation Energy    =      -1.3001012877966711 [Eh]
	 SCS Total Energy          =    -323.6247822625471144 [Eh]
	-----------------------------------------------------------

  Dipole Moment: [D]
     X:     5.6731      Y:    -1.2479      Z:    -1.0378     Total:     5.9007

*** Psi4 exiting successfully. Buy a developer a beer!
