                               Psi4 1.3.2 release

  ==> Input File <==

--------------------------------------------------------------------------
#psi4
#
memory 32 gb

molecule  {
1 1
  O       -1.6624030     0.8291070    -0.2765410
  O       -1.1238540    -1.2691650     0.4354900
  N        1.4501160    -1.0095990    -0.1691723
  C        0.6010380     0.2049760    -0.3963400
  C        1.1187320     1.3933860     0.3994720
  C       -0.8221020    -0.1825100    -0.0303730
  H        0.6558504     0.4047338    -1.4689933
  H        1.1192750    -1.8168460    -0.6997980
  H        1.4281670    -1.2902280     0.8311830
  H        2.4275310    -0.8373030    -0.4139920
  H        1.0757850     1.1947520     1.4730540
  H        0.4939250     2.2572030     0.1746130
  H        2.1464930     1.6243000     0.1133420
  H       -2.5686030     0.5447890    -0.0239170
units angstrom
no_reorient  #important for SAPT in psi4, default
symmetry c1  #important for SAPT in psi4, default
}

set PROPERTIES_ORIGIN ["COM"]
properties('MP2/aug-cc-pvtz', properties = ['dipole'])
--------------------------------------------------------------------------

    Molecular point group: c1
  Charge       = 1
  Multiplicity = 1
  Basis Set: AUG-CC-PVTZ
    Blend: AUG-CC-PVTZ
  Basis Set: (AUG-CC-PVTZ AUX)
    Blend: AUG-CC-PVTZ-JKFIT

    Orbital Energies [Eh]
    ---------------------

    Doubly Occupied:

       1A    -20.787032     2A    -20.734616     3A    -15.900229
       4A    -11.576385     5A    -11.509276     6A    -11.416742
       7A     -1.639263     8A     -1.544293     9A     -1.515543
      10A     -1.255964    11A     -1.107794    12A     -1.012124
      13A     -0.978723    14A     -0.967700    15A     -0.886300
      16A     -0.861015    17A     -0.845569    18A     -0.811797
      19A     -0.772026    20A     -0.737349    21A     -0.734108
      22A     -0.716660    23A     -0.656651    24A     -0.636792

  @DF-RHF Final Energy:  -322.35873619975666

   => Energetics <=

    Nuclear Repulsion Energy =            260.2046499637278885
    One-Electron Energy =                -945.9188696131016059
    Two-Electron Energy =                 363.3554834496170542
    Total Energy =                       -322.3587361997566632
  Basis Set: (AUG-CC-PVTZ AUX)
    Blend: AUG-CC-PVTZ-RI
    Molecular point group: c1

    Geometry (in Angstrom), charge = 1, multiplicity = 1:

       Center              X                  Y                   Z               Mass
    ------------   -----------------  -----------------  -----------------  -----------------
         O           -1.588488801314     0.852295675205    -0.274674702285    15.994914619570
         O           -1.049939801314    -1.245976324795     0.437356297715    15.994914619570
         N            1.524030198686    -0.986410324795    -0.167306002285    14.003074004430
         C            0.674952198686     0.228164675205    -0.394473702285    12.000000000000
         C            1.192646198686     1.416574675205     0.401338297715    12.000000000000
         C           -0.748187801314    -0.159321324795    -0.028506702285    12.000000000000
         H            0.729764598686     0.427922475205    -1.467127002285     1.007825032230
         H            1.193189198686    -1.793657324795    -0.697931702285     1.007825032230
         H            1.502081198686    -1.267039324795     0.833049297715     1.007825032230
         H            2.501445198686    -0.814114324795    -0.412125702285     1.007825032230
         H            1.149699198686     1.217940675205     1.474920297715     1.007825032230
         H            0.567839198686     2.280391675205     0.176479297715     1.007825032230
         H            2.220407198686     1.647488675205     0.115208297715     1.007825032230
         H           -2.494688801314     0.567977675205    -0.022050702285     1.007825032230

  Basis Set: AUG-CC-PVTZ
    Blend: AUG-CC-PVTZ
  Basis Set: (AUG-CC-PVTZ AUX)
    Blend: AUG-CC-PVTZ-JKFIT
	 Reference Energy          =    -322.3587361997566632 [Eh]
	 Singles Energy            =      -0.0000000000000000 [Eh]
	 Same-Spin Energy          =      -0.3115998916264643 [Eh]
	 Opposite-Spin Energy      =      -0.9976511863115213 [Eh]
	 Correlation Energy        =      -1.3092510779379856 [Eh]
	 Total Energy              =    -323.6679872776946354 [Eh]

	 ================> DF-SCS-MP2 Energies <==================
	-----------------------------------------------------------
	 SCS Same-Spin Scale       =       0.3333333333333333 [-]
	 SCS Opposite-Spin Scale   =       1.2000000000000000 [-]
	 SCS Same-Spin Energy      =      -0.1038666305421548 [Eh]
	 SCS Opposite-Spin Energy  =      -1.1971814235738254 [Eh]
	 SCS Correlation Energy    =      -1.3010480541159801 [Eh]
	 SCS Total Energy          =    -323.6597842538726582 [Eh]
	-----------------------------------------------------------

  Dipole Moment: [D]
     X:     5.6768      Y:    -1.2152      Z:    -1.0679     Total:     5.9028

*** Psi4 exiting successfully. Buy a developer a beer!
