                               Psi4 1.3.2 release

  ==> Input File <==

--------------------------------------------------------------------------
#psi4
#
memory 32 gb

molecule  {
1 1
  O       -1.6624030     0.8291070    -0.2765410
  O       -1.1238540    -1.2691650     0.4354900
  N        1.4473370    -1.0090820    -0.1563980
  C        0.6010380     0.2049760    -0.3963400
  C        1.1187320     1.3933860     0.3994720
  C       -0.8292085    -0.1794639    -0.0557440
  H        0.6315072     0.4083330    -1.4692846
  H        1.1192750    -1.8168460    -0.6997980
  H        1.4281670    -1.2902280     0.8311830
  H        2.4275310    -0.8373030    -0.4139920
  H        1.0757850     1.1947520     1.4730540
  H        0.4939250     2.2572030     0.1746130
  H        2.1464930     1.6243000     0.1133420
  H       -2.5686030     0.5447890    -0.0239170
units angstrom
no_reorient  #important for SAPT in psi4, default
symmetry c1  #important for SAPT in psi4, default
}

set PROPERTIES_ORIGIN ["COM"]
properties('MP2/aug-cc-pvtz', properties = ['dipole'])
--------------------------------------------------------------------------

    Molecular point group: c1
  Charge       = 1
  Multiplicity = 1
  Basis Set: AUG-CC-PVTZ
    Blend: AUG-CC-PVTZ
  Basis Set: (AUG-CC-PVTZ AUX)
    Blend: AUG-CC-PVTZ-JKFIT

    Orbital Energies [Eh]
    ---------------------

    Doubly Occupied:

       1A    -20.790138     2A    -20.731738     3A    -15.900424
       4A    -11.576587     5A    -11.509257     6A    -11.416778
       7A     -1.641607     8A     -1.541727     9A     -1.513412
      10A     -1.255917    11A     -1.108941    12A     -1.014172
      13A     -0.979526    14A     -0.965509    15A     -0.886947
      16A     -0.860532    17A     -0.848586    18A     -0.812414
      19A     -0.770568    20A     -0.736788    21A     -0.733832
      22A     -0.716362    23A     -0.653268    24A     -0.634955

  @DF-RHF Final Energy:  -322.35775518265939

   => Energetics <=

    Nuclear Repulsion Energy =            260.1996671986670435
    One-Electron Energy =                -945.9148765907342522
    Two-Electron Energy =                 363.3574542094078197
    Total Energy =                       -322.3577551826593890
  Basis Set: (AUG-CC-PVTZ AUX)
    Blend: AUG-CC-PVTZ-RI
    Molecular point group: c1

    Geometry (in Angstrom), charge = 1, multiplicity = 1:

       Center              X                  Y                   Z               Mass
    ------------   -----------------  -----------------  -----------------  -----------------
         O           -1.586837306145     0.851769109351    -0.273277051877    15.994914619570
         O           -1.048288306145    -1.246502890649     0.438753948123    15.994914619570
         N            1.522902693855    -0.986419890649    -0.153134051877    14.003074004430
         C            0.676603693855     0.227638109351    -0.393076051877    12.000000000000
         C            1.194297693855     1.416048109351     0.402735948123    12.000000000000
         C           -0.753642806145    -0.156801790649    -0.052480051877    12.000000000000
         H            0.707072893855     0.430995109351    -1.466020651877     1.007825032230
         H            1.194840693855    -1.794183890649    -0.696534051877     1.007825032230
         H            1.503732693855    -1.267565890649     0.834446948123     1.007825032230
         H            2.503096693855    -0.814640890649    -0.410728051877     1.007825032230
         H            1.151350693855     1.217414109351     1.476317948123     1.007825032230
         H            0.569490693855     2.279865109351     0.177876948123     1.007825032230
         H            2.222058693855     1.646962109351     0.116605948123     1.007825032230
         H           -2.493037306145     0.567451109351    -0.020653051877     1.007825032230

  Basis Set: AUG-CC-PVTZ
    Blend: AUG-CC-PVTZ
  Basis Set: (AUG-CC-PVTZ AUX)
    Blend: AUG-CC-PVTZ-JKFIT
	 Reference Energy          =    -322.3577551826593890 [Eh]
	 Singles Energy            =      -0.0000000000000000 [Eh]
	 Same-Spin Energy          =      -0.3117740737057884 [Eh]
	 Opposite-Spin Energy      =      -0.9978842407899552 [Eh]
	 Correlation Energy        =      -1.3096583144957434 [Eh]
	 Total Energy              =    -323.6674134971551098 [Eh]

	 ================> DF-SCS-MP2 Energies <==================
	-----------------------------------------------------------
	 SCS Same-Spin Scale       =       0.3333333333333333 [-]
	 SCS Opposite-Spin Scale   =       1.2000000000000000 [-]
	 SCS Same-Spin Energy      =      -0.1039246912352628 [Eh]
	 SCS Opposite-Spin Energy  =      -1.1974610889479462 [Eh]
	 SCS Correlation Energy    =      -1.3013857801832089 [Eh]
	 SCS Total Energy          =    -323.6591409628425708 [Eh]
	-----------------------------------------------------------

  Dipole Moment: [D]
     X:     5.6404      Y:    -1.1435      Z:    -1.1206     Total:     5.8632

*** Psi4 exiting successfully. Buy a developer a beer!
