                               Psi4 1.4a3.dev225

  ==> Input File <==

--------------------------------------------------------------------------
#psi4
#
memory 32 gb

molecule  {
1 1
  O       -1.6123010     0.9094490    -0.1675920
  O       -1.1928110    -1.2795120     0.3034070
  N        1.4156850    -1.0522820    -0.0637630
  C        0.6095860     0.1674070    -0.3957710
  C        1.1577054     1.3767224     0.3028965
  C       -0.8284910    -0.1652490    -0.0350320
  H        0.6656880     0.2905790    -1.4809690
  H        0.9122540    -1.9066690    -0.3390640
  H        1.5920220    -1.1264780     0.9462830
  H        2.3268530    -1.0442670    -0.5383350
  H        1.0907020     1.2862690     1.3970100
  H        0.5903660     2.2672430     0.0071660
  H        2.2096640     1.5504630     0.0359860
  H       -2.5330880     0.6393330     0.0432950
units angstrom
no_reorient  #important for SAPT in psi4, default
symmetry c1  #important for SAPT in psi4, default
}

set PROPERTIES_ORIGIN ["COM"]
properties('MP2/aug-cc-pvtz', properties = ['dipole'])
--------------------------------------------------------------------------

    Molecular point group: c1
  Charge       = 1
  Multiplicity = 1
  Basis Set: AUG-CC-PVTZ
    Blend: AUG-CC-PVTZ
  Basis Set: (AUG-CC-PVTZ AUX)
    Blend: AUG-CC-PVTZ-JKFIT

    Orbital Energies [Eh]
    ---------------------

    Doubly Occupied:

       1A    -20.788436     2A    -20.735940     3A    -15.898732
       4A    -11.577388     5A    -11.509246     6A    -11.415792
       7A     -1.641488     8A     -1.546113     9A     -1.514991
      10A     -1.258527    11A     -1.107013    12A     -1.014041
      13A     -0.979311    14A     -0.964062    15A     -0.887481
      16A     -0.859476    17A     -0.853833    18A     -0.809477
      19A     -0.772908    20A     -0.739163    21A     -0.732739
      22A     -0.713306    23A     -0.658170    24A     -0.638026

  @DF-RHF Final Energy:  -322.35827567689620

   => Energetics <=

    Nuclear Repulsion Energy =            260.7186796626097589
    One-Electron Energy =                -946.9225877242738534
    Two-Electron Energy =                 363.8456323847679528
    Total Energy =                       -322.3582756768961985
  Basis Set: (AUG-CC-PVTZ AUX)
    Blend: AUG-CC-PVTZ-RI
    Molecular point group: c1

    Geometry (in Angstrom), charge = 1, multiplicity = 1:

       Center              X                  Y                   Z               Mass
    ------------   -----------------  -----------------  -----------------  -----------------
         O           -1.536016012731     0.933167278851    -0.165554632117    15.994914619570
         O           -1.116526012731    -1.255793721149     0.305444367883    15.994914619570
         N            1.491969987269    -1.028563721149    -0.061725632117    14.003074004430
         C            0.685870987269     0.191125278851    -0.393733632117    12.000000000000
         C            1.233990387269     1.400440678851     0.304933867883    12.000000000000
         C           -0.752206012731    -0.141530721149    -0.032994632117    12.000000000000
         H            0.741972987269     0.314297278851    -1.478931632117     1.007825032230
         H            0.988538987269    -1.882950721149    -0.337026632117     1.007825032230
         H            1.668306987269    -1.102759721149     0.948320367883     1.007825032230
         H            2.403137987269    -1.020548721149    -0.536297632117     1.007825032230
         H            1.166986987269     1.309987278851     1.399047367883     1.007825032230
         H            0.666650987269     2.290961278851     0.009203367883     1.007825032230
         H            2.285948987269     1.574181278851     0.038023367883     1.007825032230
         H           -2.456803012731     0.663051278851     0.045332367883     1.007825032230

  Basis Set: AUG-CC-PVTZ
    Blend: AUG-CC-PVTZ
  Basis Set: (AUG-CC-PVTZ AUX)
    Blend: AUG-CC-PVTZ-JKFIT
	 Reference Energy          =    -322.3582756768961985 [Eh]
	 Singles Energy            =      -0.0000000000000000 [Eh]
	 Same-Spin Energy          =      -0.3119593214074964 [Eh]
	 Opposite-Spin Energy      =      -0.9980227970474733 [Eh]
	 Correlation Energy        =      -1.3099821184549696 [Eh]
	 Total Energy              =    -323.6682577953511668 [Eh]

	 ================> DF-SCS-MP2 Energies <==================
	-----------------------------------------------------------
	 SCS Same-Spin Scale       =       0.3333333333333333 [-]
	 SCS Opposite-Spin Scale   =       1.2000000000000000 [-]
	 SCS Same-Spin Energy      =      -0.1039864404691655 [Eh]
	 SCS Opposite-Spin Energy  =      -1.1976273564569679 [Eh]
	 SCS Correlation Energy    =      -1.3016137969261334 [Eh]
	 SCS Total Energy          =    -323.6598894738223180 [Eh]
	-----------------------------------------------------------

  Dipole Moment: [D]
     X:     5.6160      Y:    -1.3032      Z:    -0.6547     Total:     5.8022

*** Psi4 exiting successfully. Buy a developer a beer!
