                               Psi4 1.4a3.dev225

  ==> Input File <==

--------------------------------------------------------------------------
#psi4
#
memory 32 gb

molecule  {
1 1
  O       -1.6123010     0.9094490    -0.1675920
  O       -1.1928110    -1.2795120     0.3034070
  N        1.4156850    -1.0522820    -0.0637630
  C        0.6095860     0.1674070    -0.3957710
  C        1.1650120     1.3928430     0.3122100
  C       -0.8225194    -0.1469852    -0.0405793
  H        0.6656880     0.2905790    -1.4809690
  H        0.9122540    -1.9066690    -0.3390640
  H        1.5920220    -1.1264780     0.9462830
  H        2.3268530    -1.0442670    -0.5383350
  H        1.0907020     1.2862690     1.3970100
  H        0.5903660     2.2672430     0.0071660
  H        2.2096640     1.5504630     0.0359860
  H       -2.5330880     0.6393330     0.0432950
units angstrom
no_reorient  #important for SAPT in psi4, default
symmetry c1  #important for SAPT in psi4, default
}

set PROPERTIES_ORIGIN ["COM"]
properties('MP2/aug-cc-pvtz', properties = ['dipole'])
--------------------------------------------------------------------------

    Molecular point group: c1
  Charge       = 1
  Multiplicity = 1
  Basis Set: AUG-CC-PVTZ
    Blend: AUG-CC-PVTZ
  Basis Set: (AUG-CC-PVTZ AUX)
    Blend: AUG-CC-PVTZ-JKFIT

    Orbital Energies [Eh]
    ---------------------

    Doubly Occupied:

       1A    -20.791787     2A    -20.731973     3A    -15.899117
       4A    -11.578653     5A    -11.510272     6A    -11.416624
       7A     -1.642445     8A     -1.540185     9A     -1.511229
      10A     -1.257954    11A     -1.110275    12A     -1.017385
      13A     -0.980261    14A     -0.964032    15A     -0.886268
      16A     -0.860854    17A     -0.853813    18A     -0.808542
      19A     -0.771824    20A     -0.736486    21A     -0.733509
      22A     -0.716964    23A     -0.651751    24A     -0.637192

  @DF-RHF Final Energy:  -322.35666736303762

   => Energetics <=

    Nuclear Repulsion Energy =            260.3804670199680231
    One-Electron Energy =                -946.2554753610321541
    Two-Electron Energy =                 363.5183409780265151
    Total Energy =                       -322.3566673630376158
  Basis Set: (AUG-CC-PVTZ AUX)
    Blend: AUG-CC-PVTZ-RI
    Molecular point group: c1

    Geometry (in Angstrom), charge = 1, multiplicity = 1:

       Center              X                  Y                   Z               Mass
    ------------   -----------------  -----------------  -----------------  -----------------
         O           -1.537785348238     0.928585517782    -0.166056482623    15.994914619570
         O           -1.118295348238    -1.260375482218     0.304942517377    15.994914619570
         N            1.490200651762    -1.033145482218    -0.062227482623    14.003074004430
         C            0.684101651762     0.186543517782    -0.394235482623    12.000000000000
         C            1.239527651762     1.411979517782     0.313745517377    12.000000000000
         C           -0.748003748238    -0.127848682218    -0.039043782623    12.000000000000
         H            0.740203651762     0.309715517782    -1.479433482623     1.007825032230
         H            0.986769651762    -1.887532482218    -0.337528482623     1.007825032230
         H            1.666537651762    -1.107341482218     0.947818517377     1.007825032230
         H            2.401368651762    -1.025130482218    -0.536799482623     1.007825032230
         H            1.165217651762     1.305405517782     1.398545517377     1.007825032230
         H            0.664881651762     2.286379517782     0.008701517377     1.007825032230
         H            2.284179651762     1.569599517782     0.037521517377     1.007825032230
         H           -2.458572348238     0.658469517782     0.044830517377     1.007825032230

  Basis Set: AUG-CC-PVTZ
    Blend: AUG-CC-PVTZ
  Basis Set: (AUG-CC-PVTZ AUX)
    Blend: AUG-CC-PVTZ-JKFIT
	 Reference Energy          =    -322.3566673630376158 [Eh]
	 Singles Energy            =      -0.0000000000000000 [Eh]
	 Same-Spin Energy          =      -0.3121764917027724 [Eh]
	 Opposite-Spin Energy      =      -0.9985487026961313 [Eh]
	 Correlation Energy        =      -1.3107251943989038 [Eh]
	 Total Energy              =    -323.6673925574365285 [Eh]

	 ================> DF-SCS-MP2 Energies <==================
	-----------------------------------------------------------
	 SCS Same-Spin Scale       =       0.3333333333333333 [-]
	 SCS Opposite-Spin Scale   =       1.2000000000000000 [-]
	 SCS Same-Spin Energy      =      -0.1040588305675908 [Eh]
	 SCS Opposite-Spin Energy  =      -1.1982584432353576 [Eh]
	 SCS Correlation Energy    =      -1.3023172738029483 [Eh]
	 SCS Total Energy          =    -323.6589846368405574 [Eh]
	-----------------------------------------------------------

  Dipole Moment: [D]
     X:     5.6257      Y:    -1.1973      Z:    -0.6869     Total:     5.7926

*** Psi4 exiting successfully. Buy a developer a beer!
