                               Psi4 1.3.2 release

  ==> Input File <==

--------------------------------------------------------------------------
#psi4
#
memory 32 gb

molecule  {
1 1
  O       -1.6712760     0.8226326    -0.2725820
  O       -1.1340282    -1.2660659     0.4360070
  N        1.4473370    -1.0090820    -0.1563980
  C        0.6010380     0.2049760    -0.3963400
  C        1.1187320     1.3933860     0.3994720
  C       -0.8221020    -0.1825100    -0.0303730
  H        0.6501100     0.4122580    -1.4678430
  H        1.1192750    -1.8168460    -0.6997980
  H        1.4281670    -1.2902280     0.8311830
  H        2.4275310    -0.8373030    -0.4139920
  H        1.0757850     1.1947520     1.4730540
  H        0.4939250     2.2572030     0.1746130
  H        2.1464930     1.6243000     0.1133420
  H       -2.5686030     0.5447890    -0.0239170
units angstrom
no_reorient  #important for SAPT in psi4, default
symmetry c1  #important for SAPT in psi4, default
}

set PROPERTIES_ORIGIN ["COM"]
properties('MP2/aug-cc-pvtz', properties = ['dipole'])
--------------------------------------------------------------------------

    Molecular point group: c1
  Charge       = 1
  Multiplicity = 1
  Basis Set: AUG-CC-PVTZ
    Blend: AUG-CC-PVTZ
  Basis Set: (AUG-CC-PVTZ AUX)
    Blend: AUG-CC-PVTZ-JKFIT

    Orbital Energies [Eh]
    ---------------------

    Doubly Occupied:

       1A    -20.784504     2A    -20.733721     3A    -15.901248
       4A    -11.575940     5A    -11.510465     6A    -11.417048
       7A     -1.639845     8A     -1.543617     9A     -1.516025
      10A     -1.256885    11A     -1.108508    12A     -1.014496
      13A     -0.980571    14A     -0.966346    15A     -0.886341
      16A     -0.860940    17A     -0.848583    18A     -0.811395
      19A     -0.771813    20A     -0.737237    21A     -0.733834
      22A     -0.717209    23A     -0.655517    24A     -0.636578

  @DF-RHF Final Energy:  -322.35949363099564

   => Energetics <=

    Nuclear Repulsion Energy =            260.2030173304831919
    One-Electron Energy =                -945.9076843667540970
    Two-Electron Energy =                 363.3451734052752045
    Total Energy =                       -322.3594936309956438
  Basis Set: (AUG-CC-PVTZ AUX)
    Blend: AUG-CC-PVTZ-RI
    Molecular point group: c1

    Geometry (in Angstrom), charge = 1, multiplicity = 1:

       Center              X                  Y                   Z               Mass
    ------------   -----------------  -----------------  -----------------  -----------------
         O           -1.593482435971     0.846256173323    -0.273509890285    15.994914619570
         O           -1.056234635971    -1.242442326677     0.435079109715    15.994914619570
         N            1.525130564029    -0.985458426677    -0.157325890285    14.003074004430
         C            0.678831564029     0.228599573323    -0.397267890285    12.000000000000
         C            1.196525564029     1.417009573323     0.398544109715    12.000000000000
         C           -0.744308435971    -0.158886426677    -0.031300890285    12.000000000000
         H            0.727903564029     0.435881573323    -1.468770890285     1.007825032230
         H            1.197068564029    -1.793222426677    -0.700725890285     1.007825032230
         H            1.505960564029    -1.266604426677     0.830255109715     1.007825032230
         H            2.505324564029    -0.813679426677    -0.414919890285     1.007825032230
         H            1.153578564029     1.218375573323     1.472126109715     1.007825032230
         H            0.571718564029     2.280826573323     0.173685109715     1.007825032230
         H            2.224286564029     1.647923573323     0.112414109715     1.007825032230
         H           -2.490809435971     0.568412573323    -0.024844890285     1.007825032230

  Basis Set: AUG-CC-PVTZ
    Blend: AUG-CC-PVTZ
  Basis Set: (AUG-CC-PVTZ AUX)
    Blend: AUG-CC-PVTZ-JKFIT
	 Reference Energy          =    -322.3594936309956438 [Eh]
	 Singles Energy            =      -0.0000000000000000 [Eh]
	 Same-Spin Energy          =      -0.3113672985728647 [Eh]
	 Opposite-Spin Energy      =      -0.9971609650891824 [Eh]
	 Correlation Energy        =      -1.3085282636620472 [Eh]
	 Total Energy              =    -323.6680218946576701 [Eh]

	 ================> DF-SCS-MP2 Energies <==================
	-----------------------------------------------------------
	 SCS Same-Spin Scale       =       0.3333333333333333 [-]
	 SCS Opposite-Spin Scale   =       1.2000000000000000 [-]
	 SCS Same-Spin Energy      =      -0.1037890995242882 [Eh]
	 SCS Opposite-Spin Energy  =      -1.1965931581070188 [Eh]
	 SCS Correlation Energy    =      -1.3003822576313071 [Eh]
	 SCS Total Energy          =    -323.6598758886269707 [Eh]
	-----------------------------------------------------------

  Dipole Moment: [D]
     X:     5.7600      Y:    -1.2185      Z:    -1.0971     Total:     5.9888

*** Psi4 exiting successfully. Buy a developer a beer!
