                               Psi4 1.3.2 release

  ==> Input File <==

--------------------------------------------------------------------------
#psi4
#
memory 32 gb

molecule  {
1 1
  O       -1.6801300     0.8159750    -0.2688873
  O       -1.1238540    -1.2691650     0.4354900
  N        1.4473370    -1.0090820    -0.1563980
  C        0.6092987     0.1809651    -0.3886781
  C        1.1187320     1.3933860     0.3994720
  C       -0.8221020    -0.1825100    -0.0303730
  H        0.6501100     0.4122580    -1.4678430
  H        1.1192750    -1.8168460    -0.6997980
  H        1.4281670    -1.2902280     0.8311830
  H        2.4275310    -0.8373030    -0.4139920
  H        1.0757850     1.1947520     1.4730540
  H        0.4939250     2.2572030     0.1746130
  H        2.1464930     1.6243000     0.1133420
  H       -2.5686030     0.5447890    -0.0239170
units angstrom
no_reorient  #important for SAPT in psi4, default
symmetry c1  #important for SAPT in psi4, default
}

set PROPERTIES_ORIGIN ["COM"]
properties('MP2/aug-cc-pvtz', properties = ['dipole'])
--------------------------------------------------------------------------

    Molecular point group: c1
  Charge       = 1
  Multiplicity = 1
  Basis Set: AUG-CC-PVTZ
    Blend: AUG-CC-PVTZ
  Basis Set: (AUG-CC-PVTZ AUX)
    Blend: AUG-CC-PVTZ-JKFIT

    Orbital Energies [Eh]
    ---------------------

    Doubly Occupied:

       1A    -20.783805     2A    -20.732442     3A    -15.904114
       4A    -11.575658     5A    -11.509143     6A    -11.417274
       7A     -1.640481     8A     -1.546474     9A     -1.520964
      10A     -1.253862    11A     -1.108048    12A     -1.018592
      13A     -0.985417    14A     -0.970515    15A     -0.886124
      16A     -0.865699    17A     -0.847524    18A     -0.810427
      19A     -0.770873    20A     -0.737948    21A     -0.731151
      22A     -0.713241    23A     -0.655091    24A     -0.635415

  @DF-RHF Final Energy:  -322.35917763455666

   => Energetics <=

    Nuclear Repulsion Energy =            260.3885039091925364
    One-Electron Energy =                -946.2548021465512420
    Two-Electron Energy =                 363.5071206028020470
    Total Energy =                       -322.3591776345566586
  Basis Set: (AUG-CC-PVTZ AUX)
    Blend: AUG-CC-PVTZ-RI
    Molecular point group: c1

    Geometry (in Angstrom), charge = 1, multiplicity = 1:

       Center              X                  Y                   Z               Mass
    ------------   -----------------  -----------------  -----------------  -----------------
         O           -1.603671666819     0.844530957976    -0.271400544146    15.994914619570
         O           -1.047395666819    -1.240609042024     0.432976755854    15.994914619570
         N            1.523795333181    -0.980526042024    -0.158911244146    14.003074004430
         C            0.685757033181     0.209521057976    -0.391191344146    12.000000000000
         C            1.195190333181     1.421941957976     0.396958755854    12.000000000000
         C           -0.745643666819    -0.153954042024    -0.032886244146    12.000000000000
         H            0.726568333181     0.440813957976    -1.470356244146     1.007825032230
         H            1.195733333181    -1.788290042024    -0.702311244146     1.007825032230
         H            1.504625333181    -1.261672042024     0.828669755854     1.007825032230
         H            2.503989333181    -0.808747042024    -0.416505244146     1.007825032230
         H            1.152243333181     1.223307957976     1.470540755854     1.007825032230
         H            0.570383333181     2.285758957976     0.172099755854     1.007825032230
         H            2.222951333181     1.652855957976     0.110828755854     1.007825032230
         H           -2.492144666819     0.573344957976    -0.026430244146     1.007825032230

  Basis Set: AUG-CC-PVTZ
    Blend: AUG-CC-PVTZ
  Basis Set: (AUG-CC-PVTZ AUX)
    Blend: AUG-CC-PVTZ-JKFIT
	 Reference Energy          =    -322.3591776345566586 [Eh]
	 Singles Energy            =      -0.0000000000000000 [Eh]
	 Same-Spin Energy          =      -0.3112179640789914 [Eh]
	 Opposite-Spin Energy      =      -0.9966303336021874 [Eh]
	 Correlation Energy        =      -1.3078482976811787 [Eh]
	 Total Energy              =    -323.6670259322378342 [Eh]

	 ================> DF-SCS-MP2 Energies <==================
	-----------------------------------------------------------
	 SCS Same-Spin Scale       =       0.3333333333333333 [-]
	 SCS Opposite-Spin Scale   =       1.2000000000000000 [-]
	 SCS Same-Spin Energy      =      -0.1037393213596638 [Eh]
	 SCS Opposite-Spin Energy  =      -1.1959564003226248 [Eh]
	 SCS Correlation Energy    =      -1.2996957216822886 [Eh]
	 SCS Total Energy          =    -323.6588733562389280 [Eh]
	-----------------------------------------------------------

  Dipole Moment: [D]
     X:     5.7943      Y:    -1.2401      Z:    -1.1062     Total:     6.0279

*** Psi4 exiting successfully. Buy a developer a beer!
