                               Psi4 1.3.2 release

  ==> Input File <==

--------------------------------------------------------------------------
#psi4
#
memory 32 gb

molecule  {
1 1
  O       -1.6624030     0.8291070    -0.2765410
  O       -1.1238540    -1.2691650     0.4354900
  N        1.4473370    -1.0090820    -0.1563980
  C        0.6010380     0.2049760    -0.3963400
  C        1.1187320     1.3933860     0.3994720
  C       -0.8849078    -0.1068997    -0.0487721
  H        0.6501100     0.4122580    -1.4678430
  H        1.1192750    -1.8168460    -0.6997980
  H        1.4281670    -1.2902280     0.8311830
  H        2.4275310    -0.8373030    -0.4139920
  H        1.0757850     1.1947520     1.4730540
  H        0.4939250     2.2572030     0.1746130
  H        2.1464930     1.6243000     0.1133420
  H       -2.5686030     0.5447890    -0.0239170
units angstrom
no_reorient  #important for SAPT in psi4, default
symmetry c1  #important for SAPT in psi4, default
}

set PROPERTIES_ORIGIN ["COM"]
properties('MP2/aug-cc-pvtz', properties = ['dipole'])
--------------------------------------------------------------------------

    Molecular point group: c1
  Charge       = 1
  Multiplicity = 1
  Basis Set: AUG-CC-PVTZ
    Blend: AUG-CC-PVTZ
  Basis Set: (AUG-CC-PVTZ AUX)
    Blend: AUG-CC-PVTZ-JKFIT

    Orbital Energies [Eh]
    ---------------------

    Doubly Occupied:

       1A    -20.815676     2A    -20.715607     3A    -15.896559
       4A    -11.579028     5A    -11.506237     6A    -11.414099
       7A     -1.689641     8A     -1.527240     9A     -1.495618
      10A     -1.249938    11A     -1.105953    12A     -1.035671
      13A     -0.976892    14A     -0.960900    15A     -0.901047
      16A     -0.865806    17A     -0.853704    18A     -0.829845
      19A     -0.767502    20A     -0.735188    21A     -0.724645
      22A     -0.709948    23A     -0.636169    24A     -0.620938

  @DF-RHF Final Energy:  -322.34355109429464

   => Energetics <=

    Nuclear Repulsion Energy =            260.1397205018674299
    One-Electron Energy =                -945.7388492619198814
    Two-Electron Energy =                 363.2555776657578690
    Total Energy =                       -322.3435510942946394
  Basis Set: (AUG-CC-PVTZ AUX)
    Blend: AUG-CC-PVTZ-RI
    Molecular point group: c1

    Geometry (in Angstrom), charge = 1, multiplicity = 1:

       Center              X                  Y                   Z               Mass
    ------------   -----------------  -----------------  -----------------  -----------------
         O           -1.579623496802     0.842055920492    -0.274222198784    15.994914619570
         O           -1.041074496802    -1.256216079508     0.437808801216    15.994914619570
         N            1.530116503198    -0.996133079508    -0.154079198784    14.003074004430
         C            0.683817503198     0.217924920492    -0.394021198784    12.000000000000
         C            1.201511503198     1.406334920492     0.401790801216    12.000000000000
         C           -0.802128296802    -0.093950779508    -0.046453298784    12.000000000000
         H            0.732889503198     0.425206920492    -1.465524198784     1.007825032230
         H            1.202054503198    -1.803897079508    -0.697479198784     1.007825032230
         H            1.510946503198    -1.277279079508     0.833501801216     1.007825032230
         H            2.510310503198    -0.824354079508    -0.411673198784     1.007825032230
         H            1.158564503198     1.207700920492     1.475372801216     1.007825032230
         H            0.576704503198     2.270151920492     0.176931801216     1.007825032230
         H            2.229272503198     1.637248920492     0.115660801216     1.007825032230
         H           -2.485823496802     0.557737920492    -0.021598198784     1.007825032230

  Basis Set: AUG-CC-PVTZ
    Blend: AUG-CC-PVTZ
  Basis Set: (AUG-CC-PVTZ AUX)
    Blend: AUG-CC-PVTZ-JKFIT
	 Reference Energy          =    -322.3435510942946394 [Eh]
	 Singles Energy            =      -0.0000000000000000 [Eh]
	 Same-Spin Energy          =      -0.3122042455395256 [Eh]
	 Opposite-Spin Energy      =      -0.9981956956371065 [Eh]
	 Correlation Energy        =      -1.3103999411766321 [Eh]
	 Total Energy              =    -323.6539510354712661 [Eh]

	 ================> DF-SCS-MP2 Energies <==================
	-----------------------------------------------------------
	 SCS Same-Spin Scale       =       0.3333333333333333 [-]
	 SCS Opposite-Spin Scale   =       1.2000000000000000 [-]
	 SCS Same-Spin Energy      =      -0.1040680818465085 [Eh]
	 SCS Opposite-Spin Energy  =      -1.1978348347645278 [Eh]
	 SCS Correlation Energy    =      -1.3019029166110363 [Eh]
	 SCS Total Energy          =    -323.6454540109056666 [Eh]
	-----------------------------------------------------------

  Dipole Moment: [D]
     X:     5.2123      Y:    -0.6527      Z:    -1.2549     Total:     5.4009

*** Psi4 exiting successfully. Buy a developer a beer!
