                               Psi4 1.3.2 release

  ==> Input File <==

--------------------------------------------------------------------------
#psi4
#
memory 32 gb

molecule  {
1 1
  O       -1.6624030     0.8291070    -0.2765410
  O       -1.1238540    -1.2691650     0.4354900
  N        1.4473370    -1.0090820    -0.1563980
  C        0.6010380     0.2049760    -0.3963400
  C        1.1187320     1.3933860     0.3994720
  C       -0.8421124    -0.1730213    -0.1067894
  H        0.5942793     0.4002984    -1.4711870
  H        1.1192750    -1.8168460    -0.6997980
  H        1.4281670    -1.2902280     0.8311830
  H        2.4275310    -0.8373030    -0.4139920
  H        1.0757850     1.1947520     1.4730540
  H        0.4939250     2.2572030     0.1746130
  H        2.1464930     1.6243000     0.1133420
  H       -2.5686030     0.5447890    -0.0239170
units angstrom
no_reorient  #important for SAPT in psi4, default
symmetry c1  #important for SAPT in psi4, default
}

set PROPERTIES_ORIGIN ["COM"]
properties('MP2/aug-cc-pvtz', properties = ['dipole'])
--------------------------------------------------------------------------

    Molecular point group: c1
  Charge       = 1
  Multiplicity = 1
  Basis Set: AUG-CC-PVTZ
    Blend: AUG-CC-PVTZ
  Basis Set: (AUG-CC-PVTZ AUX)
    Blend: AUG-CC-PVTZ-JKFIT

    Orbital Energies [Eh]
    ---------------------

    Doubly Occupied:

       1A    -20.796377     2A    -20.726596     3A    -15.900449
       4A    -11.578023     5A    -11.509562     6A    -11.417425
       7A     -1.648625     8A     -1.535375     9A     -1.507125
      10A     -1.256012    11A     -1.111855    12A     -1.018107
      13A     -0.979197    14A     -0.965296    15A     -0.888080
      16A     -0.861645    17A     -0.849614    18A     -0.814219
      19A     -0.768000    20A     -0.737145    21A     -0.733557
      22A     -0.714261    23A     -0.645520    24A     -0.630914

  @DF-RHF Final Energy:  -322.35132440927782

   => Energetics <=

    Nuclear Repulsion Energy =            260.0376786289602364
    One-Electron Energy =                -945.5920477548879717
    Two-Electron Energy =                 363.2030447166498561
    Total Energy =                       -322.3513244092778223
  Basis Set: (AUG-CC-PVTZ AUX)
    Blend: AUG-CC-PVTZ-RI
    Molecular point group: c1

    Geometry (in Angstrom), charge = 1, multiplicity = 1:

       Center              X                  Y                   Z               Mass
    ------------   -----------------  -----------------  -----------------  -----------------
         O           -1.584701223373     0.851000541897    -0.266453903236    15.994914619570
         O           -1.046152223373    -1.247271458103     0.445577096764    15.994914619570
         N            1.525038776627    -0.987188458103    -0.146310903236    14.003074004430
         C            0.678739776627     0.226869541897    -0.386252903236    12.000000000000
         C            1.196433776627     1.415279541897     0.409559096764    12.000000000000
         C           -0.764410623373    -0.151127758103    -0.096702303236    12.000000000000
         H            0.671981076627     0.422191941897    -1.461099903236     1.007825032230
         H            1.196976776627    -1.794952458103    -0.689710903236     1.007825032230
         H            1.505868776627    -1.268334458103     0.841270096764     1.007825032230
         H            2.505232776627    -0.815409458103    -0.403904903236     1.007825032230
         H            1.153486776627     1.216645541897     1.483141096764     1.007825032230
         H            0.571626776627     2.279096541897     0.184700096764     1.007825032230
         H            2.224194776627     1.646193541897     0.123429096764     1.007825032230
         H           -2.490901223373     0.566682541897    -0.013829903236     1.007825032230

  Basis Set: AUG-CC-PVTZ
    Blend: AUG-CC-PVTZ
  Basis Set: (AUG-CC-PVTZ AUX)
    Blend: AUG-CC-PVTZ-JKFIT
	 Reference Energy          =    -322.3513244092778223 [Eh]
	 Singles Energy            =      -0.0000000000000000 [Eh]
	 Same-Spin Energy          =      -0.3122966669851568 [Eh]
	 Opposite-Spin Energy      =      -0.9988083919757076 [Eh]
	 Correlation Energy        =      -1.3111050589608644 [Eh]
	 Total Energy              =    -323.6624294682387131 [Eh]

	 ================> DF-SCS-MP2 Energies <==================
	-----------------------------------------------------------
	 SCS Same-Spin Scale       =       0.3333333333333333 [-]
	 SCS Opposite-Spin Scale   =       1.2000000000000000 [-]
	 SCS Same-Spin Energy      =      -0.1040988889950523 [Eh]
	 SCS Opposite-Spin Energy  =      -1.1985700703708491 [Eh]
	 SCS Correlation Energy    =      -1.3026689593659013 [Eh]
	 SCS Total Energy          =    -323.6539933686437394 [Eh]
	-----------------------------------------------------------

  Dipole Moment: [D]
     X:     5.5621      Y:    -0.9984      Z:    -1.1799     Total:     5.7728

*** Psi4 exiting successfully. Buy a developer a beer!
