                               Psi4 1.3.2 release

  ==> Input File <==

--------------------------------------------------------------------------
#psi4
#
memory 32 gb

molecule  {
1 1
  O       -1.6624030     0.8291070    -0.2765410
  O       -1.1238540    -1.2691650     0.4354900
  N        1.4415859    -1.0077707    -0.1309051
  C        0.6010380     0.2049760    -0.3963400
  C        1.1187320     1.3933860     0.3994720
  C       -0.8221020    -0.1825100    -0.0303730
  H        0.6386185     0.4272585    -1.4652978
  H        1.1192750    -1.8168460    -0.6997980
  H        1.4281670    -1.2902280     0.8311830
  H        2.4275310    -0.8373030    -0.4139920
  H        1.0757850     1.1947520     1.4730540
  H        0.4939250     2.2572030     0.1746130
  H        2.1464930     1.6243000     0.1133420
  H       -2.5686030     0.5447890    -0.0239170
units angstrom
no_reorient  #important for SAPT in psi4, default
symmetry c1  #important for SAPT in psi4, default
}

set PROPERTIES_ORIGIN ["COM"]
properties('MP2/aug-cc-pvtz', properties = ['dipole'])
--------------------------------------------------------------------------

    Molecular point group: c1
  Charge       = 1
  Multiplicity = 1
  Basis Set: AUG-CC-PVTZ
    Blend: AUG-CC-PVTZ
  Basis Set: (AUG-CC-PVTZ AUX)
    Blend: AUG-CC-PVTZ-JKFIT

    Orbital Energies [Eh]
    ---------------------

    Doubly Occupied:

       1A    -20.786627     2A    -20.734091     3A    -15.900866
       4A    -11.575572     5A    -11.509265     6A    -11.416012
       7A     -1.638948     8A     -1.544245     9A     -1.515426
      10A     -1.256128    11A     -1.107329    12A     -1.014541
      13A     -0.981409    14A     -0.959762    15A     -0.888370
      16A     -0.857578    17A     -0.852372    18A     -0.811046
      19A     -0.771239    20A     -0.735572    21A     -0.733258
      22A     -0.716875    23A     -0.656306    24A     -0.636308

  @DF-RHF Final Energy:  -322.35773713632545

   => Energetics <=

    Nuclear Repulsion Energy =            260.3804396075472596
    One-Electron Energy =                -946.2780637718660728
    Two-Electron Energy =                 363.5398870279933590
    Total Energy =                       -322.3577371363254542
  Basis Set: (AUG-CC-PVTZ AUX)
    Blend: AUG-CC-PVTZ-RI
    Molecular point group: c1

    Geometry (in Angstrom), charge = 1, multiplicity = 1:

       Center              X                  Y                   Z               Mass
    ------------   -----------------  -----------------  -----------------  -----------------
         O           -1.586969578652     0.851759308466    -0.280666372199    15.994914619570
         O           -1.048420578652    -1.246512691534     0.431364627801    15.994914619570
         N            1.517019321348    -0.985118391534    -0.135030472199    14.003074004430
         C            0.676471421348     0.227628308466    -0.400465372199    12.000000000000
         C            1.194165421348     1.416038308466     0.395346627801    12.000000000000
         C           -0.746668578652    -0.159857691534    -0.034498372199    12.000000000000
         H            0.714051921348     0.449910808466    -1.469423172199     1.007825032230
         H            1.194708421348    -1.794193691534    -0.703923372199     1.007825032230
         H            1.503600421348    -1.267575691534     0.827057627801     1.007825032230
         H            2.502964421348    -0.814650691534    -0.418117372199     1.007825032230
         H            1.151218421348     1.217404308466     1.468928627801     1.007825032230
         H            0.569358421348     2.279855308466     0.170487627801     1.007825032230
         H            2.221926421348     1.646952308466     0.109216627801     1.007825032230
         H           -2.493169578652     0.567441308466    -0.028042372199     1.007825032230

  Basis Set: AUG-CC-PVTZ
    Blend: AUG-CC-PVTZ
  Basis Set: (AUG-CC-PVTZ AUX)
    Blend: AUG-CC-PVTZ-JKFIT
	 Reference Energy          =    -322.3577371363254542 [Eh]
	 Singles Energy            =      -0.0000000000000000 [Eh]
	 Same-Spin Energy          =      -0.3116288216557629 [Eh]
	 Opposite-Spin Energy      =      -0.9976866809160791 [Eh]
	 Correlation Energy        =      -1.3093155025718421 [Eh]
	 Total Energy              =    -323.6670526388973030 [Eh]

	 ================> DF-SCS-MP2 Energies <==================
	-----------------------------------------------------------
	 SCS Same-Spin Scale       =       0.3333333333333333 [-]
	 SCS Opposite-Spin Scale   =       1.2000000000000000 [-]
	 SCS Same-Spin Energy      =      -0.1038762738852543 [Eh]
	 SCS Opposite-Spin Energy  =      -1.1972240170992949 [Eh]
	 SCS Correlation Energy    =      -1.3011002909845493 [Eh]
	 SCS Total Energy          =    -323.6588374273100044 [Eh]
	-----------------------------------------------------------

  Dipole Moment: [D]
     X:     5.6939      Y:    -1.2244      Z:    -1.1280     Total:     5.9323

*** Psi4 exiting successfully. Buy a developer a beer!
