                               Psi4 1.3.2 release

  ==> Input File <==

--------------------------------------------------------------------------
#psi4
#
memory 32 gb

molecule  {
1 1
  O       -1.6624030     0.8291070    -0.2765410
  O       -1.1238540    -1.2691650     0.4354900
  N        1.4473370    -1.0090820    -0.1563980
  C        0.4881412     0.3669321    -0.4283484
  C        1.1187320     1.3933860     0.3994720
  C       -0.8221020    -0.1825100    -0.0303730
  H        0.6501100     0.4122580    -1.4678430
  H        1.1192750    -1.8168460    -0.6997980
  H        1.4281670    -1.2902280     0.8311830
  H        2.4275310    -0.8373030    -0.4139920
  H        1.0757850     1.1947520     1.4730540
  H        0.4939250     2.2572030     0.1746130
  H        2.1464930     1.6243000     0.1133420
  H       -2.5686030     0.5447890    -0.0239170
units angstrom
no_reorient  #important for SAPT in psi4, default
symmetry c1  #important for SAPT in psi4, default
}

set PROPERTIES_ORIGIN ["COM"]
properties('MP2/aug-cc-pvtz', properties = ['dipole'])
--------------------------------------------------------------------------

    Molecular point group: c1
  Charge       = 1
  Multiplicity = 1
  Basis Set: AUG-CC-PVTZ
    Blend: AUG-CC-PVTZ
  Basis Set: (AUG-CC-PVTZ AUX)
    Blend: AUG-CC-PVTZ-JKFIT

    Orbital Energies [Eh]
    ---------------------

    Doubly Occupied:

       1A    -20.790580     2A    -20.743682     3A    -15.867163
       4A    -11.582626     5A    -11.526850     6A    -11.421039
       7A     -1.647460     8A     -1.546537     9A     -1.467693
      10A     -1.281027    11A     -1.125161    12A     -1.005504
      13A     -0.951259    14A     -0.930658    15A     -0.891402
      16A     -0.868619    17A     -0.830725    18A     -0.816707
      19A     -0.780640    20A     -0.760371    21A     -0.735349
      22A     -0.713733    23A     -0.662314    24A     -0.649177

  @DF-RHF Final Energy:  -322.33085436871522

   => Energetics <=

    Nuclear Repulsion Energy =            259.8755354673104989
    One-Electron Energy =                -945.2202242666885468
    Two-Electron Energy =                 363.0138344306627687
    Total Energy =                       -322.3308543687152223
  Basis Set: (AUG-CC-PVTZ AUX)
    Blend: AUG-CC-PVTZ-RI
    Molecular point group: c1

    Geometry (in Angstrom), charge = 1, multiplicity = 1:

       Center              X                  Y                   Z               Mass
    ------------   -----------------  -----------------  -----------------  -----------------
         O           -1.572948813117     0.830550242775    -0.272408743818    15.994914619570
         O           -1.034399813117    -1.267721757225     0.439622256182    15.994914619570
         N            1.536791186883    -1.007638757225    -0.152265743818    14.003074004430
         C            0.577595386883     0.368375342775    -0.424216143818    12.000000000000
         C            1.208186186883     1.394829242775     0.403604256182    12.000000000000
         C           -0.732647813117    -0.181066757225    -0.026240743818    12.000000000000
         H            0.739564186883     0.413701242775    -1.463710743818     1.007825032230
         H            1.208729186883    -1.815402757225    -0.695665743818     1.007825032230
         H            1.517621186883    -1.288784757225     0.835315256182     1.007825032230
         H            2.516985186883    -0.835859757225    -0.409859743818     1.007825032230
         H            1.165239186883     1.196195242775     1.477186256182     1.007825032230
         H            0.583379186883     2.258646242775     0.178745256182     1.007825032230
         H            2.235947186883     1.625743242775     0.117474256182     1.007825032230
         H           -2.479148813117     0.546232242775    -0.019784743818     1.007825032230

  Basis Set: AUG-CC-PVTZ
    Blend: AUG-CC-PVTZ
  Basis Set: (AUG-CC-PVTZ AUX)
    Blend: AUG-CC-PVTZ-JKFIT
	 Reference Energy          =    -322.3308543687152223 [Eh]
	 Singles Energy            =      -0.0000000000000000 [Eh]
	 Same-Spin Energy          =      -0.3125130164629166 [Eh]
	 Opposite-Spin Energy      =      -1.0005236208505823 [Eh]
	 Correlation Energy        =      -1.3130366373134990 [Eh]
	 Total Energy              =    -323.6438910060286958 [Eh]

	 ================> DF-SCS-MP2 Energies <==================
	-----------------------------------------------------------
	 SCS Same-Spin Scale       =       0.3333333333333333 [-]
	 SCS Opposite-Spin Scale   =       1.2000000000000000 [-]
	 SCS Same-Spin Energy      =      -0.1041710054876389 [Eh]
	 SCS Opposite-Spin Energy  =      -1.2006283450206987 [Eh]
	 SCS Correlation Energy    =      -1.3047993505083375 [Eh]
	 SCS Total Energy          =    -323.6356537192235692 [Eh]
	-----------------------------------------------------------

  Dipole Moment: [D]
     X:     5.3080      Y:    -0.7200      Z:    -1.0610     Total:     5.4607

*** Psi4 exiting successfully. Buy a developer a beer!
