                               Psi4 1.3.2 release

  ==> Input File <==

--------------------------------------------------------------------------
#psi4
#
memory 32 gb

molecule  {
1 1
  O       -1.6624030     0.8291070    -0.2765410
  O       -1.1238540    -1.2691650     0.4354900
  N        1.4473370    -1.0090820    -0.1563980
  C        0.6010380     0.2049760    -0.3963400
  C        1.1187320     1.3933860     0.3994720
  C       -0.8221020    -0.1825100    -0.0303730
  H        0.6501100     0.4122580    -1.4678430
  H        1.1192750    -1.8168460    -0.6997980
  H        1.4281670    -1.2902280     0.8311830
  H        2.4275310    -0.8373030    -0.4139920
  H        1.0757850     1.1947520     1.4730540
  H        0.4939250     2.2572030     0.1746130
  H        2.1464930     1.6243000     0.1133420
  H       -2.7530189     0.4869290     0.0274931
units angstrom
no_reorient  #important for SAPT in psi4, default
symmetry c1  #important for SAPT in psi4, default
}

set PROPERTIES_ORIGIN ["COM"]
properties('MP2/aug-cc-pvtz', properties = ['dipole'])
--------------------------------------------------------------------------

    Molecular point group: c1
  Charge       = 1
  Multiplicity = 1
  Basis Set: AUG-CC-PVTZ
    Blend: AUG-CC-PVTZ
  Basis Set: (AUG-CC-PVTZ AUX)
    Blend: AUG-CC-PVTZ-JKFIT

    Orbital Energies [Eh]
    ---------------------

    Doubly Occupied:

       1A    -20.791399     2A    -20.729187     3A    -15.898349
       4A    -11.570557     5A    -11.506959     6A    -11.414327
       7A     -1.619600     8A     -1.527624     9A     -1.510764
      10A     -1.250809    11A     -1.100488    12A     -0.996154
      13A     -0.965903    14A     -0.960347    15A     -0.878388
      16A     -0.850986    17A     -0.834704    18A     -0.802621
      19A     -0.757537    20A     -0.734381    21A     -0.723233
      22A     -0.711562    23A     -0.649100    24A     -0.631791

  @DF-RHF Final Energy:  -322.32499475534473

   => Energetics <=

    Nuclear Repulsion Energy =            259.2034430655210144
    One-Electron Energy =                -944.2233388221305859
    Two-Electron Energy =                 362.6949010012648387
    Total Energy =                       -322.3249947553447328
  Basis Set: (AUG-CC-PVTZ AUX)
    Blend: AUG-CC-PVTZ-RI
    Molecular point group: c1

    Geometry (in Angstrom), charge = 1, multiplicity = 1:

       Center              X                  Y                   Z               Mass
    ------------   -----------------  -----------------  -----------------  -----------------
         O           -1.585928615508     0.852778600604    -0.277249238499    15.994914619570
         O           -1.047379615508    -1.245493399396     0.434781761501    15.994914619570
         N            1.523811384492    -0.985410399396    -0.157106238499    14.003074004430
         C            0.677512384492     0.228647600604    -0.397048238499    12.000000000000
         C            1.195206384492     1.417057600604     0.398763761501    12.000000000000
         C           -0.745627615508    -0.158838399396    -0.031081238499    12.000000000000
         H            0.726584384492     0.435929600604    -1.468551238499     1.007825032230
         H            1.195749384492    -1.793174399396    -0.700506238499     1.007825032230
         H            1.504641384492    -1.266556399396     0.830474761501     1.007825032230
         H            2.504005384492    -0.813631399396    -0.414700238499     1.007825032230
         H            1.152259384492     1.218423600604     1.472345761501     1.007825032230
         H            0.570399384492     2.280874600604     0.173904761501     1.007825032230
         H            2.222967384492     1.647971600604     0.112633761501     1.007825032230
         H           -2.676544515508     0.510600600604     0.026784861501     1.007825032230

  Basis Set: AUG-CC-PVTZ
    Blend: AUG-CC-PVTZ
  Basis Set: (AUG-CC-PVTZ AUX)
    Blend: AUG-CC-PVTZ-JKFIT
	 Reference Energy          =    -322.3249947553447328 [Eh]
	 Singles Energy            =      -0.0000000000000000 [Eh]
	 Same-Spin Energy          =      -0.3141006197271883 [Eh]
	 Opposite-Spin Energy      =      -1.0037087179020596 [Eh]
	 Correlation Energy        =      -1.3178093376292479 [Eh]
	 Total Energy              =    -323.6428040929739609 [Eh]

	 ================> DF-SCS-MP2 Energies <==================
	-----------------------------------------------------------
	 SCS Same-Spin Scale       =       0.3333333333333333 [-]
	 SCS Opposite-Spin Scale   =       1.2000000000000000 [-]
	 SCS Same-Spin Energy      =      -0.1047002065757294 [Eh]
	 SCS Opposite-Spin Energy  =      -1.2044504614824716 [Eh]
	 SCS Correlation Energy    =      -1.3091506680582010 [Eh]
	 SCS Total Energy          =    -323.6341454234029129 [Eh]
	-----------------------------------------------------------

  Dipole Moment: [D]
     X:     5.3023      Y:    -1.2233      Z:    -1.0303     Total:     5.5382

*** Psi4 exiting successfully. Buy a developer a beer!
