                               Psi4 1.4a3.dev225

  ==> Input File <==

--------------------------------------------------------------------------
#psi4
#
memory 32 gb

molecule  {
1 1
  O       -1.6123010     0.9094490    -0.1675920
  O       -1.1928110    -1.2795120     0.3034070
  N        1.4156850    -1.0522820    -0.0637630
  C        0.6095860     0.1674070    -0.3957710
  C        1.1650120     1.3928430     0.3122100
  C       -0.8135621    -0.1195894    -0.0489003
  H        0.6656880     0.2905790    -1.4809690
  H        0.9122540    -1.9066690    -0.3390640
  H        1.5920220    -1.1264780     0.9462830
  H        2.3268530    -1.0442670    -0.5383350
  H        1.0907020     1.2862690     1.3970100
  H        0.5903660     2.2672430     0.0071660
  H        2.2096640     1.5504630     0.0359860
  H       -2.5330880     0.6393330     0.0432950
units angstrom
no_reorient  #important for SAPT in psi4, default
symmetry c1  #important for SAPT in psi4, default
}

set PROPERTIES_ORIGIN ["COM"]
properties('MP2/aug-cc-pvtz', properties = ['dipole'])
--------------------------------------------------------------------------

    Molecular point group: c1
  Charge       = 1
  Multiplicity = 1
  Basis Set: AUG-CC-PVTZ
    Blend: AUG-CC-PVTZ
  Basis Set: (AUG-CC-PVTZ AUX)
    Blend: AUG-CC-PVTZ-JKFIT

    Orbital Energies [Eh]
    ---------------------

    Doubly Occupied:

       1A    -20.796978     2A    -20.726279     3A    -15.899711
       4A    -11.580665     5A    -11.511412     6A    -11.417963
       7A     -1.647360     8A     -1.533603     9A     -1.502055
      10A     -1.262220    11A     -1.113583    12A     -1.023152
      13A     -0.981880    14A     -0.964120    15A     -0.886370
      16A     -0.864087    17A     -0.855242    18A     -0.810083
      19A     -0.769844    20A     -0.737567    21A     -0.731021
      22A     -0.716727    23A     -0.642014    24A     -0.634458

  @DF-RHF Final Energy:  -322.35102770440005

   => Energetics <=

    Nuclear Repulsion Energy =            260.3714989780191331
    One-Electron Energy =                -946.2282664999894450
    Two-Electron Energy =                 363.5057398175703156
    Total Energy =                       -322.3510277044000532
  Basis Set: (AUG-CC-PVTZ AUX)
    Blend: AUG-CC-PVTZ-RI
    Molecular point group: c1

    Geometry (in Angstrom), charge = 1, multiplicity = 1:

       Center              X                  Y                   Z               Mass
    ------------   -----------------  -----------------  -----------------  -----------------
         O           -1.538978918823     0.924934995746    -0.164947699749    15.994914619570
         O           -1.119488918823    -1.264026004254     0.306051300251    15.994914619570
         N            1.489007081177    -1.036796004254    -0.061118699749    14.003074004430
         C            0.682908081177     0.182892995746    -0.393126699749    12.000000000000
         C            1.238334081177     1.408328995746     0.314854300251    12.000000000000
         C           -0.740240018823    -0.104103404254    -0.046255999749    12.000000000000
         H            0.739010081177     0.306064995746    -1.478324699749     1.007825032230
         H            0.985576081177    -1.891183004254    -0.336419699749     1.007825032230
         H            1.665344081177    -1.110992004254     0.948927300251     1.007825032230
         H            2.400175081177    -1.028781004254    -0.535690699749     1.007825032230
         H            1.164024081177     1.301754995746     1.399654300251     1.007825032230
         H            0.663688081177     2.282728995746     0.009810300251     1.007825032230
         H            2.282986081177     1.565948995746     0.038630300251     1.007825032230
         H           -2.459765918823     0.654818995746     0.045939300251     1.007825032230

  Basis Set: AUG-CC-PVTZ
    Blend: AUG-CC-PVTZ
  Basis Set: (AUG-CC-PVTZ AUX)
    Blend: AUG-CC-PVTZ-JKFIT
	 Reference Energy          =    -322.3510277044000532 [Eh]
	 Singles Energy            =      -0.0000000000000000 [Eh]
	 Same-Spin Energy          =      -0.3128187681535241 [Eh]
	 Opposite-Spin Energy      =      -0.9996630610269225 [Eh]
	 Correlation Energy        =      -1.3124818291804465 [Eh]
	 Total Energy              =    -323.6635095335805090 [Eh]

	 ================> DF-SCS-MP2 Energies <==================
	-----------------------------------------------------------
	 SCS Same-Spin Scale       =       0.3333333333333333 [-]
	 SCS Opposite-Spin Scale   =       1.2000000000000000 [-]
	 SCS Same-Spin Energy      =      -0.1042729227178413 [Eh]
	 SCS Opposite-Spin Energy  =      -1.1995956732323070 [Eh]
	 SCS Correlation Energy    =      -1.3038685959501484 [Eh]
	 SCS Total Energy          =    -323.6548963003501740 [Eh]
	-----------------------------------------------------------

  Dipole Moment: [D]
     X:     5.6307      Y:    -1.0248      Z:    -0.7292     Total:     5.7695

*** Psi4 exiting successfully. Buy a developer a beer!
