                               Psi4 1.3.2 release

  ==> Input File <==

--------------------------------------------------------------------------
#psi4
#
memory 32 gb

molecule  {
1 1
  O       -1.6624030     0.8291070    -0.2765410
  O       -1.1238540    -1.2691650     0.4354900
  N        1.4473370    -1.0090820    -0.1563980
  C        0.5717253     0.1768887    -0.4293610
  C        1.1187320     1.3933860     0.3994720
  C       -0.8221020    -0.1825100    -0.0303730
  H        0.6501100     0.4122580    -1.4678430
  H        1.0930880    -1.7963695    -0.7132435
  H        1.4281670    -1.2902280     0.8311830
  H        2.4275310    -0.8373030    -0.4139920
  H        1.0757850     1.1947520     1.4730540
  H        0.4939250     2.2572030     0.1746130
  H        2.1464930     1.6243000     0.1133420
  H       -2.5686030     0.5447890    -0.0239170
units angstrom
no_reorient  #important for SAPT in psi4, default
symmetry c1  #important for SAPT in psi4, default
}

set PROPERTIES_ORIGIN ["COM"]
properties('MP2/aug-cc-pvtz', properties = ['dipole'])
--------------------------------------------------------------------------

    Molecular point group: c1
  Charge       = 1
  Multiplicity = 1
  Basis Set: AUG-CC-PVTZ
    Blend: AUG-CC-PVTZ
  Basis Set: (AUG-CC-PVTZ AUX)
    Blend: AUG-CC-PVTZ-JKFIT

    Orbital Energies [Eh]
    ---------------------

    Doubly Occupied:

       1A    -20.787096     2A    -20.734401     3A    -15.900649
       4A    -11.575716     5A    -11.507424     6A    -11.419355
       7A     -1.640176     8A     -1.545027     9A     -1.515205
      10A     -1.251422    11A     -1.109235    12A     -1.015361
      13A     -0.979937    14A     -0.965564    15A     -0.888628
      16A     -0.863529    17A     -0.851643    18A     -0.809999
      19A     -0.771790    20A     -0.735774    21A     -0.725817
      22A     -0.717254    23A     -0.656378    24A     -0.639310

  @DF-RHF Final Energy:  -322.35660762071979

   => Energetics <=

    Nuclear Repulsion Energy =            260.3349904278174449
    One-Electron Energy =                -946.1698162907030110
    Two-Electron Energy =                 363.4782182421657240
    Total Energy =                       -322.3566076207197852
  Basis Set: (AUG-CC-PVTZ AUX)
    Blend: AUG-CC-PVTZ-RI
    Molecular point group: c1

    Geometry (in Angstrom), charge = 1, multiplicity = 1:

       Center              X                  Y                   Z               Mass
    ------------   -----------------  -----------------  -----------------  -----------------
         O           -1.583793428359     0.855644589959    -0.272123343032    15.994914619570
         O           -1.045244428359    -1.242627410041     0.439907656968    15.994914619570
         N            1.525946571641    -0.982544410041    -0.151980343032    14.003074004430
         C            0.650334871641     0.203426289959    -0.424943343032    12.000000000000
         C            1.197341571641     1.419923589959     0.403889656968    12.000000000000
         C           -0.743492428359    -0.155972410041    -0.025955343032    12.000000000000
         H            0.728719571641     0.438795589959    -1.463425343032     1.007825032230
         H            1.171697571641    -1.769831910041    -0.708825843032     1.007825032230
         H            1.506776571641    -1.263690410041     0.835600656968     1.007825032230
         H            2.506140571641    -0.810765410041    -0.409574343032     1.007825032230
         H            1.154394571641     1.221289589959     1.477471656968     1.007825032230
         H            0.572534571641     2.283740589959     0.179030656968     1.007825032230
         H            2.225102571641     1.650837589959     0.117759656968     1.007825032230
         H           -2.489993428359     0.571326589959    -0.019499343032     1.007825032230

  Basis Set: AUG-CC-PVTZ
    Blend: AUG-CC-PVTZ
  Basis Set: (AUG-CC-PVTZ AUX)
    Blend: AUG-CC-PVTZ-JKFIT
	 Reference Energy          =    -322.3566076207197852 [Eh]
	 Singles Energy            =      -0.0000000000000000 [Eh]
	 Same-Spin Energy          =      -0.3114356626686973 [Eh]
	 Opposite-Spin Energy      =      -0.9975955193343538 [Eh]
	 Correlation Energy        =      -1.3090311820030509 [Eh]
	 Total Energy              =    -323.6656388027228104 [Eh]

	 ================> DF-SCS-MP2 Energies <==================
	-----------------------------------------------------------
	 SCS Same-Spin Scale       =       0.3333333333333333 [-]
	 SCS Opposite-Spin Scale   =       1.2000000000000000 [-]
	 SCS Same-Spin Energy      =      -0.1038118875562324 [Eh]
	 SCS Opposite-Spin Energy  =      -1.1971146232012244 [Eh]
	 SCS Correlation Energy    =      -1.3009265107574568 [Eh]
	 SCS Total Energy          =    -323.6575341314772345 [Eh]
	-----------------------------------------------------------

  Dipole Moment: [D]
     X:     5.6900      Y:    -1.1979      Z:    -1.1104     Total:     5.9198

*** Psi4 exiting successfully. Buy a developer a beer!
