                               Psi4 1.3.2 release

  ==> Input File <==

--------------------------------------------------------------------------
#psi4
#
memory 32 gb

molecule  {
1 1
  O       -1.6078452     0.8663185    -0.2998907
  O       -1.0623535    -1.2860138     0.4316447
  N        1.4473370    -1.0090820    -0.1563980
  C        0.6010380     0.2049760    -0.3963400
  C        1.1187320     1.3933860     0.3994720
  C       -0.8221020    -0.1825100    -0.0303730
  H        0.6501100     0.4122580    -1.4678430
  H        1.1192750    -1.8168460    -0.6997980
  H        1.4281670    -1.2902280     0.8311830
  H        2.4275310    -0.8373030    -0.4139920
  H        1.0757850     1.1947520     1.4730540
  H        0.4939250     2.2572030     0.1746130
  H        2.1464930     1.6243000     0.1133420
  H       -2.5686030     0.5447890    -0.0239170
units angstrom
no_reorient  #important for SAPT in psi4, default
symmetry c1  #important for SAPT in psi4, default
}

set PROPERTIES_ORIGIN ["COM"]
properties('MP2/aug-cc-pvtz', properties = ['dipole'])
--------------------------------------------------------------------------

    Molecular point group: c1
  Charge       = 1
  Multiplicity = 1
  Basis Set: AUG-CC-PVTZ
    Blend: AUG-CC-PVTZ
  Basis Set: (AUG-CC-PVTZ AUX)
    Blend: AUG-CC-PVTZ-JKFIT

    Orbital Energies [Eh]
    ---------------------

    Doubly Occupied:

       1A    -20.800234     2A    -20.738578     3A    -15.895570
       4A    -11.577575     5A    -11.501911     6A    -11.413166
       7A     -1.635917     8A     -1.548791     9A     -1.511565
      10A     -1.250569    11A     -1.102494    12A     -1.002732
      13A     -0.972077    14A     -0.961530    15A     -0.889900
      16A     -0.855877    17A     -0.843354    18A     -0.812119
      19A     -0.770290    20A     -0.734294    21A     -0.733317
      22A     -0.713901    23A     -0.662350    24A     -0.635443

  @DF-RHF Final Energy:  -322.34826912494998

   => Energetics <=

    Nuclear Repulsion Energy =            260.7165762650789702
    One-Electron Energy =                -947.0025841159128959
    Two-Electron Energy =                 363.9377387258839462
    Total Energy =                       -322.3482691249499794
  Basis Set: (AUG-CC-PVTZ AUX)
    Blend: AUG-CC-PVTZ-RI
    Molecular point group: c1

    Geometry (in Angstrom), charge = 1, multiplicity = 1:

       Center              X                  Y                   Z               Mass
    ------------   -----------------  -----------------  -----------------  -----------------
         O           -1.554047958829     0.885725925853    -0.295193448886    15.994914619570
         O           -1.008556258829    -1.266606374147     0.436341951114    15.994914619570
         N            1.501134241171    -0.989674574147    -0.151700748886    14.003074004430
         C            0.654835241171     0.224383425853    -0.391642748886    12.000000000000
         C            1.172529241171     1.412793425853     0.404169251114    12.000000000000
         C           -0.768304758829    -0.163102574147    -0.025675748886    12.000000000000
         H            0.703907241171     0.431665425853    -1.463145748886     1.007825032230
         H            1.173072241171    -1.797438574147    -0.695100748886     1.007825032230
         H            1.481964241171    -1.270820574147     0.835880251114     1.007825032230
         H            2.481328241171    -0.817895574147    -0.409294748886     1.007825032230
         H            1.129582241171     1.214159425853     1.477751251114     1.007825032230
         H            0.547722241171     2.276610425853     0.179310251114     1.007825032230
         H            2.200290241171     1.643707425853     0.118039251114     1.007825032230
         H           -2.514805758829     0.564196425853    -0.019219748886     1.007825032230

  Basis Set: AUG-CC-PVTZ
    Blend: AUG-CC-PVTZ
  Basis Set: (AUG-CC-PVTZ AUX)
    Blend: AUG-CC-PVTZ-JKFIT
	 Reference Energy          =    -322.3482691249499794 [Eh]
	 Singles Energy            =      -0.0000000000000000 [Eh]
	 Same-Spin Energy          =      -0.3131331942457560 [Eh]
	 Opposite-Spin Energy      =      -1.0008251664580798 [Eh]
	 Correlation Energy        =      -1.3139583607038359 [Eh]
	 Total Energy              =    -323.6622274856538297 [Eh]

	 ================> DF-SCS-MP2 Energies <==================
	-----------------------------------------------------------
	 SCS Same-Spin Scale       =       0.3333333333333333 [-]
	 SCS Opposite-Spin Scale   =       1.2000000000000000 [-]
	 SCS Same-Spin Energy      =      -0.1043777314152520 [Eh]
	 SCS Opposite-Spin Energy  =      -1.2009901997496957 [Eh]
	 SCS Correlation Energy    =      -1.3053679311649478 [Eh]
	 SCS Total Energy          =    -323.6536370561149170 [Eh]
	-----------------------------------------------------------

  Dipole Moment: [D]
     X:     5.2224      Y:    -1.2208      Z:    -1.0307     Total:     5.4613

*** Psi4 exiting successfully. Buy a developer a beer!
