                               Psi4 1.4a3.dev225

  ==> Input File <==

--------------------------------------------------------------------------
#psi4
#
memory 32 gb

molecule  {
1 1
  O       -1.6123010     0.9094490    -0.1675920
  O       -1.1928110    -1.2795120     0.3034070
  N        1.4156850    -1.0522820    -0.0637630
  C        0.6095860     0.1674070    -0.3957710
  C        1.1650120     1.3928430     0.3122100
  C       -0.8578087    -0.1250509    -0.0399903
  H        0.6656880     0.2905790    -1.4809690
  H        0.9122540    -1.9066690    -0.3390640
  H        1.5920220    -1.1264780     0.9462830
  H        2.3268530    -1.0442670    -0.5383350
  H        1.0907020     1.2862690     1.3970100
  H        0.5903660     2.2672430     0.0071660
  H        2.2096640     1.5504630     0.0359860
  H       -2.5330880     0.6393330     0.0432950
units angstrom
no_reorient  #important for SAPT in psi4, default
symmetry c1  #important for SAPT in psi4, default
}

set PROPERTIES_ORIGIN ["COM"]
properties('MP2/aug-cc-pvtz', properties = ['dipole'])
--------------------------------------------------------------------------

    Molecular point group: c1
  Charge       = 1
  Multiplicity = 1
  Basis Set: AUG-CC-PVTZ
    Blend: AUG-CC-PVTZ
  Basis Set: (AUG-CC-PVTZ AUX)
    Blend: AUG-CC-PVTZ-JKFIT

    Orbital Energies [Eh]
    ---------------------

    Doubly Occupied:

       1A    -20.802624     2A    -20.726498     3A    -15.896724
       4A    -11.578759     5A    -11.507859     6A    -11.414578
       7A     -1.661298     8A     -1.538451     9A     -1.507184
      10A     -1.252202    11A     -1.105709    12A     -1.024562
      13A     -0.978801    14A     -0.961291    15A     -0.891270
      16A     -0.863388    17A     -0.854719    18A     -0.815961
      19A     -0.771452    20A     -0.734783    21A     -0.730993
      22A     -0.714822    23A     -0.648793    24A     -0.631658

  @DF-RHF Final Energy:  -322.35520312106541

   => Energetics <=

    Nuclear Repulsion Energy =            260.3168890346603916
    One-Electron Energy =                -946.1154248645013922
    Two-Electron Energy =                 363.4433327087756425
    Total Energy =                       -322.3552031210654150
  Basis Set: (AUG-CC-PVTZ AUX)
    Blend: AUG-CC-PVTZ-RI
    Molecular point group: c1

    Geometry (in Angstrom), charge = 1, multiplicity = 1:

       Center              X                  Y                   Z               Mass
    ------------   -----------------  -----------------  -----------------  -----------------
         O           -1.533083008198     0.925662746938    -0.166134967555    15.994914619570
         O           -1.113593008198    -1.263298253062     0.304864032445    15.994914619570
         N            1.494902991802    -1.036068253062    -0.062305967555    14.003074004430
         C            0.688803991802     0.183620746938    -0.394313967555    12.000000000000
         C            1.244229991802     1.409056746938     0.313667032445    12.000000000000
         C           -0.778590708198    -0.108837153062    -0.038533267555    12.000000000000
         H            0.744905991802     0.306792746938    -1.479511967555     1.007825032230
         H            0.991471991802    -1.890455253062    -0.337606967555     1.007825032230
         H            1.671239991802    -1.110264253062     0.947740032445     1.007825032230
         H            2.406070991802    -1.028053253062    -0.536877967555     1.007825032230
         H            1.169919991802     1.302482746938     1.398467032445     1.007825032230
         H            0.669583991802     2.283456746938     0.008623032445     1.007825032230
         H            2.288881991802     1.566676746938     0.037443032445     1.007825032230
         H           -2.453870008198     0.655546746938     0.044752032445     1.007825032230

  Basis Set: AUG-CC-PVTZ
    Blend: AUG-CC-PVTZ
  Basis Set: (AUG-CC-PVTZ AUX)
    Blend: AUG-CC-PVTZ-JKFIT
	 Reference Energy          =    -322.3552031210654150 [Eh]
	 Singles Energy            =      -0.0000000000000000 [Eh]
	 Same-Spin Energy          =      -0.3120368114940154 [Eh]
	 Opposite-Spin Energy      =      -0.9980320841918724 [Eh]
	 Correlation Energy        =      -1.3100688956858879 [Eh]
	 Total Energy              =    -323.6652720167513166 [Eh]

	 ================> DF-SCS-MP2 Energies <==================
	-----------------------------------------------------------
	 SCS Same-Spin Scale       =       0.3333333333333333 [-]
	 SCS Opposite-Spin Scale   =       1.2000000000000000 [-]
	 SCS Same-Spin Energy      =      -0.1040122704980051 [Eh]
	 SCS Opposite-Spin Energy  =      -1.1976385010302468 [Eh]
	 SCS Correlation Energy    =      -1.3016507715282519 [Eh]
	 SCS Total Energy          =    -323.6568538925936878 [Eh]
	-----------------------------------------------------------

  Dipole Moment: [D]
     X:     5.4000      Y:    -1.0181      Z:    -0.7049     Total:     5.5402

*** Psi4 exiting successfully. Buy a developer a beer!
