                               Psi4 1.3.2 release

  ==> Input File <==

--------------------------------------------------------------------------
#psi4
#
memory 32 gb

molecule  {
1 1
  O       -1.6624030     0.8291070    -0.2765410
  O       -1.1238540    -1.2691650     0.4354900
  N        1.4473370    -1.0090820    -0.1563980
  C        0.6010380     0.2049760    -0.3963400
  C        1.1187320     1.3933860     0.3994720
  C       -0.8221020    -0.1825100    -0.0303730
  H        0.6501100     0.4122580    -1.4678430
  H        1.1831424    -1.6595898    -0.5940084
  H        1.4281670    -1.2902280     0.8311830
  H        2.4275310    -0.8373030    -0.4139920
  H        1.0757850     1.1947520     1.4730540
  H        0.4939250     2.2572030     0.1746130
  H        2.1464930     1.6243000     0.1133420
  H       -2.5686030     0.5447890    -0.0239170
units angstrom
no_reorient  #important for SAPT in psi4, default
symmetry c1  #important for SAPT in psi4, default
}

set PROPERTIES_ORIGIN ["COM"]
properties('MP2/aug-cc-pvtz', properties = ['dipole'])
--------------------------------------------------------------------------

    Molecular point group: c1
  Charge       = 1
  Multiplicity = 1
  Basis Set: AUG-CC-PVTZ
    Blend: AUG-CC-PVTZ
  Basis Set: (AUG-CC-PVTZ AUX)
    Blend: AUG-CC-PVTZ-JKFIT

    Orbital Energies [Eh]
    ---------------------

    Doubly Occupied:

       1A    -20.788006     2A    -20.735706     3A    -15.886810
       4A    -11.577695     5A    -11.512086     6A    -11.418280
       7A     -1.640874     8A     -1.566858     9A     -1.535836
      10A     -1.267871    11A     -1.110400    12A     -1.032998
      13A     -1.013487    14A     -0.985176    15A     -0.888963
      16A     -0.863128    17A     -0.851436    18A     -0.814758
      19A     -0.773323    20A     -0.741390    21A     -0.736150
      22A     -0.718815    23A     -0.657411    24A     -0.637935

  @DF-RHF Final Energy:  -322.31721953818061

   => Energetics <=

    Nuclear Repulsion Energy =            261.4601538763176336
    One-Electron Energy =                -948.0439638269821216
    Two-Electron Energy =                 364.2665904124839358
    Total Energy =                       -322.3172195381806091
  Basis Set: (AUG-CC-PVTZ AUX)
    Blend: AUG-CC-PVTZ-RI
    Molecular point group: c1

    Geometry (in Angstrom), charge = 1, multiplicity = 1:

       Center              X                  Y                   Z               Mass
    ------------   -----------------  -----------------  -----------------  -----------------
         O           -1.588707192220     0.850371202025    -0.277857807872    15.994914619570
         O           -1.050158192220    -1.247900797975     0.434173192128    15.994914619570
         N            1.521032807780    -0.987817797975    -0.157714807872    14.003074004430
         C            0.674733807780     0.226240202025    -0.397656807872    12.000000000000
         C            1.192427807780     1.414650202025     0.398155192128    12.000000000000
         C           -0.748406192220    -0.161245797975    -0.031689807872    12.000000000000
         H            0.723805807780     0.433522202025    -1.469159807872     1.007825032230
         H            1.256838207780    -1.638325597975    -0.595325207872     1.007825032230
         H            1.501862807780    -1.268963797975     0.829866192128     1.007825032230
         H            2.501226807780    -0.816038797975    -0.415308807872     1.007825032230
         H            1.149480807780     1.216016202025     1.471737192128     1.007825032230
         H            0.567620807780     2.278467202025     0.173296192128     1.007825032230
         H            2.220188807780     1.645564202025     0.112025192128     1.007825032230
         H           -2.494907192220     0.566053202025    -0.025233807872     1.007825032230

  Basis Set: AUG-CC-PVTZ
    Blend: AUG-CC-PVTZ
  Basis Set: (AUG-CC-PVTZ AUX)
    Blend: AUG-CC-PVTZ-JKFIT
	 Reference Energy          =    -322.3172195381806091 [Eh]
	 Singles Energy            =      -0.0000000000000000 [Eh]
	 Same-Spin Energy          =      -0.3106411916495997 [Eh]
	 Opposite-Spin Energy      =      -0.9950580780418725 [Eh]
	 Correlation Energy        =      -1.3056992696914722 [Eh]
	 Total Energy              =    -323.6229188078720540 [Eh]

	 ================> DF-SCS-MP2 Energies <==================
	-----------------------------------------------------------
	 SCS Same-Spin Scale       =       0.3333333333333333 [-]
	 SCS Opposite-Spin Scale   =       1.2000000000000000 [-]
	 SCS Same-Spin Energy      =      -0.1035470638831999 [Eh]
	 SCS Opposite-Spin Energy  =      -1.1940696936502471 [Eh]
	 SCS Correlation Energy    =      -1.2976167575334470 [Eh]
	 SCS Total Energy          =    -323.6148362957140421 [Eh]
	-----------------------------------------------------------

  Dipole Moment: [D]
     X:     5.7519      Y:    -0.9859      Z:    -0.9406     Total:     5.9111

*** Psi4 exiting successfully. Buy a developer a beer!
