                               Psi4 1.3.2 release

  ==> Input File <==

--------------------------------------------------------------------------
#psi4
#
memory 32 gb

molecule  {
1 1
  O       -1.6624030     0.8291070    -0.2765410
  O       -1.1442247    -1.2629953     0.4361998
  N        1.4473370    -1.0090820    -0.1563980
  C        0.5922959     0.2287507    -0.4042016
  C        1.1187320     1.3933860     0.3994720
  C       -0.8221020    -0.1825100    -0.0303730
  H        0.6501100     0.4122580    -1.4678430
  H        1.1192750    -1.8168460    -0.6997980
  H        1.4281670    -1.2902280     0.8311830
  H        2.4275310    -0.8373030    -0.4139920
  H        1.0757850     1.1947520     1.4730540
  H        0.4939250     2.2572030     0.1746130
  H        2.1464930     1.6243000     0.1133420
  H       -2.5686030     0.5447890    -0.0239170
units angstrom
no_reorient  #important for SAPT in psi4, default
symmetry c1  #important for SAPT in psi4, default
}

set PROPERTIES_ORIGIN ["COM"]
properties('MP2/aug-cc-pvtz', properties = ['dipole'])
--------------------------------------------------------------------------

    Molecular point group: c1
  Charge       = 1
  Multiplicity = 1
  Basis Set: AUG-CC-PVTZ
    Blend: AUG-CC-PVTZ
  Basis Set: (AUG-CC-PVTZ AUX)
    Blend: AUG-CC-PVTZ-JKFIT

    Orbital Energies [Eh]
    ---------------------

    Doubly Occupied:

       1A    -20.785256     2A    -20.735028     3A    -15.898040
       4A    -11.576345     5A    -11.511992     6A    -11.416961
       7A     -1.639368     8A     -1.541591     9A     -1.510538
      10A     -1.259873    11A     -1.109097    12A     -1.010920
      13A     -0.975642    14A     -0.962117    15A     -0.886702
      16A     -0.858899    17A     -0.846918    18A     -0.812466
      19A     -0.772611    20A     -0.737972    21A     -0.735506
      22A     -0.720275    23A     -0.655939    24A     -0.637681

  @DF-RHF Final Energy:  -322.35807910520947

   => Energetics <=

    Nuclear Repulsion Energy =            260.0265242671941905
    One-Electron Energy =                -945.5737294080718129
    Two-Electron Energy =                 363.1891260356681528
    Total Energy =                       -322.3580791052094696
  Basis Set: (AUG-CC-PVTZ AUX)
    Blend: AUG-CC-PVTZ-RI
    Molecular point group: c1

    Geometry (in Angstrom), charge = 1, multiplicity = 1:

       Center              X                  Y                   Z               Mass
    ------------   -----------------  -----------------  -----------------  -----------------
         O           -1.583209471898     0.847867262997    -0.275752401659    15.994914619570
         O           -1.065031171898    -1.244235037003     0.436988398341    15.994914619570
         N            1.526530528102    -0.990321737003    -0.155609401659    14.003074004430
         C            0.671489428102     0.247510962997    -0.403413001659    12.000000000000
         C            1.197925528102     1.412146262997     0.400260598341    12.000000000000
         C           -0.742908471898    -0.163749737003    -0.029584401659    12.000000000000
         H            0.729303528102     0.431018262997    -1.467054401659     1.007825032230
         H            1.198468528102    -1.798085737003    -0.699009401659     1.007825032230
         H            1.507360528102    -1.271467737003     0.831971598341     1.007825032230
         H            2.506724528102    -0.818542737003    -0.413203401659     1.007825032230
         H            1.154978528102     1.213512262997     1.473842598341     1.007825032230
         H            0.573118528102     2.275963262997     0.175401598341     1.007825032230
         H            2.225686528102     1.643060262997     0.114130598341     1.007825032230
         H           -2.489409471898     0.563549262997    -0.023128401659     1.007825032230

  Basis Set: AUG-CC-PVTZ
    Blend: AUG-CC-PVTZ
  Basis Set: (AUG-CC-PVTZ AUX)
    Blend: AUG-CC-PVTZ-JKFIT
	 Reference Energy          =    -322.3580791052094696 [Eh]
	 Singles Energy            =      -0.0000000000000000 [Eh]
	 Same-Spin Energy          =      -0.3115673668200376 [Eh]
	 Opposite-Spin Energy      =      -0.9977876506448486 [Eh]
	 Correlation Energy        =      -1.3093550174648863 [Eh]
	 Total Energy              =    -323.6674341226743650 [Eh]

	 ================> DF-SCS-MP2 Energies <==================
	-----------------------------------------------------------
	 SCS Same-Spin Scale       =       0.3333333333333333 [-]
	 SCS Opposite-Spin Scale   =       1.2000000000000000 [-]
	 SCS Same-Spin Energy      =      -0.1038557889400125 [Eh]
	 SCS Opposite-Spin Energy  =      -1.1973451807738182 [Eh]
	 SCS Correlation Energy    =      -1.3012009697138307 [Eh]
	 SCS Total Energy          =    -323.6592800749232879 [Eh]
	-----------------------------------------------------------

  Dipole Moment: [D]
     X:     5.7228      Y:    -1.1907      Z:    -1.0863     Total:     5.9454

*** Psi4 exiting successfully. Buy a developer a beer!
