                               Psi4 1.3.2 release

  ==> Input File <==

--------------------------------------------------------------------------
#psi4
#
memory 32 gb

molecule  {
1 1
  O       -1.6624030     0.8291070    -0.2765410
  O       -1.1238540    -1.2691650     0.4354900
  N        1.4473370    -1.0090820    -0.1563980
  C        0.6010380     0.2049760    -0.3963400
  C        1.1187320     1.3933860     0.3994720
  C       -0.8257096    -0.1810016    -0.0430450
  H        0.6408101     0.4103033    -1.4686046
  H        1.1192750    -1.8168460    -0.6997980
  H        1.4281670    -1.2902280     0.8311830
  H        2.4275310    -0.8373030    -0.4139920
  H        1.0757850     1.1947520     1.4730540
  H        0.4939250     2.2572030     0.1746130
  H        2.1464930     1.6243000     0.1133420
  H       -2.5686030     0.5447890    -0.0239170
units angstrom
no_reorient  #important for SAPT in psi4, default
symmetry c1  #important for SAPT in psi4, default
}

set PROPERTIES_ORIGIN ["COM"]
properties('MP2/aug-cc-pvtz', properties = ['dipole'])
--------------------------------------------------------------------------

    Molecular point group: c1
  Charge       = 1
  Multiplicity = 1
  Basis Set: AUG-CC-PVTZ
    Blend: AUG-CC-PVTZ
  Basis Set: (AUG-CC-PVTZ AUX)
    Blend: AUG-CC-PVTZ-JKFIT

    Orbital Energies [Eh]
    ---------------------

    Doubly Occupied:

       1A    -20.788526     2A    -20.733079     3A    -15.900432
       4A    -11.576329     5A    -11.509242     6A    -11.416633
       7A     -1.640271     8A     -1.543098     9A     -1.514509
      10A     -1.255941    11A     -1.108267    12A     -1.013350
      13A     -0.979473    14A     -0.965576    15A     -0.886874
      16A     -0.860233    17A     -0.848291    18A     -0.811975
      19A     -0.771182    20A     -0.736738    21A     -0.733871
      22A     -0.716612    23A     -0.654959    24A     -0.635825

  @DF-RHF Final Energy:  -322.35851714735327

   => Energetics <=

    Nuclear Repulsion Energy =            260.2325004463494338
    One-Electron Energy =                -945.9794639599100492
    Two-Electron Energy =                 363.3884463662072903
    Total Energy =                       -322.3585171473532682
  Basis Set: (AUG-CC-PVTZ AUX)
    Blend: AUG-CC-PVTZ-RI
    Molecular point group: c1

    Geometry (in Angstrom), charge = 1, multiplicity = 1:

       Center              X                  Y                   Z               Mass
    ------------   -----------------  -----------------  -----------------  -----------------
         O           -1.587407648805     0.851951959723    -0.274976818300    15.994914619570
         O           -1.048858648805    -1.246320040277     0.437054181700    15.994914619570
         N            1.522332351195    -0.986237040277    -0.154833818300    14.003074004430
         C            0.676033351195     0.227820959723    -0.394775818300    12.000000000000
         C            1.193727351195     1.416230959723     0.401036181700    12.000000000000
         C           -0.750714248805    -0.158156640277    -0.041480818300    12.000000000000
         H            0.715805451195     0.433148259723    -1.467040418300     1.007825032230
         H            1.194270351195    -1.794001040277    -0.698233818300     1.007825032230
         H            1.503162351195    -1.267383040277     0.832747181700     1.007825032230
         H            2.502526351195    -0.814458040277    -0.412427818300     1.007825032230
         H            1.150780351195     1.217596959723     1.474618181700     1.007825032230
         H            0.568920351195     2.280047959723     0.176177181700     1.007825032230
         H            2.221488351195     1.647144959723     0.114906181700     1.007825032230
         H           -2.493607648805     0.567633959723    -0.022352818300     1.007825032230

  Basis Set: AUG-CC-PVTZ
    Blend: AUG-CC-PVTZ
  Basis Set: (AUG-CC-PVTZ AUX)
    Blend: AUG-CC-PVTZ-JKFIT
	 Reference Energy          =    -322.3585171473532682 [Eh]
	 Singles Energy            =      -0.0000000000000000 [Eh]
	 Same-Spin Energy          =      -0.3116782217690049 [Eh]
	 Opposite-Spin Energy      =      -0.9977396478805873 [Eh]
	 Correlation Energy        =      -1.3094178696495922 [Eh]
	 Total Energy              =    -323.6679350170028329 [Eh]

	 ================> DF-SCS-MP2 Energies <==================
	-----------------------------------------------------------
	 SCS Same-Spin Scale       =       0.3333333333333333 [-]
	 SCS Opposite-Spin Scale   =       1.2000000000000000 [-]
	 SCS Same-Spin Energy      =      -0.1038927405896683 [Eh]
	 SCS Opposite-Spin Energy  =      -1.1972875774567047 [Eh]
	 SCS Correlation Energy    =      -1.3011803180463730 [Eh]
	 SCS Total Energy          =    -323.6596974653996313 [Eh]
	-----------------------------------------------------------

  Dipole Moment: [D]
     X:     5.6613      Y:    -1.1808      Z:    -1.1044     Total:     5.8876

*** Psi4 exiting successfully. Buy a developer a beer!
