                               Psi4 1.4a3.dev225

  ==> Input File <==

--------------------------------------------------------------------------
#psi4
#
memory 32 gb

molecule  {
1 1
  O       -1.6123010     0.9094490    -0.1675920
  O       -1.1928110    -1.2795120     0.3034070
  N        1.4156850    -1.0522820    -0.0637630
  C        0.6095860     0.1674070    -0.3957710
  C        1.1650120     1.3928430     0.3122100
  C       -0.8284910    -0.1652490    -0.0350320
  H        0.6656880     0.2905790    -1.4809690
  H        0.9024708    -1.9232723    -0.3444139
  H        1.5920220    -1.1264780     0.9462830
  H        2.3268530    -1.0442670    -0.5383350
  H        1.0907020     1.2862690     1.3970100
  H        0.5903660     2.2672430     0.0071660
  H        2.2096640     1.5504630     0.0359860
  H       -2.5330880     0.6393330     0.0432950
units angstrom
no_reorient  #important for SAPT in psi4, default
symmetry c1  #important for SAPT in psi4, default
}

set PROPERTIES_ORIGIN ["COM"]
properties('MP2/aug-cc-pvtz', properties = ['dipole'])
--------------------------------------------------------------------------

    Molecular point group: c1
  Charge       = 1
  Multiplicity = 1
  Basis Set: AUG-CC-PVTZ
    Blend: AUG-CC-PVTZ
  Basis Set: (AUG-CC-PVTZ AUX)
    Blend: AUG-CC-PVTZ-JKFIT

    Orbital Energies [Eh]
    ---------------------

    Doubly Occupied:

       1A    -20.788242     2A    -20.735694     3A    -15.899504
       4A    -11.577121     5A    -11.509153     6A    -11.415532
       7A     -1.641195     8A     -1.545397     9A     -1.511881
      10A     -1.254210    11A     -1.107756    12A     -1.013198
      13A     -0.978170    14A     -0.958258    15A     -0.886966
      16A     -0.858593    17A     -0.852661    18A     -0.807567
      19A     -0.772959    20A     -0.736318    21A     -0.733905
      22A     -0.716356    23A     -0.657941    24A     -0.638238

  @DF-RHF Final Energy:  -322.35801717937807

   => Energetics <=

    Nuclear Repulsion Energy =            260.3028430578157781
    One-Electron Energy =                -946.1280911288337165
    Two-Electron Energy =                 363.4672308916399288
    Total Energy =                       -322.3580171793780664
  Basis Set: (AUG-CC-PVTZ AUX)
    Blend: AUG-CC-PVTZ-RI
    Molecular point group: c1

    Geometry (in Angstrom), charge = 1, multiplicity = 1:

       Center              X                  Y                   Z               Mass
    ------------   -----------------  -----------------  -----------------  -----------------
         O           -1.536880140331     0.931205000347    -0.166735795208    15.994914619570
         O           -1.117390140331    -1.257755999653     0.304263204792    15.994914619570
         N            1.491105859669    -1.030525999653    -0.062906795208    14.003074004430
         C            0.685006859669     0.189163000347    -0.394914795208    12.000000000000
         C            1.240432859669     1.414599000347     0.313066204792    12.000000000000
         C           -0.753070140331    -0.143492999653    -0.034175795208    12.000000000000
         H            0.741108859669     0.312335000347    -1.480112795208     1.007825032230
         H            0.977891659669    -1.901516299653    -0.343557695208     1.007825032230
         H            1.667442859669    -1.104721999653     0.947139204792     1.007825032230
         H            2.402273859669    -1.022510999653    -0.537478795208     1.007825032230
         H            1.166122859669     1.308025000347     1.397866204792     1.007825032230
         H            0.665786859669     2.288999000347     0.008022204792     1.007825032230
         H            2.285084859669     1.572219000347     0.036842204792     1.007825032230
         H           -2.457667140331     0.661089000347     0.044151204792     1.007825032230

  Basis Set: AUG-CC-PVTZ
    Blend: AUG-CC-PVTZ
  Basis Set: (AUG-CC-PVTZ AUX)
    Blend: AUG-CC-PVTZ-JKFIT
	 Reference Energy          =    -322.3580171793780664 [Eh]
	 Singles Energy            =      -0.0000000000000000 [Eh]
	 Same-Spin Energy          =      -0.3119014321169719 [Eh]
	 Opposite-Spin Energy      =      -0.9981760905103669 [Eh]
	 Correlation Energy        =      -1.3100775226273389 [Eh]
	 Total Energy              =    -323.6680947020054191 [Eh]

	 ================> DF-SCS-MP2 Energies <==================
	-----------------------------------------------------------
	 SCS Same-Spin Scale       =       0.3333333333333333 [-]
	 SCS Opposite-Spin Scale   =       1.2000000000000000 [-]
	 SCS Same-Spin Energy      =      -0.1039671440389906 [Eh]
	 SCS Opposite-Spin Energy  =      -1.1978113086124402 [Eh]
	 SCS Correlation Energy    =      -1.3017784526514309 [Eh]
	 SCS Total Energy          =    -323.6597956320294998 [Eh]
	-----------------------------------------------------------

  Dipole Moment: [D]
     X:     5.6030      Y:    -1.3413      Z:    -0.6649     Total:     5.7995

*** Psi4 exiting successfully. Buy a developer a beer!
