                               Psi4 1.3.2 release

  ==> Input File <==

--------------------------------------------------------------------------
#psi4
#
memory 32 gb

molecule  {
1 1
  O       -1.6624030     0.8291070    -0.2765410
  O       -1.1238540    -1.2691650     0.4354900
  N        1.4473370    -1.0090820    -0.1563980
  C        0.6010380     0.2049760    -0.3963400
  C        1.1187320     1.3933860     0.3994720
  C       -0.8043940    -0.1694230    -0.0381467
  H        0.6501100     0.4122580    -1.4678430
  H        1.1192750    -1.8168460    -0.6997980
  H        1.4281670    -1.2902280     0.8311830
  H        2.4275310    -0.8373030    -0.4139920
  H        1.0757850     1.1947520     1.4730540
  H        0.4939250     2.2572030     0.1746130
  H        2.1464930     1.6243000     0.1133420
  H       -2.5745939     0.5601231    -0.0287317
units angstrom
no_reorient  #important for SAPT in psi4, default
symmetry c1  #important for SAPT in psi4, default
}

set PROPERTIES_ORIGIN ["COM"]
properties('MP2/aug-cc-pvtz', properties = ['dipole'])
--------------------------------------------------------------------------

    Molecular point group: c1
  Charge       = 1
  Multiplicity = 1
  Basis Set: AUG-CC-PVTZ
    Blend: AUG-CC-PVTZ
  Basis Set: (AUG-CC-PVTZ AUX)
    Blend: AUG-CC-PVTZ-JKFIT

    Orbital Energies [Eh]
    ---------------------

    Doubly Occupied:

       1A    -20.786606     2A    -20.731835     3A    -15.901665
       4A    -11.577681     5A    -11.510911     6A    -11.418137
       7A     -1.634606     8A     -1.537955     9A     -1.512328
      10A     -1.260980    11A     -1.111936    12A     -1.015188
      13A     -0.981201    14A     -0.966672    15A     -0.884576
      16A     -0.861618    17A     -0.847712    18A     -0.809691
      19A     -0.769345    20A     -0.738083    21A     -0.732222
      22A     -0.717484    23A     -0.650104    24A     -0.636541

  @DF-RHF Final Energy:  -322.35581053844408

   => Energetics <=

    Nuclear Repulsion Energy =            260.2387946150448101
    One-Electron Energy =                -945.9990623559870073
    Two-Electron Energy =                 363.4044572024981790
    Total Energy =                       -322.3558105384440751
  Basis Set: (AUG-CC-PVTZ AUX)
    Blend: AUG-CC-PVTZ-RI
    Molecular point group: c1

    Geometry (in Angstrom), charge = 1, multiplicity = 1:

       Center              X                  Y                   Z               Mass
    ------------   -----------------  -----------------  -----------------  -----------------
         O           -1.590285008689     0.850215616253    -0.275584163573    15.994914619570
         O           -1.051736008689    -1.248056383747     0.436446836427    15.994914619570
         N            1.519454991311    -0.987973383747    -0.155441163573    14.003074004430
         C            0.673155991311     0.226084616253    -0.395383163573    12.000000000000
         C            1.190849991311     1.414494616253     0.400428836427    12.000000000000
         C           -0.732276008689    -0.148314383747    -0.037189863573    12.000000000000
         H            0.722227991311     0.433366616253    -1.466886163573     1.007825032230
         H            1.191392991311    -1.795737383747    -0.698841163573     1.007825032230
         H            1.500284991311    -1.269119383747     0.832139836427     1.007825032230
         H            2.499648991311    -0.816194383747    -0.413035163573     1.007825032230
         H            1.147902991311     1.215860616253     1.474010836427     1.007825032230
         H            0.566042991311     2.278311616253     0.175569836427     1.007825032230
         H            2.218610991311     1.645408616253     0.114298836427     1.007825032230
         H           -2.502475908689     0.581231716253    -0.027774863573     1.007825032230

  Basis Set: AUG-CC-PVTZ
    Blend: AUG-CC-PVTZ
  Basis Set: (AUG-CC-PVTZ AUX)
    Blend: AUG-CC-PVTZ-JKFIT
	 Reference Energy          =    -322.3558105384440751 [Eh]
	 Singles Energy            =      -0.0000000000000000 [Eh]
	 Same-Spin Energy          =      -0.3121009592765593 [Eh]
	 Opposite-Spin Energy      =      -0.9986090544271871 [Eh]
	 Correlation Energy        =      -1.3107100137037464 [Eh]
	 Total Energy              =    -323.6665205521478015 [Eh]

	 ================> DF-SCS-MP2 Energies <==================
	-----------------------------------------------------------
	 SCS Same-Spin Scale       =       0.3333333333333333 [-]
	 SCS Opposite-Spin Scale   =       1.2000000000000000 [-]
	 SCS Same-Spin Energy      =      -0.1040336530921864 [Eh]
	 SCS Opposite-Spin Energy  =      -1.1983308653126243 [Eh]
	 SCS Correlation Energy    =      -1.3023645184048107 [Eh]
	 SCS Total Energy          =    -323.6581750568489042 [Eh]
	-----------------------------------------------------------

  Dipole Moment: [D]
     X:     5.7446      Y:    -1.1252      Z:    -1.1239     Total:     5.9607

*** Psi4 exiting successfully. Buy a developer a beer!
