                               Psi4 1.4a3.dev225

  ==> Input File <==

--------------------------------------------------------------------------
#psi4
#
memory 32 gb

molecule  {
1 1
  O       -1.6123010     0.9094490    -0.1675920
  O       -1.1928110    -1.2795120     0.3034070
  N        1.4156850    -1.0522820    -0.0637630
  C        0.6095860     0.1674070    -0.3957710
  C        1.1832785     1.4331444     0.3354937
  C       -0.8284910    -0.1652490    -0.0350320
  H        0.6656880     0.2905790    -1.4809690
  H        0.9122540    -1.9066690    -0.3390640
  H        1.5920220    -1.1264780     0.9462830
  H        2.3268530    -1.0442670    -0.5383350
  H        1.0907020     1.2862690     1.3970100
  H        0.5903660     2.2672430     0.0071660
  H        2.2096640     1.5504630     0.0359860
  H       -2.5330880     0.6393330     0.0432950
units angstrom
no_reorient  #important for SAPT in psi4, default
symmetry c1  #important for SAPT in psi4, default
}

set PROPERTIES_ORIGIN ["COM"]
properties('MP2/aug-cc-pvtz', properties = ['dipole'])
--------------------------------------------------------------------------

    Molecular point group: c1
  Charge       = 1
  Multiplicity = 1
  Basis Set: AUG-CC-PVTZ
    Blend: AUG-CC-PVTZ
  Basis Set: (AUG-CC-PVTZ AUX)
    Blend: AUG-CC-PVTZ-JKFIT

    Orbital Energies [Eh]
    ---------------------

    Doubly Occupied:

       1A    -20.787840     2A    -20.735015     3A    -15.898523
       4A    -11.576636     5A    -11.509559     6A    -11.416151
       7A     -1.640641     8A     -1.545240     9A     -1.513341
      10A     -1.247468    11A     -1.110670    12A     -1.012877
      13A     -0.978347    14A     -0.963595    15A     -0.886144
      16A     -0.857974    17A     -0.851309    18A     -0.804762
      19A     -0.774291    20A     -0.745325    21A     -0.729173
      22A     -0.717127    23A     -0.657113    24A     -0.638314

  @DF-RHF Final Energy:  -322.35732447677447

   => Energetics <=

    Nuclear Repulsion Energy =            259.6154471368842565
    One-Electron Energy =                -944.7506684293708759
    Two-Electron Energy =                 362.7778968157122108
    Total Energy =                       -322.3573244767744654
  Basis Set: (AUG-CC-PVTZ AUX)
    Blend: AUG-CC-PVTZ-RI
    Molecular point group: c1

    Geometry (in Angstrom), charge = 1, multiplicity = 1:

       Center              X                  Y                   Z               Mass
    ------------   -----------------  -----------------  -----------------  -----------------
         O           -1.539423657884     0.925648982093    -0.169898246719    15.994914619570
         O           -1.119933657884    -1.263312017907     0.301100753281    15.994914619570
         N            1.488562342116    -1.036082017907    -0.066069246719    14.003074004430
         C            0.682463342116     0.183606982093    -0.398077246719    12.000000000000
         C            1.256155842116     1.449344382093     0.333187453281    12.000000000000
         C           -0.755613657884    -0.149049017907    -0.037338246719    12.000000000000
         H            0.738565342116     0.306778982093    -1.483275246719     1.007825032230
         H            0.985131342116    -1.890469017907    -0.341370246719     1.007825032230
         H            1.664899342116    -1.110278017907     0.943976753281     1.007825032230
         H            2.399730342116    -1.028067017907    -0.540641246719     1.007825032230
         H            1.163579342116     1.302468982093     1.394703753281     1.007825032230
         H            0.663243342116     2.283442982093     0.004859753281     1.007825032230
         H            2.282541342116     1.566662982093     0.033679753281     1.007825032230
         H           -2.460210657884     0.655532982093     0.040988753281     1.007825032230

  Basis Set: AUG-CC-PVTZ
    Blend: AUG-CC-PVTZ
  Basis Set: (AUG-CC-PVTZ AUX)
    Blend: AUG-CC-PVTZ-JKFIT
	 Reference Energy          =    -322.3573244767744654 [Eh]
	 Singles Energy            =      -0.0000000000000000 [Eh]
	 Same-Spin Energy          =      -0.3113969009188787 [Eh]
	 Opposite-Spin Energy      =      -0.9975613364243903 [Eh]
	 Correlation Energy        =      -1.3089582373432691 [Eh]
	 Total Energy              =    -323.6662827141177559 [Eh]

	 ================> DF-SCS-MP2 Energies <==================
	-----------------------------------------------------------
	 SCS Same-Spin Scale       =       0.3333333333333333 [-]
	 SCS Opposite-Spin Scale   =       1.2000000000000000 [-]
	 SCS Same-Spin Energy      =      -0.1037989669729596 [Eh]
	 SCS Opposite-Spin Energy  =      -1.1970736037092682 [Eh]
	 SCS Correlation Energy    =      -1.3008725706822277 [Eh]
	 SCS Total Energy          =    -323.6581970474566674 [Eh]
	-----------------------------------------------------------

  Dipole Moment: [D]
     X:     5.6340      Y:    -1.3411      Z:    -0.6617     Total:     5.8291

*** Psi4 exiting successfully. Buy a developer a beer!
