                               Psi4 1.3.2 release

  ==> Input File <==

--------------------------------------------------------------------------
#psi4
#
memory 32 gb

molecule  {
1 1
  O       -1.6534432     0.8355577    -0.2803399
  O       -1.1238540    -1.2691650     0.4354900
  N        1.4473370    -1.0090820    -0.1563980
  C        0.5967449     0.2169376    -0.4001293
  C        1.1187320     1.3933860     0.3994720
  C       -0.8221020    -0.1825100    -0.0303730
  H        0.6501100     0.4122580    -1.4678430
  H        1.1192750    -1.8168460    -0.6997980
  H        1.4281670    -1.2902280     0.8311830
  H        2.4275310    -0.8373030    -0.4139920
  H        1.0757850     1.1947520     1.4730540
  H        0.4939250     2.2572030     0.1746130
  H        2.1464930     1.6243000     0.1133420
  H       -2.5686030     0.5447890    -0.0239170
units angstrom
no_reorient  #important for SAPT in psi4, default
symmetry c1  #important for SAPT in psi4, default
}

set PROPERTIES_ORIGIN ["COM"]
properties('MP2/aug-cc-pvtz', properties = ['dipole'])
--------------------------------------------------------------------------

    Molecular point group: c1
  Charge       = 1
  Multiplicity = 1
  Basis Set: AUG-CC-PVTZ
    Blend: AUG-CC-PVTZ
  Basis Set: (AUG-CC-PVTZ AUX)
    Blend: AUG-CC-PVTZ-JKFIT

    Orbital Energies [Eh]
    ---------------------

    Doubly Occupied:

       1A    -20.788423     2A    -20.735450     3A    -15.898477
       4A    -11.576406     5A    -11.509394     6A    -11.416157
       7A     -1.638595     8A     -1.543617     9A     -1.512408
      10A     -1.257048    11A     -1.107457    12A     -1.009898
      13A     -0.976255    14A     -0.963204    15A     -0.887322
      16A     -0.858307    17A     -0.846997    18A     -0.812116
      19A     -0.772099    20A     -0.736381    21A     -0.735077
      22A     -0.718245    23A     -0.657252    24A     -0.637206

  @DF-RHF Final Energy:  -322.35784153071006

   => Energetics <=

    Nuclear Repulsion Energy =            260.2059172446703883
    One-Electron Energy =                -945.9399366257646307
    Two-Electron Energy =                 363.3761778503841242
    Total Energy =                       -322.3578415307100613
  Basis Set: (AUG-CC-PVTZ AUX)
    Blend: AUG-CC-PVTZ-RI
    Molecular point group: c1

    Geometry (in Angstrom), charge = 1, multiplicity = 1:

       Center              X                  Y                   Z               Mass
    ------------   -----------------  -----------------  -----------------  -----------------
         O           -1.580051947416     0.855842163336    -0.279293142295    15.994914619570
         O           -1.050462747416    -1.248880536664     0.436536757705    15.994914619570
         N            1.520728252584    -0.988797536664    -0.155351242295    14.003074004430
         C            0.670136152584     0.237222063336    -0.399082542295    12.000000000000
         C            1.192123252584     1.413670463336     0.400518757705    12.000000000000
         C           -0.748710747416    -0.162225536664    -0.029326242295    12.000000000000
         H            0.723501252584     0.432542463336    -1.466796242295     1.007825032230
         H            1.192666252584    -1.796561536664    -0.698751242295     1.007825032230
         H            1.501558252584    -1.269943536664     0.832229757705     1.007825032230
         H            2.500922252584    -0.817018536664    -0.412945242295     1.007825032230
         H            1.149176252584     1.215036463336     1.474100757705     1.007825032230
         H            0.567316252584     2.277487463336     0.175659757705     1.007825032230
         H            2.219884252584     1.644584463336     0.114388757705     1.007825032230
         H           -2.495211747416     0.565073463336    -0.022870242295     1.007825032230

  Basis Set: AUG-CC-PVTZ
    Blend: AUG-CC-PVTZ
  Basis Set: (AUG-CC-PVTZ AUX)
    Blend: AUG-CC-PVTZ-JKFIT
	 Reference Energy          =    -322.3578415307100613 [Eh]
	 Singles Energy            =      -0.0000000000000000 [Eh]
	 Same-Spin Energy          =      -0.3118119803863416 [Eh]
	 Opposite-Spin Energy      =      -0.9981816045566150 [Eh]
	 Correlation Energy        =      -1.3099935849429567 [Eh]
	 Total Energy              =    -323.6678351156530198 [Eh]

	 ================> DF-SCS-MP2 Energies <==================
	-----------------------------------------------------------
	 SCS Same-Spin Scale       =       0.3333333333333333 [-]
	 SCS Opposite-Spin Scale   =       1.2000000000000000 [-]
	 SCS Same-Spin Energy      =      -0.1039373267954472 [Eh]
	 SCS Opposite-Spin Energy  =      -1.1978179254679380 [Eh]
	 SCS Correlation Energy    =      -1.3017552522633853 [Eh]
	 SCS Total Energy          =    -323.6595967829734377 [Eh]
	-----------------------------------------------------------

  Dipole Moment: [D]
     X:     5.6260      Y:    -1.2051      Z:    -1.0784     Total:     5.8538

*** Psi4 exiting successfully. Buy a developer a beer!
