                               Psi4 1.4a3.dev225

  ==> Input File <==

--------------------------------------------------------------------------
#psi4
#
memory 32 gb

molecule  {
1 1
  O       -1.6123010     0.9094490    -0.1675920
  O       -1.1928110    -1.2795120     0.3034070
  N        1.4156850    -1.0522820    -0.0637630
  C        0.6095860     0.1674070    -0.3957710
  C        1.1467455     1.3525416     0.2889263
  C       -0.8284910    -0.1652490    -0.0350320
  H        0.6656880     0.2905790    -1.4809690
  H        0.9122540    -1.9066690    -0.3390640
  H        1.5920220    -1.1264780     0.9462830
  H        2.3268530    -1.0442670    -0.5383350
  H        1.0907020     1.2862690     1.3970100
  H        0.5903660     2.2672430     0.0071660
  H        2.2096640     1.5504630     0.0359860
  H       -2.5330880     0.6393330     0.0432950
units angstrom
no_reorient  #important for SAPT in psi4, default
symmetry c1  #important for SAPT in psi4, default
}

set PROPERTIES_ORIGIN ["COM"]
properties('MP2/aug-cc-pvtz', properties = ['dipole'])
--------------------------------------------------------------------------

    Molecular point group: c1
  Charge       = 1
  Multiplicity = 1
  Basis Set: AUG-CC-PVTZ
    Blend: AUG-CC-PVTZ
  Basis Set: (AUG-CC-PVTZ AUX)
    Blend: AUG-CC-PVTZ-JKFIT

    Orbital Energies [Eh]
    ---------------------

    Doubly Occupied:

       1A    -20.788639     2A    -20.736256     3A    -15.898702
       4A    -11.577635     5A    -11.508752     6A    -11.416139
       7A     -1.641798     8A     -1.546428     9A     -1.515682
      10A     -1.263911    11A     -1.105507    12A     -1.014451
      13A     -0.979667    14A     -0.964124    15A     -0.888055
      16A     -0.860097    17A     -0.854995    18A     -0.812179
      19A     -0.772990    20A     -0.745740    21A     -0.727285
      22A     -0.707714    23A     -0.658508    24A     -0.637382

  @DF-RHF Final Energy:  -322.35580283825828

   => Energetics <=

    Nuclear Repulsion Energy =            261.2070901660982258
    One-Electron Energy =                -947.8805128274972276
    Two-Electron Energy =                 364.3176198231406602
    Total Energy =                       -322.3558028382582847
  Basis Set: (AUG-CC-PVTZ AUX)
    Blend: AUG-CC-PVTZ-RI
    Molecular point group: c1

    Geometry (in Angstrom), charge = 1, multiplicity = 1:

       Center              X                  Y                   Z               Mass
    ------------   -----------------  -----------------  -----------------  -----------------
         O           -1.534555593380     0.936389398419    -0.163693086809    15.994914619570
         O           -1.115065593380    -1.252571601581     0.307305913191    15.994914619570
         N            1.493430406620    -1.025341601581    -0.059864086809    14.003074004430
         C            0.687331406620     0.194347398419    -0.391872086809    12.000000000000
         C            1.224490906620     1.379481998419     0.292825213191    12.000000000000
         C           -0.750745593380    -0.138308601581    -0.031133086809    12.000000000000
         H            0.743433406620     0.317519398419    -1.477070086809     1.007825032230
         H            0.989999406620    -1.879728601581    -0.335165086809     1.007825032230
         H            1.669767406620    -1.099537601581     0.950181913191     1.007825032230
         H            2.404598406620    -1.017326601581    -0.534436086809     1.007825032230
         H            1.168447406620     1.313209398419     1.400908913191     1.007825032230
         H            0.668111406620     2.294183398419     0.011064913191     1.007825032230
         H            2.287409406620     1.577403398419     0.039884913191     1.007825032230
         H           -2.455342593380     0.666273398419     0.047193913191     1.007825032230

  Basis Set: AUG-CC-PVTZ
    Blend: AUG-CC-PVTZ
  Basis Set: (AUG-CC-PVTZ AUX)
    Blend: AUG-CC-PVTZ-JKFIT
	 Reference Energy          =    -322.3558028382582847 [Eh]
	 Singles Energy            =      -0.0000000000000000 [Eh]
	 Same-Spin Energy          =      -0.3123053428579037 [Eh]
	 Opposite-Spin Energy      =      -0.9984007912896908 [Eh]
	 Correlation Energy        =      -1.3107061341475945 [Eh]
	 Total Energy              =    -323.6665089724058930 [Eh]

	 ================> DF-SCS-MP2 Energies <==================
	-----------------------------------------------------------
	 SCS Same-Spin Scale       =       0.3333333333333333 [-]
	 SCS Opposite-Spin Scale   =       1.2000000000000000 [-]
	 SCS Same-Spin Energy      =      -0.1041017809526346 [Eh]
	 SCS Opposite-Spin Energy  =      -1.1980809495476290 [Eh]
	 SCS Correlation Energy    =      -1.3021827305002636 [Eh]
	 SCS Total Energy          =    -323.6579855687585336 [Eh]
	-----------------------------------------------------------

  Dipole Moment: [D]
     X:     5.6102      Y:    -1.2791      Z:    -0.6492     Total:     5.7907

*** Psi4 exiting successfully. Buy a developer a beer!
