                               Psi4 1.3.2 release

  ==> Input File <==

--------------------------------------------------------------------------
#psi4
#
memory 32 gb

molecule  {
1 1
  O       -1.6624030     0.8291070    -0.2765410
  O       -1.1238540    -1.2691650     0.4354900
  N        1.4473370    -1.0090820    -0.1563980
  C        0.7139348     0.0430199    -0.3643316
  C        1.1187320     1.3933860     0.3994720
  C       -0.8221020    -0.1825100    -0.0303730
  H        0.6501100     0.4122580    -1.4678430
  H        1.1192750    -1.8168460    -0.6997980
  H        1.4281670    -1.2902280     0.8311830
  H        2.4275310    -0.8373030    -0.4139920
  H        1.0757850     1.1947520     1.4730540
  H        0.4939250     2.2572030     0.1746130
  H        2.1464930     1.6243000     0.1133420
  H       -2.5686030     0.5447890    -0.0239170
units angstrom
no_reorient  #important for SAPT in psi4, default
symmetry c1  #important for SAPT in psi4, default
}

set PROPERTIES_ORIGIN ["COM"]
properties('MP2/aug-cc-pvtz', properties = ['dipole'])
--------------------------------------------------------------------------

    Molecular point group: c1
  Charge       = 1
  Multiplicity = 1
  Basis Set: AUG-CC-PVTZ
    Blend: AUG-CC-PVTZ
  Basis Set: (AUG-CC-PVTZ AUX)
    Blend: AUG-CC-PVTZ-JKFIT

    Orbital Energies [Eh]
    ---------------------

    Doubly Occupied:

       1A    -20.787371     2A    -20.727047     3A    -15.916084
       4A    -11.574558     5A    -11.502269     6A    -11.418196
       7A     -1.636607     8A     -1.589597     9A     -1.532478
      10A     -1.230239    11A     -1.103279    12A     -1.038733
      13A     -1.012790    14A     -0.995719    15A     -0.897196
      16A     -0.872201    17A     -0.831679    18A     -0.802713
      19A     -0.762219    20A     -0.741419    21A     -0.715688
      22A     -0.682456    23A     -0.651485    24A     -0.618681

  @DF-RHF Final Energy:  -322.31131158251361

   => Energetics <=

    Nuclear Repulsion Energy =            260.8442216604767054
    One-Electron Energy =                -947.0296610330436806
    Two-Electron Energy =                 363.8741277900533646
    Total Energy =                       -322.3113115825136106
  Basis Set: (AUG-CC-PVTZ AUX)
    Blend: AUG-CC-PVTZ-RI
    Molecular point group: c1

    Geometry (in Angstrom), charge = 1, multiplicity = 1:

       Center              X                  Y                   Z               Mass
    ------------   -----------------  -----------------  -----------------  -----------------
         O           -1.603036071470     0.873711918062    -0.280939056460    15.994914619570
         O           -1.064487071470    -1.224560081938     0.431091943540    15.994914619570
         N            1.506703928530    -0.964477081938    -0.160796056460    14.003074004430
         C            0.773301728530     0.087624818062    -0.368729656460    12.000000000000
         C            1.178098928530     1.437990918062     0.395073943540    12.000000000000
         C           -0.762735071470    -0.137905081938    -0.034771056460    12.000000000000
         H            0.709476928530     0.456862918062    -1.472241056460     1.007825032230
         H            1.178641928530    -1.772241081938    -0.704196056460     1.007825032230
         H            1.487533928530    -1.245623081938     0.826784943540     1.007825032230
         H            2.486897928530    -0.792698081938    -0.418390056460     1.007825032230
         H            1.135151928530     1.239356918062     1.468655943540     1.007825032230
         H            0.553291928530     2.301807918062     0.170214943540     1.007825032230
         H            2.205859928530     1.668904918062     0.108943943540     1.007825032230
         H           -2.509236071470     0.589393918062    -0.028315056460     1.007825032230

  Basis Set: AUG-CC-PVTZ
    Blend: AUG-CC-PVTZ
  Basis Set: (AUG-CC-PVTZ AUX)
    Blend: AUG-CC-PVTZ-JKFIT
	 Reference Energy          =    -322.3113115825136106 [Eh]
	 Singles Energy            =      -0.0000000000000000 [Eh]
	 Same-Spin Energy          =      -0.3131444380711140 [Eh]
	 Opposite-Spin Energy      =      -0.9988461442502159 [Eh]
	 Correlation Energy        =      -1.3119905823213300 [Eh]
	 Total Energy              =    -323.6233021648349677 [Eh]

	 ================> DF-SCS-MP2 Energies <==================
	-----------------------------------------------------------
	 SCS Same-Spin Scale       =       0.3333333333333333 [-]
	 SCS Opposite-Spin Scale   =       1.2000000000000000 [-]
	 SCS Same-Spin Energy      =      -0.1043814793570380 [Eh]
	 SCS Opposite-Spin Energy  =      -1.1986153731002591 [Eh]
	 SCS Correlation Energy    =      -1.3029968524572970 [Eh]
	 SCS Total Energy          =    -323.6143084349708943 [Eh]
	-----------------------------------------------------------

  Dipole Moment: [D]
     X:     5.8458      Y:    -1.4398      Z:    -1.0924     Total:     6.1188

*** Psi4 exiting successfully. Buy a developer a beer!
