                               Psi4 1.3.2 release

  ==> Input File <==

--------------------------------------------------------------------------
#psi4
#
memory 32 gb

molecule  {
1 1
  O       -1.6624030     0.8291070    -0.2765410
  O       -1.1238540    -1.2691650     0.4354900
  N        1.4473370    -1.0090820    -0.1563980
  C        0.6010380     0.2049760    -0.3963400
  C        1.0506621     1.2371259     0.2948333
  C       -0.8221020    -0.1825100    -0.0303730
  H        0.6501100     0.4122580    -1.4678430
  H        1.1192750    -1.8168460    -0.6997980
  H        1.4281670    -1.2902280     0.8311830
  H        2.4275310    -0.8373030    -0.4139920
  H        1.0757850     1.1947520     1.4730540
  H        0.4939250     2.2572030     0.1746130
  H        2.1464930     1.6243000     0.1133420
  H       -2.5686030     0.5447890    -0.0239170
units angstrom
no_reorient  #important for SAPT in psi4, default
symmetry c1  #important for SAPT in psi4, default
}

set PROPERTIES_ORIGIN ["COM"]
properties('MP2/aug-cc-pvtz', properties = ['dipole'])
--------------------------------------------------------------------------

    Molecular point group: c1
  Charge       = 1
  Multiplicity = 1
  Basis Set: AUG-CC-PVTZ
    Blend: AUG-CC-PVTZ
  Basis Set: (AUG-CC-PVTZ AUX)
    Blend: AUG-CC-PVTZ-JKFIT

    Orbital Energies [Eh]
    ---------------------

    Doubly Occupied:

       1A    -20.788004     2A    -20.736180     3A    -15.899224
       4A    -11.577537     5A    -11.503004     6A    -11.421985
       7A     -1.641041     8A     -1.546274     9A     -1.520135
      10A     -1.298576    11A     -1.098412    12A     -1.014322
      13A     -0.981767    14A     -0.964430    15A     -0.891588
      16A     -0.865021    17A     -0.856888    18A     -0.834214
      19A     -0.778245    20A     -0.765176    21A     -0.700619
      22A     -0.677138    23A     -0.657915    24A     -0.627259

  @DF-RHF Final Energy:  -322.30868787818679

   => Energetics <=

    Nuclear Repulsion Energy =            263.7087063958006183
    One-Electron Energy =                -952.7448818068603487
    Two-Electron Energy =                 366.7274875328729422
    Total Energy =                       -322.3086878781867881
  Basis Set: (AUG-CC-PVTZ AUX)
    Blend: AUG-CC-PVTZ-RI
    Molecular point group: c1

    Geometry (in Angstrom), charge = 1, multiplicity = 1:

       Center              X                  Y                   Z               Mass
    ------------   -----------------  -----------------  -----------------  -----------------
         O           -1.578922049389     0.872952919474    -0.262730672339    15.994914619570
         O           -1.040373049389    -1.225319080526     0.449300327661    15.994914619570
         N            1.530817950611    -0.965236080526    -0.142587672339    14.003074004430
         C            0.684518950611     0.248821919474    -0.382529672339    12.000000000000
         C            1.134143050611     1.280971819474     0.308643627661    12.000000000000
         C           -0.738621049389    -0.138664080526    -0.016562672339    12.000000000000
         H            0.733590950611     0.456103919474    -1.454032672339     1.007825032230
         H            1.202755950611    -1.773000080526    -0.685987672339     1.007825032230
         H            1.511647950611    -1.246382080526     0.844993327661     1.007825032230
         H            2.511011950611    -0.793457080526    -0.400181672339     1.007825032230
         H            1.159265950611     1.238597919474     1.486864327661     1.007825032230
         H            0.577405950611     2.301048919474     0.188423327661     1.007825032230
         H            2.229973950611     1.668145919474     0.127152327661     1.007825032230
         H           -2.485122049389     0.588634919474    -0.010106672339     1.007825032230

  Basis Set: AUG-CC-PVTZ
    Blend: AUG-CC-PVTZ
  Basis Set: (AUG-CC-PVTZ AUX)
    Blend: AUG-CC-PVTZ-JKFIT
	 Reference Energy          =    -322.3086878781867881 [Eh]
	 Singles Energy            =      -0.0000000000000000 [Eh]
	 Same-Spin Energy          =      -0.3149994393702305 [Eh]
	 Opposite-Spin Energy      =      -1.0019935622194707 [Eh]
	 Correlation Energy        =      -1.3169930015897011 [Eh]
	 Total Energy              =    -323.6256808797764961 [Eh]

	 ================> DF-SCS-MP2 Energies <==================
	-----------------------------------------------------------
	 SCS Same-Spin Scale       =       0.3333333333333333 [-]
	 SCS Opposite-Spin Scale   =       1.2000000000000000 [-]
	 SCS Same-Spin Energy      =      -0.1049998131234102 [Eh]
	 SCS Opposite-Spin Energy  =      -1.2023922746633648 [Eh]
	 SCS Correlation Energy    =      -1.3073920877867751 [Eh]
	 SCS Total Energy          =    -323.6160799659735403 [Eh]
	-----------------------------------------------------------

  Dipole Moment: [D]
     X:     5.6372      Y:    -1.0030      Z:    -1.0150     Total:     5.8150

*** Psi4 exiting successfully. Buy a developer a beer!
