                               Psi4 1.3.2 release

  ==> Input File <==

--------------------------------------------------------------------------
#psi4
#
memory 32 gb

molecule  {
1 1
  O       -1.6624030     0.8291070    -0.2765410
  O       -1.1238540    -1.2691650     0.4354900
  N        1.4293175    -1.0040403    -0.0801697
  C        0.6010380     0.2049760    -0.3963400
  C        1.1187320     1.3933860     0.3994720
  C       -0.8221020    -0.1825100    -0.0303730
  H        0.6156046     0.4570519    -1.4592314
  H        1.1192750    -1.8168460    -0.6997980
  H        1.4281670    -1.2902280     0.8311830
  H        2.4275310    -0.8373030    -0.4139920
  H        1.0757850     1.1947520     1.4730540
  H        0.4939250     2.2572030     0.1746130
  H        2.1464930     1.6243000     0.1133420
  H       -2.5686030     0.5447890    -0.0239170
units angstrom
no_reorient  #important for SAPT in psi4, default
symmetry c1  #important for SAPT in psi4, default
}

set PROPERTIES_ORIGIN ["COM"]
properties('MP2/aug-cc-pvtz', properties = ['dipole'])
--------------------------------------------------------------------------

    Molecular point group: c1
  Charge       = 1
  Multiplicity = 1
  Basis Set: AUG-CC-PVTZ
    Blend: AUG-CC-PVTZ
  Basis Set: (AUG-CC-PVTZ AUX)
    Blend: AUG-CC-PVTZ-JKFIT

    Orbital Energies [Eh]
    ---------------------

    Doubly Occupied:

       1A    -20.786106     2A    -20.733418     3A    -15.901609
       4A    -11.574497     5A    -11.509532     6A    -11.415079
       7A     -1.638562     8A     -1.544344     9A     -1.515750
      10A     -1.256952    11A     -1.107082    12A     -1.022099
      13A     -0.983023    14A     -0.946547    15A     -0.892739
      16A     -0.859350    17A     -0.851987    18A     -0.809996
      19A     -0.770092    20A     -0.734164    21A     -0.730989
      22A     -0.716592    23A     -0.655868    24A     -0.635673

  @DF-RHF Final Energy:  -322.34834421698963

   => Energetics <=

    Nuclear Repulsion Energy =            260.6312928642907991
    One-Electron Energy =                -946.7751741131908148
    Two-Electron Energy =                 363.7955370319103849
    Total Energy =                       -322.3483442169896307
  Basis Set: (AUG-CC-PVTZ AUX)
    Blend: AUG-CC-PVTZ-RI
    Molecular point group: c1

    Geometry (in Angstrom), charge = 1, multiplicity = 1:

       Center              X                  Y                   Z               Mass
    ------------   -----------------  -----------------  -----------------  -----------------
         O           -1.584804366199     0.850845831795    -0.288623303233    15.994914619570
         O           -1.046255366199    -1.247426168205     0.423407696767    15.994914619570
         N            1.506916133801    -0.982301468205    -0.092252003233    14.003074004430
         C            0.678636633801     0.226714831795    -0.408422303233    12.000000000000
         C            1.196330633801     1.415124831795     0.387389696767    12.000000000000
         C           -0.744503366199    -0.160771168205    -0.042455303233    12.000000000000
         H            0.693203233801     0.478790731795    -1.471313703233     1.007825032230
         H            1.196873633801    -1.795107168205    -0.711880303233     1.007825032230
         H            1.505765633801    -1.268489168205     0.819100696767     1.007825032230
         H            2.505129633801    -0.815564168205    -0.426074303233     1.007825032230
         H            1.153383633801     1.216490831795     1.460971696767     1.007825032230
         H            0.571523633801     2.278941831795     0.162530696767     1.007825032230
         H            2.224091633801     1.646038831795     0.101259696767     1.007825032230
         H           -2.491004366199     0.566527831795    -0.035999303233     1.007825032230

  Basis Set: AUG-CC-PVTZ
    Blend: AUG-CC-PVTZ
  Basis Set: (AUG-CC-PVTZ AUX)
    Blend: AUG-CC-PVTZ-JKFIT
	 Reference Energy          =    -322.3483442169896307 [Eh]
	 Singles Energy            =      -0.0000000000000000 [Eh]
	 Same-Spin Energy          =      -0.3118501051054927 [Eh]
	 Opposite-Spin Energy      =      -0.9982072467538786 [Eh]
	 Correlation Energy        =      -1.3100573518593714 [Eh]
	 Total Energy              =    -323.6584015688490013 [Eh]

	 ================> DF-SCS-MP2 Energies <==================
	-----------------------------------------------------------
	 SCS Same-Spin Scale       =       0.3333333333333333 [-]
	 SCS Opposite-Spin Scale   =       1.2000000000000000 [-]
	 SCS Same-Spin Energy      =      -0.1039500350351642 [Eh]
	 SCS Opposite-Spin Energy  =      -1.1978486961046544 [Eh]
	 SCS Correlation Energy    =      -1.3017987311398187 [Eh]
	 SCS Total Energy          =    -323.6501429481294281 [Eh]
	-----------------------------------------------------------

  Dipole Moment: [D]
     X:     5.7146      Y:    -1.2345      Z:    -1.2107     Total:     5.9705

*** Psi4 exiting successfully. Buy a developer a beer!
