                               Psi4 1.3.2 release

  ==> Input File <==

--------------------------------------------------------------------------
#psi4
#
memory 32 gb

molecule  {
1 1
  O       -1.6624030     0.8291070    -0.2765410
  O       -1.1033914    -1.2750037     0.4346383
  N        1.4473370    -1.0090820    -0.1563980
  C        0.6093466     0.1810832    -0.3883669
  C        1.1187320     1.3933860     0.3994720
  C       -0.8221020    -0.1825100    -0.0303730
  H        0.6501100     0.4122580    -1.4678430
  H        1.1192750    -1.8168460    -0.6997980
  H        1.4281670    -1.2902280     0.8311830
  H        2.4275310    -0.8373030    -0.4139920
  H        1.0757850     1.1947520     1.4730540
  H        0.4939250     2.2572030     0.1746130
  H        2.1464930     1.6243000     0.1133420
  H       -2.5686030     0.5447890    -0.0239170
units angstrom
no_reorient  #important for SAPT in psi4, default
symmetry c1  #important for SAPT in psi4, default
}

set PROPERTIES_ORIGIN ["COM"]
properties('MP2/aug-cc-pvtz', properties = ['dipole'])
--------------------------------------------------------------------------

    Molecular point group: c1
  Charge       = 1
  Multiplicity = 1
  Basis Set: AUG-CC-PVTZ
    Blend: AUG-CC-PVTZ
  Basis Set: (AUG-CC-PVTZ AUX)
    Blend: AUG-CC-PVTZ-JKFIT

    Orbital Energies [Eh]
    ---------------------

    Doubly Occupied:

       1A    -20.788596     2A    -20.733860     3A    -15.902513
       4A    -11.576000     5A    -11.506720     6A    -11.416145
       7A     -1.639083     8A     -1.547435     9A     -1.520136
      10A     -1.252089    11A     -1.106281    12A     -1.014700
      13A     -0.983081    14A     -0.969094    15A     -0.887122
      16A     -0.863236    17A     -0.846666    18A     -0.810810
      19A     -0.770894    20A     -0.736959    21A     -0.731437
      22A     -0.712164    23A     -0.657102    24A     -0.635379

  @DF-RHF Final Energy:  -322.35819337482616

   => Energetics <=

    Nuclear Repulsion Energy =            260.5123015649916738
    One-Electron Energy =                -946.5259860940863064
    Two-Electron Energy =                 363.6554911542685318
    Total Energy =                       -322.3581933748261577
  Basis Set: (AUG-CC-PVTZ AUX)
    Blend: AUG-CC-PVTZ-RI
    Molecular point group: c1

    Geometry (in Angstrom), charge = 1, multiplicity = 1:

       Center              X                  Y                   Z               Mass
    ------------   -----------------  -----------------  -----------------  -----------------
         O           -1.592733970832     0.856351845316    -0.277585053017    15.994914619570
         O           -1.033722370832    -1.247758854684     0.433594246983    15.994914619570
         N            1.517006029168    -0.981837154684    -0.157442053017    14.003074004430
         C            0.679015629168     0.208328045316    -0.389410953017    12.000000000000
         C            1.188401029168     1.420630845316     0.398427946983    12.000000000000
         C           -0.752432970832    -0.155265154684    -0.031417053017    12.000000000000
         H            0.719779029168     0.439502845316    -1.468887053017     1.007825032230
         H            1.188944029168    -1.789601154684    -0.700842053017     1.007825032230
         H            1.497836029168    -1.262983154684     0.830138946983     1.007825032230
         H            2.497200029168    -0.810058154684    -0.415036053017     1.007825032230
         H            1.145454029168     1.221996845316     1.472009946983     1.007825032230
         H            0.563594029168     2.284447845316     0.173568946983     1.007825032230
         H            2.216162029168     1.651544845316     0.112297946983     1.007825032230
         H           -2.498933970832     0.572033845316    -0.024961053017     1.007825032230

  Basis Set: AUG-CC-PVTZ
    Blend: AUG-CC-PVTZ
  Basis Set: (AUG-CC-PVTZ AUX)
    Blend: AUG-CC-PVTZ-JKFIT
	 Reference Energy          =    -322.3581933748261577 [Eh]
	 Singles Energy            =      -0.0000000000000000 [Eh]
	 Same-Spin Energy          =      -0.3116787337163275 [Eh]
	 Opposite-Spin Energy      =      -0.9975693148794177 [Eh]
	 Correlation Energy        =      -1.3092480485957452 [Eh]
	 Total Energy              =    -323.6674414234219057 [Eh]

	 ================> DF-SCS-MP2 Energies <==================
	-----------------------------------------------------------
	 SCS Same-Spin Scale       =       0.3333333333333333 [-]
	 SCS Opposite-Spin Scale   =       1.2000000000000000 [-]
	 SCS Same-Spin Energy      =      -0.1038929112387758 [Eh]
	 SCS Opposite-Spin Energy  =      -1.1970831778553013 [Eh]
	 SCS Correlation Energy    =      -1.3009760890940771 [Eh]
	 SCS Total Energy          =    -323.6591694639202501 [Eh]
	-----------------------------------------------------------

  Dipole Moment: [D]
     X:     5.6387      Y:    -1.2413      Z:    -1.0882     Total:     5.8753

*** Psi4 exiting successfully. Buy a developer a beer!
