                               Psi4 1.3.2 release

  ==> Input File <==

--------------------------------------------------------------------------
#psi4
#
memory 32 gb

molecule  {
1 1
  O       -1.6624030     0.8291070    -0.2765410
  O       -1.1238540    -1.2691650     0.4354900
  N        1.4473370    -1.0090820    -0.1563980
  C        0.5879856     0.1672047    -0.3274597
  C        1.1187320     1.3933860     0.3994720
  C       -0.8221020    -0.1825100    -0.0303730
  H        0.6501100     0.4122580    -1.4678430
  H        1.1192750    -1.8168460    -0.6997980
  H        1.4281670    -1.2902280     0.8311830
  H        2.4275310    -0.8373030    -0.4139920
  H        1.0541303     1.1431673     1.4611195
  H        0.4939250     2.2572030     0.1746130
  H        2.1464930     1.6243000     0.1133420
  H       -2.5686030     0.5447890    -0.0239170
units angstrom
no_reorient  #important for SAPT in psi4, default
symmetry c1  #important for SAPT in psi4, default
}

set PROPERTIES_ORIGIN ["COM"]
properties('MP2/aug-cc-pvtz', properties = ['dipole'])
--------------------------------------------------------------------------

    Molecular point group: c1
  Charge       = 1
  Multiplicity = 1
  Basis Set: AUG-CC-PVTZ
    Blend: AUG-CC-PVTZ
  Basis Set: (AUG-CC-PVTZ AUX)
    Blend: AUG-CC-PVTZ-JKFIT

    Orbital Energies [Eh]
    ---------------------

    Doubly Occupied:

       1A    -20.787179     2A    -20.732811     3A    -15.904897
       4A    -11.574527     5A    -11.509081     6A    -11.417657
       7A     -1.640075     8A     -1.547779     9A     -1.522406
      10A     -1.257574    11A     -1.112097    12A     -1.012644
      13A     -0.986762    14A     -0.971535    15A     -0.885487
      16A     -0.870731    17A     -0.836493    18A     -0.812526
      19A     -0.773778    20A     -0.740627    21A     -0.738314
      22A     -0.695677    23A     -0.655385    24A     -0.637392

  @DF-RHF Final Energy:  -322.35022779409928

   => Energetics <=

    Nuclear Repulsion Energy =            261.1574573107114929
    One-Electron Energy =                -947.7684995688907748
    Two-Electron Energy =                 364.2608144640799992
    Total Energy =                       -322.3502277940992826
  Basis Set: (AUG-CC-PVTZ AUX)
    Blend: AUG-CC-PVTZ-RI
    Molecular point group: c1

    Geometry (in Angstrom), charge = 1, multiplicity = 1:

       Center              X                  Y                   Z               Mass
    ------------   -----------------  -----------------  -----------------  -----------------
         O           -1.586010853809     0.857741442165    -0.285718718951    15.994914619570
         O           -1.047461853809    -1.240530557835     0.426312281049    15.994914619570
         N            1.523729146191    -0.980447557835    -0.165575718951    14.003074004430
         C            0.664377746191     0.195839142165    -0.336637418951    12.000000000000
         C            1.195124146191     1.422020442165     0.390294281049    12.000000000000
         C           -0.745709853809    -0.153875557835    -0.039550718951    12.000000000000
         H            0.726502146191     0.440892442165    -1.477020718951     1.007825032230
         H            1.195667146191    -1.788211557835    -0.708975718951     1.007825032230
         H            1.504559146191    -1.261593557835     0.822005281049     1.007825032230
         H            2.503923146191    -0.808668557835    -0.423169718951     1.007825032230
         H            1.130522446191     1.171801742165     1.451941781049     1.007825032230
         H            0.570317146191     2.285837442165     0.165435281049     1.007825032230
         H            2.222885146191     1.652934442165     0.104164281049     1.007825032230
         H           -2.492210853809     0.573423442165    -0.033094718951     1.007825032230

  Basis Set: AUG-CC-PVTZ
    Blend: AUG-CC-PVTZ
  Basis Set: (AUG-CC-PVTZ AUX)
    Blend: AUG-CC-PVTZ-JKFIT
	 Reference Energy          =    -322.3502277940992826 [Eh]
	 Singles Energy            =      -0.0000000000000000 [Eh]
	 Same-Spin Energy          =      -0.3121722048038141 [Eh]
	 Opposite-Spin Energy      =      -0.9983077351931385 [Eh]
	 Correlation Energy        =      -1.3104799399969527 [Eh]
	 Total Energy              =    -323.6607077340962633 [Eh]

	 ================> DF-SCS-MP2 Energies <==================
	-----------------------------------------------------------
	 SCS Same-Spin Scale       =       0.3333333333333333 [-]
	 SCS Opposite-Spin Scale   =       1.2000000000000000 [-]
	 SCS Same-Spin Energy      =      -0.1040574016012714 [Eh]
	 SCS Opposite-Spin Energy  =      -1.1979692822317662 [Eh]
	 SCS Correlation Energy    =      -1.3020266838330377 [Eh]
	 SCS Total Energy          =    -323.6522544779323312 [Eh]
	-----------------------------------------------------------

  Dipole Moment: [D]
     X:     5.7758      Y:    -1.2462      Z:    -1.1083     Total:     6.0117

*** Psi4 exiting successfully. Buy a developer a beer!
