                               Psi4 1.3.2 release

  ==> Input File <==

--------------------------------------------------------------------------
#psi4
#
memory 32 gb

molecule  {
1 1
  O       -1.6624030     0.8291070    -0.2765410
  O       -1.1238540    -1.2691650     0.4354900
  N        1.4473370    -1.0090820    -0.1563980
  C        0.6010380     0.2049760    -0.3963400
  C        1.1187320     1.3933860     0.3994720
  C       -0.7592962    -0.2581203    -0.0119739
  H        0.6501100     0.4122580    -1.4678430
  H        1.1192750    -1.8168460    -0.6997980
  H        1.4281670    -1.2902280     0.8311830
  H        2.4275310    -0.8373030    -0.4139920
  H        1.0757850     1.1947520     1.4730540
  H        0.4939250     2.2572030     0.1746130
  H        2.1464930     1.6243000     0.1133420
  H       -2.5686030     0.5447890    -0.0239170
units angstrom
no_reorient  #important for SAPT in psi4, default
symmetry c1  #important for SAPT in psi4, default
}

set PROPERTIES_ORIGIN ["COM"]
properties('MP2/aug-cc-pvtz', properties = ['dipole'])
--------------------------------------------------------------------------

    Molecular point group: c1
  Charge       = 1
  Multiplicity = 1
  Basis Set: AUG-CC-PVTZ
    Blend: AUG-CC-PVTZ
  Basis Set: (AUG-CC-PVTZ AUX)
    Blend: AUG-CC-PVTZ-JKFIT

    Orbital Energies [Eh]
    ---------------------

    Doubly Occupied:

       1A    -20.757753     2A    -20.751788     3A    -15.904364
       4A    -11.573239     5A    -11.513411     6A    -11.419142
       7A     -1.646114     8A     -1.527669     9A     -1.523092
      10A     -1.262466    11A     -1.114613    12A     -1.005904
      13A     -0.973978    14A     -0.968398    15A     -0.892214
      16A     -0.855427    17A     -0.843328    18A     -0.806925
      19A     -0.772788    20A     -0.740122    21A     -0.736533
      22A     -0.718878    23A     -0.662314    24A     -0.640023

  @DF-RHF Final Energy:  -322.34691055357405

   => Energetics <=

    Nuclear Repulsion Energy =            260.5794199016613675
    One-Electron Energy =                -946.6316943196886768
    Two-Electron Energy =                 363.7053638644532612
    Total Energy =                       -322.3469105535740482
  Basis Set: (AUG-CC-PVTZ AUX)
    Blend: AUG-CC-PVTZ-RI
    Molecular point group: c1

    Geometry (in Angstrom), charge = 1, multiplicity = 1:

       Center              X                  Y                   Z               Mass
    ------------   -----------------  -----------------  -----------------  -----------------
         O           -1.596361387785     0.862206240345    -0.279125601495    15.994914619570
         O           -1.057812387785    -1.236065759655     0.432905398505    15.994914619570
         N            1.513378612215    -0.975982759655    -0.158982601495    14.003074004430
         C            0.667079612215     0.238075240345    -0.398924601495    12.000000000000
         C            1.184773612215     1.426485240345     0.396887398505    12.000000000000
         C           -0.693254587785    -0.225021059655    -0.014558501495    12.000000000000
         H            0.716151612215     0.445357240345    -1.470427601495     1.007825032230
         H            1.185316612215    -1.783746759655    -0.702382601495     1.007825032230
         H            1.494208612215    -1.257128759655     0.828598398505     1.007825032230
         H            2.493572612215    -0.804203759655    -0.416576601495     1.007825032230
         H            1.141826612215     1.227851240345     1.470469398505     1.007825032230
         H            0.559966612215     2.290302240345     0.172028398505     1.007825032230
         H            2.212534612215     1.657399240345     0.110757398505     1.007825032230
         H           -2.502561387785     0.577888240345    -0.026501601495     1.007825032230

  Basis Set: AUG-CC-PVTZ
    Blend: AUG-CC-PVTZ
  Basis Set: (AUG-CC-PVTZ AUX)
    Blend: AUG-CC-PVTZ-JKFIT
	 Reference Energy          =    -322.3469105535740482 [Eh]
	 Singles Energy            =      -0.0000000000000000 [Eh]
	 Same-Spin Energy          =      -0.3113520821895180 [Eh]
	 Opposite-Spin Energy      =      -0.9978032982017405 [Eh]
	 Correlation Energy        =      -1.3091553803912586 [Eh]
	 Total Energy              =    -323.6560659339652943 [Eh]

	 ================> DF-SCS-MP2 Energies <==================
	-----------------------------------------------------------
	 SCS Same-Spin Scale       =       0.3333333333333333 [-]
	 SCS Opposite-Spin Scale   =       1.2000000000000000 [-]
	 SCS Same-Spin Energy      =      -0.1037840273965060 [Eh]
	 SCS Opposite-Spin Energy  =      -1.1973639578420885 [Eh]
	 SCS Correlation Energy    =      -1.3011479852385945 [Eh]
	 SCS Total Energy          =    -323.6480585388126201 [Eh]
	-----------------------------------------------------------

  Dipole Moment: [D]
     X:     6.1782      Y:    -1.7784      Z:    -0.9234     Total:     6.4950

*** Psi4 exiting successfully. Buy a developer a beer!
