                               Psi4 1.3.2 release

  ==> Input File <==

--------------------------------------------------------------------------
#psi4
#
memory 32 gb

molecule  {
1 1
  O       -1.6624030     0.8291070    -0.2765410
  O       -1.1238540    -1.2691650     0.4354900
  N        1.4473370    -1.0090820    -0.1563980
  C        0.5574669     0.1623010    -0.4457492
  C        1.1187320     1.3933860     0.3994720
  C       -0.8221020    -0.1825100    -0.0303730
  H        0.6501100     0.4122580    -1.4678430
  H        1.0801543    -1.7857699    -0.7197129
  H        1.4281670    -1.2902280     0.8311830
  H        2.4275310    -0.8373030    -0.4139920
  H        1.0757850     1.1947520     1.4730540
  H        0.4939250     2.2572030     0.1746130
  H        2.1464930     1.6243000     0.1133420
  H       -2.5686030     0.5447890    -0.0239170
units angstrom
no_reorient  #important for SAPT in psi4, default
symmetry c1  #important for SAPT in psi4, default
}

set PROPERTIES_ORIGIN ["COM"]
properties('MP2/aug-cc-pvtz', properties = ['dipole'])
--------------------------------------------------------------------------

    Molecular point group: c1
  Charge       = 1
  Multiplicity = 1
  Basis Set: AUG-CC-PVTZ
    Blend: AUG-CC-PVTZ
  Basis Set: (AUG-CC-PVTZ AUX)
    Blend: AUG-CC-PVTZ-JKFIT

    Orbital Energies [Eh]
    ---------------------

    Doubly Occupied:

       1A    -20.787145     2A    -20.734291     3A    -15.900747
       4A    -11.575496     5A    -11.506674     6A    -11.420862
       7A     -1.640631     8A     -1.545379     9A     -1.515109
      10A     -1.249738    11A     -1.109814    12A     -1.016987
      13A     -0.980398    14A     -0.965283    15A     -0.889498
      16A     -0.865447    17A     -0.853363    18A     -0.809387
      19A     -0.771964    20A     -0.735988    21A     -0.725944
      22A     -0.712069    23A     -0.656136    24A     -0.640188

  @DF-RHF Final Energy:  -322.35321466287849

   => Energetics <=

    Nuclear Repulsion Energy =            260.3719920024009298
    One-Electron Energy =                -946.2333341961516453
    Two-Electron Energy =                 363.5081275308722297
    Total Energy =                       -322.3532146628784858
  Basis Set: (AUG-CC-PVTZ AUX)
    Blend: AUG-CC-PVTZ-RI
    Molecular point group: c1

    Geometry (in Angstrom), charge = 1, multiplicity = 1:

       Center              X                  Y                   Z               Mass
    ------------   -----------------  -----------------  -----------------  -----------------
         O           -1.581748737035     0.857469796097    -0.269867196374    15.994914619570
         O           -1.043199737035    -1.240802203903     0.442163803626    15.994914619570
         N            1.527991262965    -0.980719203903    -0.149724196374    14.003074004430
         C            0.638121162965     0.190663796097    -0.439075396374    12.000000000000
         C            1.199386262965     1.421748796097     0.406145803626    12.000000000000
         C           -0.741447737035    -0.154147203903    -0.023699196374    12.000000000000
         H            0.730764262965     0.440620796097    -1.461169196374     1.007825032230
         H            1.160808562965    -1.757407103903    -0.713039096374     1.007825032230
         H            1.508821262965    -1.261865203903     0.837856803626     1.007825032230
         H            2.508185262965    -0.808940203903    -0.407318196374     1.007825032230
         H            1.156439262965     1.223114796097     1.479727803626     1.007825032230
         H            0.574579262965     2.285565796097     0.181286803626     1.007825032230
         H            2.227147262965     1.652662796097     0.120015803626     1.007825032230
         H           -2.487948737035     0.573151796097    -0.017243196374     1.007825032230

  Basis Set: AUG-CC-PVTZ
    Blend: AUG-CC-PVTZ
  Basis Set: (AUG-CC-PVTZ AUX)
    Blend: AUG-CC-PVTZ-JKFIT
	 Reference Energy          =    -322.3532146628784858 [Eh]
	 Singles Energy            =      -0.0000000000000000 [Eh]
	 Same-Spin Energy          =      -0.3114481246074620 [Eh]
	 Opposite-Spin Energy      =      -0.9977430451482380 [Eh]
	 Correlation Energy        =      -1.3091911697556999 [Eh]
	 Total Energy              =    -323.6624058326341924 [Eh]

	 ================> DF-SCS-MP2 Energies <==================
	-----------------------------------------------------------
	 SCS Same-Spin Scale       =       0.3333333333333333 [-]
	 SCS Opposite-Spin Scale   =       1.2000000000000000 [-]
	 SCS Same-Spin Energy      =      -0.1038160415358207 [Eh]
	 SCS Opposite-Spin Energy  =      -1.1972916541778855 [Eh]
	 SCS Correlation Energy    =      -1.3011076957137062 [Eh]
	 SCS Total Energy          =    -323.6543223585921965 [Eh]
	-----------------------------------------------------------

  Dipole Moment: [D]
     X:     5.6966      Y:    -1.1836      Z:    -1.1187     Total:     5.9249

*** Psi4 exiting successfully. Buy a developer a beer!
