                               Psi4 1.3.2 release

  ==> Input File <==

--------------------------------------------------------------------------
#psi4
#
memory 32 gb

molecule  {
1 1
  O       -1.6624030     0.8291070    -0.2765410
  O       -1.1238540    -1.2691650     0.4354900
  N        1.4473370    -1.0090820    -0.1563980
  C        0.6010380     0.2049760    -0.3963400
  C        1.1187320     1.3933860     0.3994720
  C       -0.7869474    -0.1560318    -0.0459930
  H        0.6501100     0.4122580    -1.4678430
  H        1.1192750    -1.8168460    -0.6997980
  H        1.4281670    -1.2902280     0.8311830
  H        2.4275310    -0.8373030    -0.4139920
  H        1.0757850     1.1947520     1.4730540
  H        0.4939250     2.2572030     0.1746130
  H        2.1464930     1.6243000     0.1133420
  H       -2.5803070     0.5755392    -0.0336220
units angstrom
no_reorient  #important for SAPT in psi4, default
symmetry c1  #important for SAPT in psi4, default
}

set PROPERTIES_ORIGIN ["COM"]
properties('MP2/aug-cc-pvtz', properties = ['dipole'])
--------------------------------------------------------------------------

    Molecular point group: c1
  Charge       = 1
  Multiplicity = 1
  Basis Set: AUG-CC-PVTZ
    Blend: AUG-CC-PVTZ
  Basis Set: (AUG-CC-PVTZ AUX)
    Blend: AUG-CC-PVTZ-JKFIT

    Orbital Energies [Eh]
    ---------------------

    Doubly Occupied:

       1A    -20.786423     2A    -20.729247     3A    -15.902847
       4A    -11.579362     5A    -11.512317     6A    -11.419761
       7A     -1.630780     8A     -1.534410     9A     -1.506052
      10A     -1.266174    11A     -1.116188    12A     -1.017716
      13A     -0.983042    14A     -0.967660    15A     -0.882969
      16A     -0.864162    17A     -0.846965    18A     -0.808182
      19A     -0.766705    20A     -0.739401    21A     -0.730646
      22A     -0.717912    23A     -0.643579    24A     -0.635587

  @DF-RHF Final Energy:  -322.35076874073769

   => Energetics <=

    Nuclear Repulsion Energy =            260.2232525067212805
    One-Electron Energy =                -945.9718654076879147
    Two-Electron Energy =                 363.3978441602289990
    Total Energy =                       -322.3507687407376920
  Basis Set: (AUG-CC-PVTZ AUX)
    Blend: AUG-CC-PVTZ-RI
    Molecular point group: c1

    Geometry (in Angstrom), charge = 1, multiplicity = 1:

       Center              X                  Y                   Z               Mass
    ------------   -----------------  -----------------  -----------------  -----------------
         O           -1.592545852134     0.848258699412    -0.274483906921    15.994914619570
         O           -1.053996852134    -1.250013300588     0.437547093079    15.994914619570
         N            1.517194147866    -0.989930300588    -0.154340906921    14.003074004430
         C            0.670895147866     0.224127699412    -0.394282906921    12.000000000000
         C            1.188589147866     1.412537699412     0.401529093079    12.000000000000
         C           -0.717090252134    -0.136880100588    -0.043935906921    12.000000000000
         H            0.719967147866     0.431409699412    -1.465785906921     1.007825032230
         H            1.189132147866    -1.797694300588    -0.697740906921     1.007825032230
         H            1.498024147866    -1.271076300588     0.833240093079     1.007825032230
         H            2.497388147866    -0.818151300588    -0.411934906921     1.007825032230
         H            1.145642147866     1.213903699412     1.475111093079     1.007825032230
         H            0.563782147866     2.276354699412     0.176670093079     1.007825032230
         H            2.216350147866     1.643451699412     0.115399093079     1.007825032230
         H           -2.510449852134     0.594690899412    -0.031564906921     1.007825032230

  Basis Set: AUG-CC-PVTZ
    Blend: AUG-CC-PVTZ
  Basis Set: (AUG-CC-PVTZ AUX)
    Blend: AUG-CC-PVTZ-JKFIT
	 Reference Energy          =    -322.3507687407376920 [Eh]
	 Singles Energy            =      -0.0000000000000000 [Eh]
	 Same-Spin Energy          =      -0.3126744907027317 [Eh]
	 Opposite-Spin Energy      =      -0.9997127385396534 [Eh]
	 Correlation Energy        =      -1.3123872292423850 [Eh]
	 Total Energy              =    -323.6631559699800960 [Eh]

	 ================> DF-SCS-MP2 Energies <==================
	-----------------------------------------------------------
	 SCS Same-Spin Scale       =       0.3333333333333333 [-]
	 SCS Opposite-Spin Scale   =       1.2000000000000000 [-]
	 SCS Same-Spin Energy      =      -0.1042248302342439 [Eh]
	 SCS Opposite-Spin Energy  =      -1.1996552862475840 [Eh]
	 SCS Correlation Energy    =      -1.3038801164818279 [Eh]
	 SCS Total Energy          =    -323.6546488572195130 [Eh]
	-----------------------------------------------------------

  Dipole Moment: [D]
     X:     5.8003      Y:    -1.0344      Z:    -1.1586     Total:     6.0047

*** Psi4 exiting successfully. Buy a developer a beer!
