                               Psi4 1.3.2 release

  ==> Input File <==

--------------------------------------------------------------------------
#psi4
#
memory 32 gb

molecule  {
1 1
  O       -1.6624030     0.8291070    -0.2765410
  O       -1.1238540    -1.2691650     0.4354900
  N        1.4473370    -1.0090820    -0.1563980
  C        0.6010380     0.2049760    -0.3963400
  C        1.1187320     1.3933860     0.3994720
  C       -0.9477135    -0.0312895    -0.0671712
  H        0.6501100     0.4122580    -1.4678430
  H        1.1192750    -1.8168460    -0.6997980
  H        1.4281670    -1.2902280     0.8311830
  H        2.4275310    -0.8373030    -0.4139920
  H        1.0757850     1.1947520     1.4730540
  H        0.4939250     2.2572030     0.1746130
  H        2.1464930     1.6243000     0.1133420
  H       -2.5686030     0.5447890    -0.0239170
units angstrom
no_reorient  #important for SAPT in psi4, default
symmetry c1  #important for SAPT in psi4, default
}

set PROPERTIES_ORIGIN ["COM"]
properties('MP2/aug-cc-pvtz', properties = ['dipole'])
--------------------------------------------------------------------------

    Molecular point group: c1
  Charge       = 1
  Multiplicity = 1
  Basis Set: AUG-CC-PVTZ
    Blend: AUG-CC-PVTZ
  Basis Set: (AUG-CC-PVTZ AUX)
    Blend: AUG-CC-PVTZ-JKFIT

    Orbital Energies [Eh]
    ---------------------

    Doubly Occupied:

       1A    -20.845102     2A    -20.695127     3A    -15.892249
       4A    -11.580058     5A    -11.503250     6A    -11.411744
       7A     -1.767843     8A     -1.514215     9A     -1.457510
      10A     -1.244611    11A     -1.120358    12A     -1.054821
      13A     -0.972455    14A     -0.956868    15A     -0.933768
      16A     -0.885343    17A     -0.867043    18A     -0.836072
      19A     -0.760518    20A     -0.733578    21A     -0.718215
      22A     -0.685853    23A     -0.611730    24A     -0.598264

  @DF-RHF Final Energy:  -322.29098731620689

   => Energetics <=

    Nuclear Repulsion Energy =            260.2982411428141063
    One-Electron Energy =                -945.8852626638184802
    Two-Electron Energy =                 363.2960342047974223
    Total Energy =                       -322.2909873162068948
  Basis Set: (AUG-CC-PVTZ AUX)
    Blend: AUG-CC-PVTZ-RI
    Molecular point group: c1

    Geometry (in Angstrom), charge = 1, multiplicity = 1:

       Center              X                  Y                   Z               Mass
    ------------   -----------------  -----------------  -----------------  -----------------
         O           -1.571254564636     0.831980773891    -0.271770497428    15.994914619570
         O           -1.032705564636    -1.266291226109     0.440260502572    15.994914619570
         N            1.538485435364    -1.006208226109    -0.151627497428    14.003074004430
         C            0.692186435364     0.207849773891    -0.391569497428    12.000000000000
         C            1.209880435364     1.396259773891     0.404242502572    12.000000000000
         C           -0.856565064636    -0.028415726109    -0.062400697428    12.000000000000
         H            0.741258435364     0.415131773891    -1.463072497428     1.007825032230
         H            1.210423435364    -1.813972226109    -0.695027497428     1.007825032230
         H            1.519315435364    -1.287354226109     0.835953502572     1.007825032230
         H            2.518679435364    -0.834429226109    -0.409221497428     1.007825032230
         H            1.166933435364     1.197625773891     1.477824502572     1.007825032230
         H            0.585073435364     2.260076773891     0.179383502572     1.007825032230
         H            2.237641435364     1.627173773891     0.118112502572     1.007825032230
         H           -2.477454564636     0.547662773891    -0.019146497428     1.007825032230

  Basis Set: AUG-CC-PVTZ
    Blend: AUG-CC-PVTZ
  Basis Set: (AUG-CC-PVTZ AUX)
    Blend: AUG-CC-PVTZ-JKFIT
	 Reference Energy          =    -322.2909873162068948 [Eh]
	 Singles Energy            =      -0.0000000000000000 [Eh]
	 Same-Spin Energy          =      -0.3127705567611787 [Eh]
	 Opposite-Spin Energy      =      -0.9987649916647205 [Eh]
	 Correlation Energy        =      -1.3115355484258993 [Eh]
	 Total Energy              =    -323.6025228646328173 [Eh]

	 ================> DF-SCS-MP2 Energies <==================
	-----------------------------------------------------------
	 SCS Same-Spin Scale       =       0.3333333333333333 [-]
	 SCS Opposite-Spin Scale   =       1.2000000000000000 [-]
	 SCS Same-Spin Energy      =      -0.1042568522537262 [Eh]
	 SCS Opposite-Spin Energy  =      -1.1985179899976646 [Eh]
	 SCS Correlation Energy    =      -1.3027748422513907 [Eh]
	 SCS Total Energy          =    -323.5937621584582757 [Eh]
	-----------------------------------------------------------

  Dipole Moment: [D]
     X:     4.7588      Y:    -0.0397      Z:    -1.4388     Total:     4.9717

*** Psi4 exiting successfully. Buy a developer a beer!
