                               Psi4 1.4a3.dev225

  ==> Input File <==

--------------------------------------------------------------------------
#psi4
#
memory 32 gb

molecule  {
1 1
  O       -1.6123010     0.9094490    -0.1675920
  O       -1.1928110    -1.2795120     0.3034070
  N        1.4156850    -1.0522820    -0.0637630
  C        0.6095860     0.1674070    -0.3957710
  C        1.1650120     1.3928430     0.3122100
  C       -0.8434199    -0.2109086    -0.0211637
  H        0.6656880     0.2905790    -1.4809690
  H        0.9122540    -1.9066690    -0.3390640
  H        1.5920220    -1.1264780     0.9462830
  H        2.3268530    -1.0442670    -0.5383350
  H        1.0907020     1.2862690     1.3970100
  H        0.5903660     2.2672430     0.0071660
  H        2.2096640     1.5504630     0.0359860
  H       -2.5330880     0.6393330     0.0432950
units angstrom
no_reorient  #important for SAPT in psi4, default
symmetry c1  #important for SAPT in psi4, default
}

set PROPERTIES_ORIGIN ["COM"]
properties('MP2/aug-cc-pvtz', properties = ['dipole'])
--------------------------------------------------------------------------

    Molecular point group: c1
  Charge       = 1
  Multiplicity = 1
  Basis Set: AUG-CC-PVTZ
    Blend: AUG-CC-PVTZ
  Basis Set: (AUG-CC-PVTZ AUX)
    Blend: AUG-CC-PVTZ-JKFIT

    Orbital Energies [Eh]
    ---------------------

    Doubly Occupied:

       1A    -20.779348     2A    -20.744856     3A    -15.897676
       4A    -11.573213     5A    -11.507181     6A    -11.413417
       7A     -1.650215     8A     -1.555516     9A     -1.517581
      10A     -1.248380    11A     -1.102398    12A     -1.005533
      13A     -0.975461    14A     -0.963808    15A     -0.892013
      16A     -0.857082    17A     -0.851922    18A     -0.808522
      19A     -0.775247    20A     -0.740709    21A     -0.732948
      22A     -0.714852    23A     -0.670948    24A     -0.638121

  @DF-RHF Final Energy:  -322.35827854573370

   => Energetics <=

    Nuclear Repulsion Energy =            260.4919836653863854
    One-Electron Energy =                -946.4666329690958264
    Two-Electron Energy =                 363.6163707579756874
    Total Energy =                       -322.3582785457336968
  Basis Set: (AUG-CC-PVTZ AUX)
    Blend: AUG-CC-PVTZ-RI
    Molecular point group: c1

    Geometry (in Angstrom), charge = 1, multiplicity = 1:

       Center              X                  Y                   Z               Mass
    ------------   -----------------  -----------------  -----------------  -----------------
         O           -1.535000332440     0.937103384766    -0.168643633780    15.994914619570
         O           -1.115510332440    -1.251857615234     0.302355366220    15.994914619570
         N            1.492985667560    -1.024627615234    -0.064814633780    14.003074004430
         C            0.686886667560     0.195061384766    -0.396822633780    12.000000000000
         C            1.242312667560     1.420497384766     0.311158366220    12.000000000000
         C           -0.766119232440    -0.183254215234    -0.022215333780    12.000000000000
         H            0.742988667560     0.318233384766    -1.482020633780     1.007825032230
         H            0.989554667560    -1.879014615234    -0.340115633780     1.007825032230
         H            1.669322667560    -1.098823615234     0.945231366220     1.007825032230
         H            2.404153667560    -1.016612615234    -0.539386633780     1.007825032230
         H            1.168002667560     1.313923384766     1.395958366220     1.007825032230
         H            0.667666667560     2.294897384766     0.006114366220     1.007825032230
         H            2.286964667560     1.578117384766     0.034934366220     1.007825032230
         H           -2.455787332440     0.666987384766     0.042243366220     1.007825032230

  Basis Set: AUG-CC-PVTZ
    Blend: AUG-CC-PVTZ
  Basis Set: (AUG-CC-PVTZ AUX)
    Blend: AUG-CC-PVTZ-JKFIT
	 Reference Energy          =    -322.3582785457336968 [Eh]
	 Singles Energy            =      -0.0000000000000000 [Eh]
	 Same-Spin Energy          =      -0.3108102063728211 [Eh]
	 Opposite-Spin Energy      =      -0.9961736790903977 [Eh]
	 Correlation Energy        =      -1.3069838854632188 [Eh]
	 Total Energy              =    -323.6652624311969362 [Eh]

	 ================> DF-SCS-MP2 Energies <==================
	-----------------------------------------------------------
	 SCS Same-Spin Scale       =       0.3333333333333333 [-]
	 SCS Opposite-Spin Scale   =       1.2000000000000000 [-]
	 SCS Same-Spin Energy      =      -0.1036034021242737 [Eh]
	 SCS Opposite-Spin Energy  =      -1.1954084149084772 [Eh]
	 SCS Correlation Energy    =      -1.2990118170327509 [Eh]
	 SCS Total Energy          =    -323.6572903627664459 [Eh]
	-----------------------------------------------------------

  Dipole Moment: [D]
     X:     5.6000      Y:    -1.6305      Z:    -0.5792     Total:     5.8612

*** Psi4 exiting successfully. Buy a developer a beer!
