                               Psi4 1.4a3.dev225

  ==> Input File <==

--------------------------------------------------------------------------
#psi4
#
memory 32 gb

molecule  {
1 1
  O       -1.6123010     0.9094490    -0.1675920
  O       -1.1928110    -1.2795120     0.3034070
  N        1.4156850    -1.0522820    -0.0637630
  C        0.6095860     0.1674070    -0.3957710
  C        1.1650120     1.3928430     0.3122100
  C       -0.8284910    -0.1652490    -0.0350320
  H        0.6631230     0.2849475    -1.4313534
  H        0.9122540    -1.9066690    -0.3390640
  H        1.5920220    -1.1264780     0.9462830
  H        2.3268530    -1.0442670    -0.5383350
  H        1.0907020     1.2862690     1.3970100
  H        0.5903660     2.2672430     0.0071660
  H        2.2096640     1.5504630     0.0359860
  H       -2.5330880     0.6393330     0.0432950
units angstrom
no_reorient  #important for SAPT in psi4, default
symmetry c1  #important for SAPT in psi4, default
}

set PROPERTIES_ORIGIN ["COM"]
properties('MP2/aug-cc-pvtz', properties = ['dipole'])
--------------------------------------------------------------------------

    Molecular point group: c1
  Charge       = 1
  Multiplicity = 1
  Basis Set: AUG-CC-PVTZ
    Blend: AUG-CC-PVTZ
  Basis Set: (AUG-CC-PVTZ AUX)
    Blend: AUG-CC-PVTZ-JKFIT

    Orbital Energies [Eh]
    ---------------------

    Doubly Occupied:

       1A    -20.788485     2A    -20.735784     3A    -15.898602
       4A    -11.577153     5A    -11.504366     6A    -11.415592
       7A     -1.641443     8A     -1.546034     9A     -1.514868
      10A     -1.258113    11A     -1.109207    12A     -1.017081
      13A     -0.979625    14A     -0.964011    15A     -0.888561
      16A     -0.859204    17A     -0.858762    18A     -0.808215
      19A     -0.773522    20A     -0.736528    21A     -0.735086
      22A     -0.719779    23A     -0.658096    24A     -0.638571

  @DF-RHF Final Energy:  -322.35798613942120

   => Energetics <=

    Nuclear Repulsion Energy =            260.6656028191922019
    One-Electron Energy =                -946.7937930655725722
    Two-Electron Energy =                 363.7702041069592269
    Total Energy =                       -322.3579861394212003
  Basis Set: (AUG-CC-PVTZ AUX)
    Blend: AUG-CC-PVTZ-RI
    Molecular point group: c1

    Geometry (in Angstrom), charge = 1, multiplicity = 1:

       Center              X                  Y                   Z               Mass
    ------------   -----------------  -----------------  -----------------  -----------------
         O           -1.536960920321     0.931082213241    -0.167350922598    15.994914619570
         O           -1.117470920321    -1.257878786759     0.303648077402    15.994914619570
         N            1.491025079679    -1.030648786759    -0.063521922598    14.003074004430
         C            0.684926079679     0.189040213241    -0.395529922598    12.000000000000
         C            1.240352079679     1.414476213241     0.312451077402    12.000000000000
         C           -0.753150920321    -0.143615786759    -0.034790922598    12.000000000000
         H            0.738463079679     0.306580713241    -1.431112322598     1.007825032230
         H            0.987594079679    -1.885035786759    -0.338822922598     1.007825032230
         H            1.667362079679    -1.104844786759     0.946524077402     1.007825032230
         H            2.402193079679    -1.022633786759    -0.538093922598     1.007825032230
         H            1.166042079679     1.307902213241     1.397251077402     1.007825032230
         H            0.665706079679     2.288876213241     0.007407077402     1.007825032230
         H            2.285004079679     1.572096213241     0.036227077402     1.007825032230
         H           -2.457747920321     0.660966213241     0.043536077402     1.007825032230

  Basis Set: AUG-CC-PVTZ
    Blend: AUG-CC-PVTZ
  Basis Set: (AUG-CC-PVTZ AUX)
    Blend: AUG-CC-PVTZ-JKFIT
	 Reference Energy          =    -322.3579861394212003 [Eh]
	 Singles Energy            =      -0.0000000000000000 [Eh]
	 Same-Spin Energy          =      -0.3116864853859771 [Eh]
	 Opposite-Spin Energy      =      -0.9975112961721876 [Eh]
	 Correlation Energy        =      -1.3091977815581646 [Eh]
	 Total Energy              =    -323.6671839209793688 [Eh]

	 ================> DF-SCS-MP2 Energies <==================
	-----------------------------------------------------------
	 SCS Same-Spin Scale       =       0.3333333333333333 [-]
	 SCS Opposite-Spin Scale   =       1.2000000000000000 [-]
	 SCS Same-Spin Energy      =      -0.1038954951286590 [Eh]
	 SCS Opposite-Spin Energy  =      -1.1970135554066250 [Eh]
	 SCS Correlation Energy    =      -1.3009090505352841 [Eh]
	 SCS Total Energy          =    -323.6588951899564677 [Eh]
	-----------------------------------------------------------

  Dipole Moment: [D]
     X:     5.6167      Y:    -1.3231      Z:    -0.6456     Total:     5.8064

*** Psi4 exiting successfully. Buy a developer a beer!
