                               Psi4 1.3.2 release

  ==> Input File <==

--------------------------------------------------------------------------
#psi4
#
memory 32 gb

molecule  {
1 1
  O       -1.6624030     0.8291070    -0.2765410
  O       -1.1238540    -1.2691650     0.4354900
  N        1.4891835    -0.9818989    -0.1721606
  C        0.6010380     0.2049760    -0.3963400
  C        1.1187320     1.3933860     0.3994720
  C       -0.8377658    -0.1334882    -0.0432247
  H        0.6501100     0.4122580    -1.4678430
  H        1.1192750    -1.8168460    -0.6997980
  H        1.4281670    -1.2902280     0.8311830
  H        2.4275310    -0.8373030    -0.4139920
  H        1.0757850     1.1947520     1.4730540
  H        0.4939250     2.2572030     0.1746130
  H        2.1464930     1.6243000     0.1133420
  H       -2.5686030     0.5447890    -0.0239170
units angstrom
no_reorient  #important for SAPT in psi4, default
symmetry c1  #important for SAPT in psi4, default
}

set PROPERTIES_ORIGIN ["COM"]
properties('MP2/aug-cc-pvtz', properties = ['dipole'])
--------------------------------------------------------------------------

    Molecular point group: c1
  Charge       = 1
  Multiplicity = 1
  Basis Set: AUG-CC-PVTZ
    Blend: AUG-CC-PVTZ
  Basis Set: (AUG-CC-PVTZ AUX)
    Blend: AUG-CC-PVTZ-JKFIT

    Orbital Energies [Eh]
    ---------------------

    Doubly Occupied:

       1A    -20.802170     2A    -20.724460     3A    -15.899453
       4A    -11.580507     5A    -11.509274     6A    -11.415765
       7A     -1.658209     8A     -1.532918     9A     -1.505177
      10A     -1.257114    11A     -1.109386    12A     -1.024798
      13A     -0.990691    14A     -0.951480    15A     -0.891085
      16A     -0.872541    17A     -0.846741    18A     -0.818099
      19A     -0.769330    20A     -0.734869    21A     -0.729220
      22A     -0.714506    23A     -0.643010    24A     -0.630727

  @DF-RHF Final Energy:  -322.34858139102749

   => Energetics <=

    Nuclear Repulsion Energy =            259.9246630014766311
    One-Electron Energy =                -945.3234328818655285
    Two-Electron Energy =                 363.0501884893614601
    Total Energy =                       -322.3485813910274942
  Basis Set: (AUG-CC-PVTZ AUX)
    Blend: AUG-CC-PVTZ-RI
    Molecular point group: c1

    Geometry (in Angstrom), charge = 1, multiplicity = 1:

       Center              X                  Y                   Z               Mass
    ------------   -----------------  -----------------  -----------------  -----------------
         O           -1.592412094851     0.841372064886    -0.272510409406    15.994914619570
         O           -1.053863094851    -1.256899935114     0.439520590594    15.994914619570
         N            1.559174405149    -0.969633835114    -0.168130009406    14.003074004430
         C            0.671028905149     0.217241064886    -0.392309409406    12.000000000000
         C            1.188722905149     1.405651064886     0.403502590594    12.000000000000
         C           -0.767774894851    -0.121223135114    -0.039194109406    12.000000000000
         H            0.720100905149     0.424523064886    -1.463812409406     1.007825032230
         H            1.189265905149    -1.804580935114    -0.695767409406     1.007825032230
         H            1.498157905149    -1.277962935114     0.835213590594     1.007825032230
         H            2.497521905149    -0.825037935114    -0.409961409406     1.007825032230
         H            1.145775905149     1.207017064886     1.477084590594     1.007825032230
         H            0.563915905149     2.269468064886     0.178643590594     1.007825032230
         H            2.216483905149     1.636565064886     0.117372590594     1.007825032230
         H           -2.498612094851     0.557054064886    -0.019886409406     1.007825032230

  Basis Set: AUG-CC-PVTZ
    Blend: AUG-CC-PVTZ
  Basis Set: (AUG-CC-PVTZ AUX)
    Blend: AUG-CC-PVTZ-JKFIT
	 Reference Energy          =    -322.3485813910274942 [Eh]
	 Singles Energy            =      -0.0000000000000000 [Eh]
	 Same-Spin Energy          =      -0.3123543385632694 [Eh]
	 Opposite-Spin Energy      =      -0.9988301012242865 [Eh]
	 Correlation Energy        =      -1.3111844397875561 [Eh]
	 Total Energy              =    -323.6597658308150471 [Eh]

	 ================> DF-SCS-MP2 Energies <==================
	-----------------------------------------------------------
	 SCS Same-Spin Scale       =       0.3333333333333333 [-]
	 SCS Opposite-Spin Scale   =       1.2000000000000000 [-]
	 SCS Same-Spin Energy      =      -0.1041181128544231 [Eh]
	 SCS Opposite-Spin Energy  =      -1.1985961214691438 [Eh]
	 SCS Correlation Energy    =      -1.3027142343235669 [Eh]
	 SCS Total Energy          =    -323.6512956253510538 [Eh]
	-----------------------------------------------------------

  Dipole Moment: [D]
     X:     5.4387      Y:    -0.9277      Z:    -1.1747     Total:     5.6410

*** Psi4 exiting successfully. Buy a developer a beer!
