                               Psi4 1.3.2 release

  ==> Input File <==

--------------------------------------------------------------------------
#psi4
#
memory 32 gb

molecule  {
1 1
  O       -1.6624030     0.8291070    -0.2765410
  O       -1.1238540    -1.2691650     0.4354900
  N        1.4578973    -1.0024236    -0.1603120
  C        0.6010380     0.2049760    -0.3963400
  C        1.1187320     1.3933860     0.3994720
  C       -0.8261813    -0.1702965    -0.0335447
  H        0.6501100     0.4122580    -1.4678430
  H        1.1192750    -1.8168460    -0.6997980
  H        1.4281670    -1.2902280     0.8311830
  H        2.4275310    -0.8373030    -0.4139920
  H        1.0757850     1.1947520     1.4730540
  H        0.4939250     2.2572030     0.1746130
  H        2.1464930     1.6243000     0.1133420
  H       -2.5686030     0.5447890    -0.0239170
units angstrom
no_reorient  #important for SAPT in psi4, default
symmetry c1  #important for SAPT in psi4, default
}

set PROPERTIES_ORIGIN ["COM"]
properties('MP2/aug-cc-pvtz', properties = ['dipole'])
--------------------------------------------------------------------------

    Molecular point group: c1
  Charge       = 1
  Multiplicity = 1
  Basis Set: AUG-CC-PVTZ
    Blend: AUG-CC-PVTZ
  Basis Set: (AUG-CC-PVTZ AUX)
    Blend: AUG-CC-PVTZ-JKFIT

    Orbital Energies [Eh]
    ---------------------

    Doubly Occupied:

       1A    -20.790748     2A    -20.731998     3A    -15.900210
       4A    -11.577248     5A    -11.509178     6A    -11.416295
       7A     -1.642328     8A     -1.541846     9A     -1.513680
      10A     -1.256176    11A     -1.107901    12A     -1.015038
      13A     -0.982266    14A     -0.962619    15A     -0.886848
      16A     -0.863488    17A     -0.847612    18A     -0.812805
      19A     -0.771351    20A     -0.736258    21A     -0.732839
      22A     -0.716445    23A     -0.653487    24A     -0.635475

  @DF-RHF Final Energy:  -322.35799375225349

   => Energetics <=

    Nuclear Repulsion Energy =            260.1671742501191602
    One-Electron Energy =                -945.8420560368768975
    Two-Electron Energy =                 363.3168880345042453
    Total Energy =                       -322.3579937522534919
  Basis Set: (AUG-CC-PVTZ AUX)
    Blend: AUG-CC-PVTZ-RI
    Molecular point group: c1

    Geometry (in Angstrom), charge = 1, multiplicity = 1:

       Center              X                  Y                   Z               Mass
    ------------   -----------------  -----------------  -----------------  -----------------
         O           -1.589090932209     0.849468277385    -0.275642664645    15.994914619570
         O           -1.050541932209    -1.248803722615     0.436388335355    15.994914619570
         N            1.531209367791    -0.982062322615    -0.159413664645    14.003074004430
         C            0.674350067791     0.225337277385    -0.395441664645    12.000000000000
         C            1.192044067791     1.413747277385     0.400370335355    12.000000000000
         C           -0.752869232209    -0.149935222615    -0.032646364645    12.000000000000
         H            0.723422067791     0.432619277385    -1.466944664645     1.007825032230
         H            1.192587067791    -1.796484722615    -0.698899664645     1.007825032230
         H            1.501479067791    -1.269866722615     0.832081335355     1.007825032230
         H            2.500843067791    -0.816941722615    -0.413093664645     1.007825032230
         H            1.149097067791     1.215113277385     1.473952335355     1.007825032230
         H            0.567237067791     2.277564277385     0.175511335355     1.007825032230
         H            2.219805067791     1.644661277385     0.114240335355     1.007825032230
         H           -2.495290932209     0.565150277385    -0.023018664645     1.007825032230

  Basis Set: AUG-CC-PVTZ
    Blend: AUG-CC-PVTZ
  Basis Set: (AUG-CC-PVTZ AUX)
    Blend: AUG-CC-PVTZ-JKFIT
	 Reference Energy          =    -322.3579937522534919 [Eh]
	 Singles Energy            =      -0.0000000000000000 [Eh]
	 Same-Spin Energy          =      -0.3117591099259637 [Eh]
	 Opposite-Spin Energy      =      -0.9978689155600041 [Eh]
	 Correlation Energy        =      -1.3096280254859678 [Eh]
	 Total Energy              =    -323.6676217777394413 [Eh]

	 ================> DF-SCS-MP2 Energies <==================
	-----------------------------------------------------------
	 SCS Same-Spin Scale       =       0.3333333333333333 [-]
	 SCS Opposite-Spin Scale   =       1.2000000000000000 [-]
	 SCS Same-Spin Energy      =      -0.1039197033086546 [Eh]
	 SCS Opposite-Spin Energy  =      -1.1974426986720048 [Eh]
	 SCS Correlation Energy    =      -1.3013624019806593 [Eh]
	 SCS Total Energy          =    -323.6593561542341604 [Eh]
	-----------------------------------------------------------

  Dipole Moment: [D]
     X:     5.6213      Y:    -1.1453      Z:    -1.1097     Total:     5.8431

*** Psi4 exiting successfully. Buy a developer a beer!
