                               Psi4 1.3.2 release

  ==> Input File <==

--------------------------------------------------------------------------
#psi4
#
memory 32 gb

molecule  {
1 1
  O       -1.6624030     0.8291070    -0.2765410
  O       -1.1238540    -1.2691650     0.4354900
  N        1.4473370    -1.0090820    -0.1563980
  C        0.6010380     0.2049760    -0.3963400
  C        1.1187320     1.3933860     0.3994720
  C       -0.8221020    -0.1825100    -0.0303730
  H        0.6501100     0.4122580    -1.4678430
  H        1.1192750    -1.8168460    -0.6997980
  H        1.4281670    -1.2902280     0.8311830
  H        2.4275310    -0.8373030    -0.4139920
  H        1.0757850     1.1947520     1.4730540
  H        0.4939250     2.2572030     0.1746130
  H        2.1464930     1.6243000     0.1133420
  H       -2.4763951     0.5737190    -0.0496221
units angstrom
no_reorient  #important for SAPT in psi4, default
symmetry c1  #important for SAPT in psi4, default
}

set PROPERTIES_ORIGIN ["COM"]
properties('MP2/aug-cc-pvtz', properties = ['dipole'])
--------------------------------------------------------------------------

    Molecular point group: c1
  Charge       = 1
  Multiplicity = 1
  Basis Set: AUG-CC-PVTZ
    Blend: AUG-CC-PVTZ
  Basis Set: (AUG-CC-PVTZ AUX)
    Blend: AUG-CC-PVTZ-JKFIT

    Orbital Energies [Eh]
    ---------------------

    Doubly Occupied:

       1A    -20.781166     2A    -20.737128     3A    -15.901456
       4A    -11.578852     5A    -11.510387     6A    -11.417521
       7A     -1.655968     8A     -1.554641     9A     -1.517156
      10A     -1.259269    11A     -1.113433    12A     -1.028534
      13A     -0.984401    14A     -0.966842    15A     -0.892064
      16A     -0.865447    17A     -0.852189    18A     -0.815859
      19A     -0.778008    20A     -0.738184    21A     -0.737404
      22A     -0.718548    23A     -0.660334    24A     -0.639006

  @DF-RHF Final Energy:  -322.35434721440453

   => Energetics <=

    Nuclear Repulsion Energy =            260.9213493507388080
    One-Electron Energy =                -947.1438013690150228
    Two-Electron Energy =                 363.8681048038717449
    Total Energy =                       -322.3543472144045268
  Basis Set: (AUG-CC-PVTZ AUX)
    Blend: AUG-CC-PVTZ-RI
    Molecular point group: c1

    Geometry (in Angstrom), charge = 1, multiplicity = 1:

       Center              X                  Y                   Z               Mass
    ------------   -----------------  -----------------  -----------------  -----------------
         O           -1.589024355127     0.851807320326    -0.276386230400    15.994914619570
         O           -1.050475355127    -1.246464679674     0.435644769600    15.994914619570
         N            1.520715644873    -0.986381679674    -0.156243230400    14.003074004430
         C            0.674416644873     0.227676320326    -0.396185230400    12.000000000000
         C            1.192110644873     1.416086320326     0.399626769600    12.000000000000
         C           -0.748723355127    -0.159809679674    -0.030218230400    12.000000000000
         H            0.723488644873     0.434958320326    -1.467688230400     1.007825032230
         H            1.192653644873    -1.794145679674    -0.699643230400     1.007825032230
         H            1.501545644873    -1.267527679674     0.831337769600     1.007825032230
         H            2.500909644873    -0.814602679674    -0.413837230400     1.007825032230
         H            1.149163644873     1.217452320326     1.473208769600     1.007825032230
         H            0.567303644873     2.279903320326     0.174767769600     1.007825032230
         H            2.219871644873     1.647000320326     0.113496769600     1.007825032230
         H           -2.403016455127     0.596419320326    -0.049467330400     1.007825032230

  Basis Set: AUG-CC-PVTZ
    Blend: AUG-CC-PVTZ
  Basis Set: (AUG-CC-PVTZ AUX)
    Blend: AUG-CC-PVTZ-JKFIT
	 Reference Energy          =    -322.3543472144045268 [Eh]
	 Singles Energy            =      -0.0000000000000000 [Eh]
	 Same-Spin Energy          =      -0.3103465112248997 [Eh]
	 Opposite-Spin Energy      =      -0.9949387374632885 [Eh]
	 Correlation Energy        =      -1.3052852486881883 [Eh]
	 Total Energy              =    -323.6596324630926915 [Eh]

	 ================> DF-SCS-MP2 Energies <==================
	-----------------------------------------------------------
	 SCS Same-Spin Scale       =       0.3333333333333333 [-]
	 SCS Opposite-Spin Scale   =       1.2000000000000000 [-]
	 SCS Same-Spin Energy      =      -0.1034488370749666 [Eh]
	 SCS Opposite-Spin Energy  =      -1.1939264849559461 [Eh]
	 SCS Correlation Energy    =      -1.2973753220309128 [Eh]
	 SCS Total Energy          =    -323.6517225364354431 [Eh]
	-----------------------------------------------------------

  Dipole Moment: [D]
     X:     5.8689      Y:    -1.2273      Z:    -1.1110     Total:     6.0979

*** Psi4 exiting successfully. Buy a developer a beer!
