                               Psi4 1.3.2 release

  ==> Input File <==

--------------------------------------------------------------------------
#psi4
#
memory 32 gb

molecule  {
1 1
  O       -1.6624030     0.8291070    -0.2765410
  O       -1.1238540    -1.2691650     0.4354900
  N        1.4473370    -1.0090820    -0.1563980
  C        0.5987630     0.1984517    -0.3850064
  C        1.1187320     1.3933860     0.3994720
  C       -0.8221020    -0.1825100    -0.0303730
  H        0.6501100     0.4122580    -1.4678430
  H        1.1192750    -1.8168460    -0.6997980
  H        1.4281670    -1.2902280     0.8311830
  H        2.4275310    -0.8373030    -0.4139920
  H        1.0721661     1.1861129     1.4712685
  H        0.4939250     2.2572030     0.1746130
  H        2.1464930     1.6243000     0.1133420
  H       -2.5686030     0.5447890    -0.0239170
units angstrom
no_reorient  #important for SAPT in psi4, default
symmetry c1  #important for SAPT in psi4, default
}

set PROPERTIES_ORIGIN ["COM"]
properties('MP2/aug-cc-pvtz', properties = ['dipole'])
--------------------------------------------------------------------------

    Molecular point group: c1
  Charge       = 1
  Multiplicity = 1
  Basis Set: AUG-CC-PVTZ
    Blend: AUG-CC-PVTZ
  Basis Set: (AUG-CC-PVTZ AUX)
    Blend: AUG-CC-PVTZ-JKFIT

    Orbital Energies [Eh]
    ---------------------

    Doubly Occupied:

       1A    -20.786943     2A    -20.734166     3A    -15.901210
       4A    -11.575814     5A    -11.509090     6A    -11.416625
       7A     -1.639301     8A     -1.544736     9A     -1.516768
      10A     -1.256158    11A     -1.108294    12A     -1.012444
      13A     -0.980643    14A     -0.966676    15A     -0.886526
      16A     -0.861659    17A     -0.846138    18A     -0.811727
      19A     -0.772098    20A     -0.737108    21A     -0.734579
      22A     -0.713735    23A     -0.656404    24A     -0.636879

  @DF-RHF Final Energy:  -322.35856965817828

   => Energetics <=

    Nuclear Repulsion Energy =            260.4150776892685144
    One-Electron Energy =                -946.3358506684243139
    Two-Electron Energy =                 363.5622033209775168
    Total Energy =                       -322.3585696581782827
  Basis Set: (AUG-CC-PVTZ AUX)
    Blend: AUG-CC-PVTZ-RI
    Molecular point group: c1

    Geometry (in Angstrom), charge = 1, multiplicity = 1:

       Center              X                  Y                   Z               Mass
    ------------   -----------------  -----------------  -----------------  -----------------
         O           -1.587648796244     0.853097132440    -0.278164133642    15.994914619570
         O           -1.049099796244    -1.245174867560     0.433866866358    15.994914619570
         N            1.522091203756    -0.985091867560    -0.158021133642    14.003074004430
         C            0.673517203756     0.222441832440    -0.386629533642    12.000000000000
         C            1.193486203756     1.417376132440     0.397848866358    12.000000000000
         C           -0.747347796244    -0.158519867560    -0.031996133642    12.000000000000
         H            0.724864203756     0.436248132440    -1.469466133642     1.007825032230
         H            1.194029203756    -1.792855867560    -0.701421133642     1.007825032230
         H            1.502921203756    -1.266237867560     0.829559866358     1.007825032230
         H            2.502285203756    -0.813312867560    -0.415615133642     1.007825032230
         H            1.146920303756     1.210103032440     1.469645366358     1.007825032230
         H            0.568679203756     2.281193132440     0.172989866358     1.007825032230
         H            2.221247203756     1.648290132440     0.111718866358     1.007825032230
         H           -2.493848796244     0.568779132440    -0.025540133642     1.007825032230

  Basis Set: AUG-CC-PVTZ
    Blend: AUG-CC-PVTZ
  Basis Set: (AUG-CC-PVTZ AUX)
    Blend: AUG-CC-PVTZ-JKFIT
	 Reference Energy          =    -322.3585696581782827 [Eh]
	 Singles Energy            =      -0.0000000000000000 [Eh]
	 Same-Spin Energy          =      -0.3116642269582235 [Eh]
	 Opposite-Spin Energy      =      -0.9976742560529064 [Eh]
	 Correlation Energy        =      -1.3093384830111299 [Eh]
	 Total Energy              =    -323.6679081411894003 [Eh]

	 ================> DF-SCS-MP2 Energies <==================
	-----------------------------------------------------------
	 SCS Same-Spin Scale       =       0.3333333333333333 [-]
	 SCS Opposite-Spin Scale   =       1.2000000000000000 [-]
	 SCS Same-Spin Energy      =      -0.1038880756527412 [Eh]
	 SCS Opposite-Spin Energy  =      -1.1972091072634876 [Eh]
	 SCS Correlation Energy    =      -1.3010971829162288 [Eh]
	 SCS Total Energy          =    -323.6596668410945199 [Eh]
	-----------------------------------------------------------

  Dipole Moment: [D]
     X:     5.6984      Y:    -1.2240      Z:    -1.0917     Total:     5.9297

*** Psi4 exiting successfully. Buy a developer a beer!
