                               Psi4 1.3.2 release

  ==> Input File <==

--------------------------------------------------------------------------
#psi4
#
memory 32 gb

molecule  {
1 1
  O       -1.6624030     0.8291070    -0.2765410
  O       -1.1238540    -1.2691650     0.4354900
  N        1.4473370    -1.0090820    -0.1563980
  C        0.6574864     0.1239980    -0.3803358
  C        1.1187320     1.3933860     0.3994720
  C       -0.8221020    -0.1825100    -0.0303730
  H        0.6501100     0.4122580    -1.4678430
  H        1.1192750    -1.8168460    -0.6997980
  H        1.4281670    -1.2902280     0.8311830
  H        2.4275310    -0.8373030    -0.4139920
  H        1.0757850     1.1947520     1.4730540
  H        0.4939250     2.2572030     0.1746130
  H        2.1464930     1.6243000     0.1133420
  H       -2.5686030     0.5447890    -0.0239170
units angstrom
no_reorient  #important for SAPT in psi4, default
symmetry c1  #important for SAPT in psi4, default
}

set PROPERTIES_ORIGIN ["COM"]
properties('MP2/aug-cc-pvtz', properties = ['dipole'])
--------------------------------------------------------------------------

    Molecular point group: c1
  Charge       = 1
  Multiplicity = 1
  Basis Set: AUG-CC-PVTZ
    Blend: AUG-CC-PVTZ
  Basis Set: (AUG-CC-PVTZ AUX)
    Blend: AUG-CC-PVTZ-JKFIT

    Orbital Energies [Eh]
    ---------------------

    Doubly Occupied:

       1A    -20.786742     2A    -20.730455     3A    -15.910260
       4A    -11.574806     5A    -11.504497     6A    -11.416688
       7A     -1.636962     8A     -1.557928     9A     -1.530207
      10A     -1.242959    11A     -1.102856    12A     -1.023603
      13A     -0.994904    14A     -0.981643    15A     -0.889177
      16A     -0.868740    17A     -0.842012    18A     -0.806535
      19A     -0.767045    20A     -0.740077    21A     -0.723335
      22A     -0.702062    23A     -0.654174    24A     -0.628561

  @DF-RHF Final Energy:  -322.34834358774356

   => Energetics <=

    Nuclear Repulsion Energy =            260.5030730300424011
    One-Electron Energy =                -946.4703705101858304
    Two-Electron Energy =                 363.6189538923998725
    Total Energy =                       -322.3483435877435568
  Basis Set: (AUG-CC-PVTZ AUX)
    Blend: AUG-CC-PVTZ-RI
    Molecular point group: c1

    Geometry (in Angstrom), charge = 1, multiplicity = 1:

       Center              X                  Y                   Z               Mass
    ------------   -----------------  -----------------  -----------------  -----------------
         O           -1.595514256882     0.862921492578    -0.278806478300    15.994914619570
         O           -1.056965256882    -1.235350507422     0.433224521700    15.994914619570
         N            1.514225743118    -0.975267507422    -0.158663478300    14.003074004430
         C            0.724375143118     0.157812492578    -0.382601278300    12.000000000000
         C            1.185620743118     1.427200492578     0.397206521700    12.000000000000
         C           -0.755213256882    -0.148695507422    -0.032638478300    12.000000000000
         H            0.716998743118     0.446072492578    -1.470108478300     1.007825032230
         H            1.186163743118    -1.783031507422    -0.702063478300     1.007825032230
         H            1.495055743118    -1.256413507422     0.828917521700     1.007825032230
         H            2.494419743118    -0.803488507422    -0.416257478300     1.007825032230
         H            1.142673743118     1.228566492578     1.470788521700     1.007825032230
         H            0.560813743118     2.291017492578     0.172347521700     1.007825032230
         H            2.213381743118     1.658114492578     0.111076521700     1.007825032230
         H           -2.501714256882     0.578603492578    -0.026182478300     1.007825032230

  Basis Set: AUG-CC-PVTZ
    Blend: AUG-CC-PVTZ
  Basis Set: (AUG-CC-PVTZ AUX)
    Blend: AUG-CC-PVTZ-JKFIT
	 Reference Energy          =    -322.3483435877435568 [Eh]
	 Singles Energy            =      -0.0000000000000000 [Eh]
	 Same-Spin Energy          =      -0.3119698208722306 [Eh]
	 Opposite-Spin Energy      =      -0.9975189090328506 [Eh]
	 Correlation Energy        =      -1.3094887299050813 [Eh]
	 Total Energy              =    -323.6578323176486265 [Eh]

	 ================> DF-SCS-MP2 Energies <==================
	-----------------------------------------------------------
	 SCS Same-Spin Scale       =       0.3333333333333333 [-]
	 SCS Opposite-Spin Scale   =       1.2000000000000000 [-]
	 SCS Same-Spin Energy      =      -0.1039899402907435 [Eh]
	 SCS Opposite-Spin Energy  =      -1.1970226908394206 [Eh]
	 SCS Correlation Energy    =      -1.3010126311301642 [Eh]
	 SCS Total Energy          =    -323.6493562188737201 [Eh]
	-----------------------------------------------------------

  Dipole Moment: [D]
     X:     5.7882      Y:    -1.3599      Z:    -1.0933     Total:     6.0455

*** Psi4 exiting successfully. Buy a developer a beer!
