                               Psi4 1.3.2 release

  ==> Input File <==

--------------------------------------------------------------------------
#psi4
#
memory 32 gb

molecule  {
0 1
  O        0.0239102     1.2227244    -0.0327429
  C       -0.7242590    -0.9887060     0.2422500
  C        0.7242680    -0.9886970    -0.2422570
  C       -1.1637400     0.4211370    -0.1388030
  C        1.1637350     0.4211420     0.1388200
  H       -1.3424580    -1.7652320    -0.2168500
  H       -0.7591500    -1.1180870     1.3290580
  H        1.3424710    -1.7652260     0.2168300
  H        0.7591600    -1.1180590    -1.3290680
  H       -1.5137280     0.4564660    -1.1799380
  H       -1.9528620     0.8231880     0.5042800
  H        1.5136860     0.4564610     1.1799670
  H        1.9528750     0.8232040    -0.5042320
units angstrom
no_reorient  #important for SAPT in psi4, default
symmetry c1  #important for SAPT in psi4, default
}

set PROPERTIES_ORIGIN ["COM"]
properties('MP2/aug-cc-pvtz', properties = ['dipole'])
--------------------------------------------------------------------------

    Molecular point group: c1
  Charge       = 0
  Multiplicity = 1
  Basis Set: AUG-CC-PVTZ
    Blend: AUG-CC-PVTZ
  Basis Set: (AUG-CC-PVTZ AUX)
    Blend: AUG-CC-PVTZ-JKFIT

    Orbital Energies [Eh]
    ---------------------

    Doubly Occupied:

       1A    -20.543284     2A    -11.271215     3A    -11.266798
       4A    -11.225904     5A    -11.224231     6A     -1.371313
       7A     -1.059674     8A     -0.991912     9A     -0.809140
      10A     -0.806806    11A     -0.684894    12A     -0.674123
      13A     -0.594428    14A     -0.587890    15A     -0.561034
      16A     -0.503815    17A     -0.493568    18A     -0.476058
      19A     -0.460409    20A     -0.406254

  @DF-RHF Final Energy:  -231.06146886010097

   => Energetics <=

    Nuclear Repulsion Energy =            191.5190826614602031
    One-Electron Energy =                -693.1356052814144277
    Two-Electron Energy =                 270.5550537598533083
    Total Energy =                       -231.0614688601009448
  Basis Set: (AUG-CC-PVTZ AUX)
    Blend: AUG-CC-PVTZ-RI
    Molecular point group: c1

    Geometry (in Angstrom), charge = 0, multiplicity = 1:

       Center              X                  Y                   Z               Mass
    ------------   -----------------  -----------------  -----------------  -----------------
         O            0.018602168475     1.185205727904    -0.025477141210    15.994914619570
         C           -0.729567031525    -1.026224672096     0.249515758790    12.000000000000
         C            0.718959968475    -1.026215672096    -0.234991241210    12.000000000000
         C           -1.169048031525     0.383618327904    -0.131537241210    12.000000000000
         C            1.158426968475     0.383623327904     0.146085758790    12.000000000000
         H           -1.347766031525    -1.802750672096    -0.209584241210     1.007825032230
         H           -0.764458031525    -1.155605672096     1.336323758790     1.007825032230
         H            1.337162968475    -1.802744672096     0.224095758790     1.007825032230
         H            0.753851968475    -1.155577672096    -1.321802241210     1.007825032230
         H           -1.519036031525     0.418947327904    -1.172672241210     1.007825032230
         H           -1.958170031525     0.785669327904     0.511545758790     1.007825032230
         H            1.508377968475     0.418942327904     1.187232758790     1.007825032230
         H            1.947566968475     0.785685327904    -0.496966241210     1.007825032230

  Basis Set: AUG-CC-PVTZ
    Blend: AUG-CC-PVTZ
  Basis Set: (AUG-CC-PVTZ AUX)
    Blend: AUG-CC-PVTZ-JKFIT
	 Reference Energy          =    -231.0614688601009732 [Eh]
	 Singles Energy            =      -0.0000000000000000 [Eh]
	 Same-Spin Energy          =      -0.2324572469310399 [Eh]
	 Opposite-Spin Energy      =      -0.7948188101230972 [Eh]
	 Correlation Energy        =      -1.0272760570541370 [Eh]
	 Total Energy              =    -232.0887449171551111 [Eh]

	 ================> DF-SCS-MP2 Energies <==================
	-----------------------------------------------------------
	 SCS Same-Spin Scale       =       0.3333333333333333 [-]
	 SCS Opposite-Spin Scale   =       1.2000000000000000 [-]
	 SCS Same-Spin Energy      =      -0.0774857489770133 [Eh]
	 SCS Opposite-Spin Energy  =      -0.9537825721477166 [Eh]
	 SCS Correlation Energy    =      -1.0312683211247298 [Eh]
	 SCS Total Energy          =    -232.0927371812257149 [Eh]
	-----------------------------------------------------------

  Dipole Moment: [D]
     X:    -0.1028      Y:    -1.7862      Z:     0.0401     Total:     1.7896

*** Psi4 exiting successfully. Buy a developer a beer!
