                               Psi4 1.3.2 release

  ==> Input File <==

--------------------------------------------------------------------------
#psi4
#
memory 32 gb

molecule  {
0 1
  O       -0.0000020     1.2522540    -0.0000130
  C       -0.7242590    -0.9887060     0.2422500
  C        0.7242680    -0.9886970    -0.2422570
  C       -1.1342298     0.3807416    -0.1352820
  C        1.1637350     0.4211420     0.1388200
  H       -1.3424580    -1.7652320    -0.2168500
  H       -0.7591500    -1.1180870     1.3290580
  H        1.3424710    -1.7652260     0.2168300
  H        0.7591600    -1.1180590    -1.3290680
  H       -1.5137280     0.4564660    -1.1799380
  H       -1.9528620     0.8231880     0.5042800
  H        1.5136860     0.4564610     1.1799670
  H        1.9528750     0.8232040    -0.5042320
units angstrom
no_reorient  #important for SAPT in psi4, default
symmetry c1  #important for SAPT in psi4, default
}

set PROPERTIES_ORIGIN ["COM"]
properties('MP2/aug-cc-pvtz', properties = ['dipole'])
--------------------------------------------------------------------------

    Molecular point group: c1
  Charge       = 0
  Multiplicity = 1
  Basis Set: AUG-CC-PVTZ
    Blend: AUG-CC-PVTZ
  Basis Set: (AUG-CC-PVTZ AUX)
    Blend: AUG-CC-PVTZ-JKFIT

    Orbital Energies [Eh]
    ---------------------

    Doubly Occupied:

       1A    -20.546023     2A    -11.271057     3A    -11.269619
       4A    -11.227315     5A    -11.225162     6A     -1.364018
       7A     -1.068734     8A     -0.990247     9A     -0.810730
      10A     -0.803653    11A     -0.683378    12A     -0.675316
      13A     -0.590147    14A     -0.584244    15A     -0.554014
      16A     -0.505435    17A     -0.498109    18A     -0.475718
      19A     -0.468573    20A     -0.404974

  @DF-RHF Final Energy:  -231.05736428518790

   => Energetics <=

    Nuclear Repulsion Energy =            191.4062079602578876
    One-Electron Energy =                -692.8942127165259990
    Two-Electron Energy =                 270.4306404710802099
    Total Energy =                       -231.0573642851878731
  Basis Set: (AUG-CC-PVTZ AUX)
    Blend: AUG-CC-PVTZ-RI
    Molecular point group: c1

    Geometry (in Angstrom), charge = 0, multiplicity = 1:

       Center              X                  Y                   Z               Mass
    ------------   -----------------  -----------------  -----------------  -----------------
         O           -0.004916579192     1.214907709220    -0.000598801966    15.994914619570
         C           -0.729173579192    -1.026052290780     0.241664198034    12.000000000000
         C            0.719353420808    -1.026043290780    -0.242842801966    12.000000000000
         C           -1.139144379192     0.343395309220    -0.135867801966    12.000000000000
         C            1.158820420808     0.383795709220     0.138234198034    12.000000000000
         H           -1.347372579192    -1.802578290780    -0.217435801966     1.007825032230
         H           -0.764064579192    -1.155433290780     1.328472198034     1.007825032230
         H            1.337556420808    -1.802572290780     0.216244198034     1.007825032230
         H            0.754245420808    -1.155405290780    -1.329653801966     1.007825032230
         H           -1.518642579192     0.419119709220    -1.180523801966     1.007825032230
         H           -1.957776579192     0.785841709220     0.503694198034     1.007825032230
         H            1.508771420808     0.419114709220     1.179381198034     1.007825032230
         H            1.947960420808     0.785857709220    -0.504817801966     1.007825032230

  Basis Set: AUG-CC-PVTZ
    Blend: AUG-CC-PVTZ
  Basis Set: (AUG-CC-PVTZ AUX)
    Blend: AUG-CC-PVTZ-JKFIT
	 Reference Energy          =    -231.0573642851879015 [Eh]
	 Singles Energy            =      -0.0000000000000000 [Eh]
	 Same-Spin Energy          =      -0.2330813465480976 [Eh]
	 Opposite-Spin Energy      =      -0.7962532311330319 [Eh]
	 Correlation Energy        =      -1.0293345776811296 [Eh]
	 Total Energy              =    -232.0866988628690422 [Eh]

	 ================> DF-SCS-MP2 Energies <==================
	-----------------------------------------------------------
	 SCS Same-Spin Scale       =       0.3333333333333333 [-]
	 SCS Opposite-Spin Scale   =       1.2000000000000000 [-]
	 SCS Same-Spin Energy      =      -0.0776937821826992 [Eh]
	 SCS Opposite-Spin Energy  =      -0.9555038773596383 [Eh]
	 SCS Correlation Energy    =      -1.0331976595423376 [Eh]
	 SCS Total Energy          =    -232.0905619447302399 [Eh]
	-----------------------------------------------------------

  Dipole Moment: [D]
     X:     0.0519      Y:    -1.9380      Z:     0.0046     Total:     1.9387

*** Psi4 exiting successfully. Buy a developer a beer!
