                               Psi4 1.3.2 release

  ==> Input File <==

--------------------------------------------------------------------------
#psi4
#
memory 32 gb

molecule  {
0 1
  O       -0.0000020     1.2522540    -0.0000130
  C       -0.7242590    -0.9887060     0.2422500
  C        0.7242680    -0.9886970    -0.2422570
  C       -1.1637400     0.4211370    -0.1388030
  C        1.1832330     0.4107925     0.1536940
  H       -1.3424580    -1.7652320    -0.2168500
  H       -0.7591500    -1.1180870     1.3290580
  H        1.3424710    -1.7652260     0.2168300
  H        0.7591600    -1.1180590    -1.3290680
  H       -1.5137280     0.4564660    -1.1799380
  H       -1.9528620     0.8231880     0.5042800
  H        1.5136860     0.4564610     1.1799670
  H        1.9528750     0.8232040    -0.5042320
units angstrom
no_reorient  #important for SAPT in psi4, default
symmetry c1  #important for SAPT in psi4, default
}

set PROPERTIES_ORIGIN ["COM"]
properties('MP2/aug-cc-pvtz', properties = ['dipole'])
--------------------------------------------------------------------------

    Molecular point group: c1
  Charge       = 0
  Multiplicity = 1
  Basis Set: AUG-CC-PVTZ
    Blend: AUG-CC-PVTZ
  Basis Set: (AUG-CC-PVTZ AUX)
    Blend: AUG-CC-PVTZ-JKFIT

    Orbital Energies [Eh]
    ---------------------

    Doubly Occupied:

       1A    -20.542438     2A    -11.269571     3A    -11.268256
       4A    -11.227047     5A    -11.226023     6A     -1.353353
       7A     -1.060820     8A     -0.988690     9A     -0.811114
      10A     -0.805987    11A     -0.681475    12A     -0.668405
      13A     -0.590967    14A     -0.586306    15A     -0.554517
      16A     -0.501495    17A     -0.493478    18A     -0.478016
      19A     -0.463213    20A     -0.409204

  @DF-RHF Final Energy:  -231.06009240742404

   => Energetics <=

    Nuclear Repulsion Energy =            190.4288797535081130
    One-Electron Energy =                -691.0171936173895801
    Two-Electron Energy =                 269.5282214564574588
    Total Energy =                       -231.0600924074240083
  Basis Set: (AUG-CC-PVTZ AUX)
    Blend: AUG-CC-PVTZ-RI
    Molecular point group: c1

    Geometry (in Angstrom), charge = 0, multiplicity = 1:

       Center              X                  Y                   Z               Mass
    ------------   -----------------  -----------------  -----------------  -----------------
         O           -0.003249211115     1.209904056226    -0.002489458343    15.994914619570
         C           -0.727506211115    -1.031055943774     0.239773541657    12.000000000000
         C            0.721020788885    -1.031046943774    -0.244733458343    12.000000000000
         C           -1.166987211115     0.378787056226    -0.141279458343    12.000000000000
         C            1.179985788885     0.368442556226     0.151217541657    12.000000000000
         H           -1.345705211115    -1.807581943774    -0.219326458343     1.007825032230
         H           -0.762397211115    -1.160436943774     1.326581541657     1.007825032230
         H            1.339223788885    -1.807575943774     0.214353541657     1.007825032230
         H            0.755912788885    -1.160408943774    -1.331544458343     1.007825032230
         H           -1.516975211115     0.414116056226    -1.182414458343     1.007825032230
         H           -1.956109211115     0.780838056226     0.501803541657     1.007825032230
         H            1.510438788885     0.414111056226     1.177490541657     1.007825032230
         H            1.949627788885     0.780854056226    -0.506708458343     1.007825032230

  Basis Set: AUG-CC-PVTZ
    Blend: AUG-CC-PVTZ
  Basis Set: (AUG-CC-PVTZ AUX)
    Blend: AUG-CC-PVTZ-JKFIT
	 Reference Energy          =    -231.0600924074240368 [Eh]
	 Singles Energy            =      -0.0000000000000000 [Eh]
	 Same-Spin Energy          =      -0.2326261615184618 [Eh]
	 Opposite-Spin Energy      =      -0.7960025370270541 [Eh]
	 Correlation Energy        =      -1.0286286985455160 [Eh]
	 Total Energy              =    -232.0887211059695403 [Eh]

	 ================> DF-SCS-MP2 Energies <==================
	-----------------------------------------------------------
	 SCS Same-Spin Scale       =       0.3333333333333333 [-]
	 SCS Opposite-Spin Scale   =       1.2000000000000000 [-]
	 SCS Same-Spin Energy      =      -0.0775420538394873 [Eh]
	 SCS Opposite-Spin Energy  =      -0.9552030444324650 [Eh]
	 SCS Correlation Energy    =      -1.0327450982719522 [Eh]
	 SCS Total Energy          =    -232.0928375056959965 [Eh]
	-----------------------------------------------------------

  Dipole Moment: [D]
     X:     0.0744      Y:    -1.9100      Z:     0.0324     Total:     1.9117

*** Psi4 exiting successfully. Buy a developer a beer!
