                               Psi4 1.3.2 release

  ==> Input File <==

--------------------------------------------------------------------------
#psi4
#
memory 32 gb

molecule  {
0 1
  O       -0.0000020     1.2522540    -0.0000130
  C       -0.7242590    -0.9887060     0.2422500
  C        0.7242680    -0.9886970    -0.2422570
  C       -1.0017462     0.5368295    -0.1194833
  C        1.1637350     0.4211420     0.1388200
  H       -1.3424580    -1.7652320    -0.2168500
  H       -0.7591500    -1.1180870     1.3290580
  H        1.3424710    -1.7652260     0.2168300
  H        0.7591600    -1.1180590    -1.3290680
  H       -1.5137280     0.4564660    -1.1799380
  H       -1.9528620     0.8231880     0.5042800
  H        1.5136860     0.4564610     1.1799670
  H        1.9528750     0.8232040    -0.5042320
units angstrom
no_reorient  #important for SAPT in psi4, default
symmetry c1  #important for SAPT in psi4, default
}

set PROPERTIES_ORIGIN ["COM"]
properties('MP2/aug-cc-pvtz', properties = ['dipole'])
--------------------------------------------------------------------------

    Molecular point group: c1
  Charge       = 0
  Multiplicity = 1
  Basis Set: AUG-CC-PVTZ
    Blend: AUG-CC-PVTZ
  Basis Set: (AUG-CC-PVTZ AUX)
    Blend: AUG-CC-PVTZ-JKFIT

    Orbital Energies [Eh]
    ---------------------

    Doubly Occupied:

       1A    -20.564000     2A    -11.284154     3A    -11.277327
       4A    -11.228209     5A    -11.223583     6A     -1.453552
       7A     -1.067470     8A     -0.990286     9A     -0.823101
      10A     -0.793417    11A     -0.702992    12A     -0.697396
      13A     -0.632079    14A     -0.583734    15A     -0.574137
      16A     -0.526831    17A     -0.492726    18A     -0.476779
      19A     -0.427937    20A     -0.383816

  @DF-RHF Final Energy:  -231.02041579059158

   => Energetics <=

    Nuclear Repulsion Energy =            193.5141064977763392
    One-Electron Energy =                -696.6619950019512544
    Two-Electron Energy =                 272.1274727135833587
    Total Energy =                       -231.0204157905915849
  Basis Set: (AUG-CC-PVTZ AUX)
    Blend: AUG-CC-PVTZ-RI
    Molecular point group: c1

    Geometry (in Angstrom), charge = 0, multiplicity = 1:

       Center              X                  Y                   Z               Mass
    ------------   -----------------  -----------------  -----------------  -----------------
         O           -0.026979554895     1.188913823597    -0.003229816931    15.994914619570
         C           -0.751236554895    -1.052046176403     0.239033183069    12.000000000000
         C            0.697290445105    -1.052037176403    -0.245473816931    12.000000000000
         C           -1.028723754895     0.473489323597    -0.122700116931    12.000000000000
         C            1.136757445105     0.357801823597     0.135603183069    12.000000000000
         H           -1.369435554895    -1.828572176403    -0.220066816931     1.007825032230
         H           -0.786127554895    -1.181427176403     1.325841183069     1.007825032230
         H            1.315493445105    -1.828566176403     0.213613183069     1.007825032230
         H            0.732182445105    -1.181399176403    -1.332284816931     1.007825032230
         H           -1.540705554895     0.393125823597    -1.183154816931     1.007825032230
         H           -1.979839554895     0.759847823597     0.501063183069     1.007825032230
         H            1.486708445105     0.393120823597     1.176750183069     1.007825032230
         H            1.925897445105     0.759863823597    -0.507448816931     1.007825032230

  Basis Set: AUG-CC-PVTZ
    Blend: AUG-CC-PVTZ
  Basis Set: (AUG-CC-PVTZ AUX)
    Blend: AUG-CC-PVTZ-JKFIT
	 Reference Energy          =    -231.0204157905915849 [Eh]
	 Singles Energy            =      -0.0000000000000000 [Eh]
	 Same-Spin Energy          =      -0.2334515871583101 [Eh]
	 Opposite-Spin Energy      =      -0.7949541119030387 [Eh]
	 Correlation Energy        =      -1.0284056990613488 [Eh]
	 Total Energy              =    -232.0488214896529371 [Eh]

	 ================> DF-SCS-MP2 Energies <==================
	-----------------------------------------------------------
	 SCS Same-Spin Scale       =       0.3333333333333333 [-]
	 SCS Opposite-Spin Scale   =       1.2000000000000000 [-]
	 SCS Same-Spin Energy      =      -0.0778171957194367 [Eh]
	 SCS Opposite-Spin Energy  =      -0.9539449342836464 [Eh]
	 SCS Correlation Energy    =      -1.0317621300030830 [Eh]
	 SCS Total Energy          =    -232.0521779205946586 [Eh]
	-----------------------------------------------------------

  Dipole Moment: [D]
     X:     0.8305      Y:    -1.5640      Z:     0.1785     Total:     1.7798

*** Psi4 exiting successfully. Buy a developer a beer!
