                               Psi4 1.3.2 release

  ==> Input File <==

--------------------------------------------------------------------------
#psi4
#
memory 32 gb

molecule  {
0 1
  O       -0.0000020     1.2522540    -0.0000130
  C       -0.7242590    -0.9887060     0.2422500
  C        0.7242680    -0.9886970    -0.2422570
  C       -1.2184726     0.5049151    -0.1453337
  C        1.1637350     0.4211420     0.1388200
  H       -1.3424580    -1.7652320    -0.2168500
  H       -0.7591500    -1.1180870     1.3290580
  H        1.3424710    -1.7652260     0.2168300
  H        0.7591600    -1.1180590    -1.3290680
  H       -1.5137280     0.4564660    -1.1799380
  H       -1.9528620     0.8231880     0.5042800
  H        1.5136860     0.4564610     1.1799670
  H        1.9528750     0.8232040    -0.5042320
units angstrom
no_reorient  #important for SAPT in psi4, default
symmetry c1  #important for SAPT in psi4, default
}

set PROPERTIES_ORIGIN ["COM"]
properties('MP2/aug-cc-pvtz', properties = ['dipole'])
--------------------------------------------------------------------------

    Molecular point group: c1
  Charge       = 0
  Multiplicity = 1
  Basis Set: AUG-CC-PVTZ
    Blend: AUG-CC-PVTZ
  Basis Set: (AUG-CC-PVTZ AUX)
    Blend: AUG-CC-PVTZ-JKFIT

    Orbital Energies [Eh]
    ---------------------

    Doubly Occupied:

       1A    -20.542407     2A    -11.270362     3A    -11.268994
       4A    -11.228086     5A    -11.224924     6A     -1.356929
       7A     -1.051061     8A     -0.986575     9A     -0.817921
      10A     -0.802766    11A     -0.682509    12A     -0.664168
      13A     -0.601121    14A     -0.587973    15A     -0.562414
      16A     -0.502844    17A     -0.487848    18A     -0.477021
      19A     -0.445678    20A     -0.409666

  @DF-RHF Final Energy:  -231.05234329013820

   => Energetics <=

    Nuclear Repulsion Energy =            189.5824861671579811
    One-Electron Energy =                -689.3271300845077576
    Two-Electron Energy =                 268.6923006272115799
    Total Energy =                       -231.0523432901381966
  Basis Set: (AUG-CC-PVTZ AUX)
    Blend: AUG-CC-PVTZ-RI
    Molecular point group: c1

    Geometry (in Angstrom), charge = 0, multiplicity = 1:

       Center              X                  Y                   Z               Mass
    ------------   -----------------  -----------------  -----------------  -----------------
         O            0.009112680653     1.194228644690     0.001075144189    15.994914619570
         C           -0.715144319347    -1.046731355310     0.243338144189    12.000000000000
         C            0.733382680653    -1.046722355310    -0.241168855811    12.000000000000
         C           -1.209357919347     0.446889744690    -0.144245555811    12.000000000000
         C            1.172849680653     0.363116644690     0.139908144189    12.000000000000
         H           -1.333343319347    -1.823257355310    -0.215761855811     1.007825032230
         H           -0.750035319347    -1.176112355310     1.330146144189     1.007825032230
         H            1.351585680653    -1.823251355310     0.217918144189     1.007825032230
         H            0.768274680653    -1.176084355310    -1.327979855811     1.007825032230
         H           -1.504613319347     0.398440644690    -1.178849855811     1.007825032230
         H           -1.943747319347     0.765162644690     0.505368144189     1.007825032230
         H            1.522800680653     0.398435644690     1.181055144189     1.007825032230
         H            1.961989680653     0.765178644690    -0.503143855811     1.007825032230

  Basis Set: AUG-CC-PVTZ
    Blend: AUG-CC-PVTZ
  Basis Set: (AUG-CC-PVTZ AUX)
    Blend: AUG-CC-PVTZ-JKFIT
	 Reference Energy          =    -231.0523432901381966 [Eh]
	 Singles Energy            =      -0.0000000000000000 [Eh]
	 Same-Spin Energy          =      -0.2321688075796151 [Eh]
	 Opposite-Spin Energy      =      -0.7955212269649712 [Eh]
	 Correlation Energy        =      -1.0276900345445863 [Eh]
	 Total Energy              =    -232.0800333246827734 [Eh]

	 ================> DF-SCS-MP2 Energies <==================
	-----------------------------------------------------------
	 SCS Same-Spin Scale       =       0.3333333333333333 [-]
	 SCS Opposite-Spin Scale   =       1.2000000000000000 [-]
	 SCS Same-Spin Energy      =      -0.0773896025265384 [Eh]
	 SCS Opposite-Spin Energy  =      -0.9546254723579654 [Eh]
	 SCS Correlation Energy    =      -1.0320150748845038 [Eh]
	 SCS Total Energy          =    -232.0843583650226947 [Eh]
	-----------------------------------------------------------

  Dipole Moment: [D]
     X:    -0.0670      Y:    -1.7751      Z:    -0.0100     Total:     1.7764

*** Psi4 exiting successfully. Buy a developer a beer!
