                               Psi4 1.3.2 release

  ==> Input File <==

--------------------------------------------------------------------------
#psi4
#
memory 32 gb

molecule  {
0 1
  O       -0.0000020     1.2522540    -0.0000130
  C       -0.7242590    -0.9887060     0.2422500
  C        0.7242680    -0.9886970    -0.2422570
  C       -1.1637400     0.4211370    -0.1388030
  C        1.1441031     0.4310621     0.1238299
  H       -1.3424580    -1.7652320    -0.2168500
  H       -0.7591500    -1.1180870     1.3290580
  H        1.3424710    -1.7652260     0.2168300
  H        0.7591600    -1.1180590    -1.3290680
  H       -1.5137280     0.4564660    -1.1799380
  H       -1.9528620     0.8231880     0.5042800
  H        1.5136860     0.4564610     1.1799670
  H        1.9528750     0.8232040    -0.5042320
units angstrom
no_reorient  #important for SAPT in psi4, default
symmetry c1  #important for SAPT in psi4, default
}

set PROPERTIES_ORIGIN ["COM"]
properties('MP2/aug-cc-pvtz', properties = ['dipole'])
--------------------------------------------------------------------------

    Molecular point group: c1
  Charge       = 0
  Multiplicity = 1
  Basis Set: AUG-CC-PVTZ
    Blend: AUG-CC-PVTZ
  Basis Set: (AUG-CC-PVTZ AUX)
    Blend: AUG-CC-PVTZ-JKFIT

    Orbital Energies [Eh]
    ---------------------

    Doubly Occupied:

       1A    -20.546763     2A    -11.271111     3A    -11.270010
       4A    -11.226661     5A    -11.225687     6A     -1.369825
       7A     -1.062203     8A     -0.989303     9A     -0.809699
      10A     -0.806009    11A     -0.683410    12A     -0.674444
      13A     -0.593115    14A     -0.585268    15A     -0.559863
      16A     -0.505657    17A     -0.493789    18A     -0.475317
      19A     -0.464446    20A     -0.405852

  @DF-RHF Final Energy:  -231.06078319823578

   => Energetics <=

    Nuclear Repulsion Energy =            191.1218436715877829
    One-Electron Energy =                -692.3283912095490678
    Two-Electron Energy =                 270.1457643397255310
    Total Energy =                       -231.0607831982357538
  Basis Set: (AUG-CC-PVTZ AUX)
    Blend: AUG-CC-PVTZ-RI
    Molecular point group: c1

    Geometry (in Angstrom), charge = 0, multiplicity = 1:

       Center              X                  Y                   Z               Mass
    ------------   -----------------  -----------------  -----------------  -----------------
         O            0.003267233434     1.206528486025     0.002483918835    15.994914619570
         C           -0.720989766566    -1.034431513975     0.244746918835    12.000000000000
         C            0.727537233434    -1.034422513975    -0.239760081165    12.000000000000
         C           -1.160470766566     0.375411486025    -0.136306081165    12.000000000000
         C            1.147372333434     0.385336586025     0.126326818835    12.000000000000
         H           -1.339188766566    -1.810957513975    -0.214353081165     1.007825032230
         H           -0.755880766566    -1.163812513975     1.331554918835     1.007825032230
         H            1.345740233434    -1.810951513975     0.219326918835     1.007825032230
         H            0.762429233434    -1.163784513975    -1.326571081165     1.007825032230
         H           -1.510458766566     0.410740486025    -1.177441081165     1.007825032230
         H           -1.949592766566     0.777462486025     0.506776918835     1.007825032230
         H            1.516955233434     0.410735486025     1.182463918835     1.007825032230
         H            1.956144233434     0.777478486025    -0.501735081165     1.007825032230

  Basis Set: AUG-CC-PVTZ
    Blend: AUG-CC-PVTZ
  Basis Set: (AUG-CC-PVTZ AUX)
    Blend: AUG-CC-PVTZ-JKFIT
	 Reference Energy          =    -231.0607831982357823 [Eh]
	 Singles Energy            =      -0.0000000000000000 [Eh]
	 Same-Spin Energy          =      -0.2325646067912016 [Eh]
	 Opposite-Spin Energy      =      -0.7953628906512435 [Eh]
	 Correlation Energy        =      -1.0279274974424450 [Eh]
	 Total Energy              =    -232.0887106956782304 [Eh]

	 ================> DF-SCS-MP2 Energies <==================
	-----------------------------------------------------------
	 SCS Same-Spin Scale       =       0.3333333333333333 [-]
	 SCS Opposite-Spin Scale   =       1.2000000000000000 [-]
	 SCS Same-Spin Energy      =      -0.0775215355970672 [Eh]
	 SCS Opposite-Spin Energy  =      -0.9544354687814922 [Eh]
	 SCS Correlation Energy    =      -1.0319570043785593 [Eh]
	 SCS Total Energy          =    -232.0927402026143511 [Eh]
	-----------------------------------------------------------

  Dipole Moment: [D]
     X:    -0.0799      Y:    -1.8516      Z:    -0.0361     Total:     1.8537

*** Psi4 exiting successfully. Buy a developer a beer!
