                               Psi4 1.3.2 release

  ==> Input File <==

--------------------------------------------------------------------------
#psi4
#
memory 32 gb

molecule  {
0 1
  O       -0.0000020     1.2522540    -0.0000130
  C       -0.7242590    -0.9887060     0.2422500
  C        0.7242680    -0.9886970    -0.2422570
  C       -1.1637400     0.4211370    -0.1388030
  C        1.1637350     0.4211420     0.1388200
  H       -1.3424580    -1.7652320    -0.2168500
  H       -0.7591500    -1.1180870     1.3290580
  H        1.3505299    -1.7784896     0.1819561
  H        0.7591600    -1.1180590    -1.3290680
  H       -1.5137280     0.4564660    -1.1799380
  H       -1.9528620     0.8231880     0.5042800
  H        1.5136860     0.4564610     1.1799670
  H        1.9528750     0.8232040    -0.5042320
units angstrom
no_reorient  #important for SAPT in psi4, default
symmetry c1  #important for SAPT in psi4, default
}

set PROPERTIES_ORIGIN ["COM"]
properties('MP2/aug-cc-pvtz', properties = ['dipole'])
--------------------------------------------------------------------------

    Molecular point group: c1
  Charge       = 0
  Multiplicity = 1
  Basis Set: AUG-CC-PVTZ
    Blend: AUG-CC-PVTZ
  Basis Set: (AUG-CC-PVTZ AUX)
    Blend: AUG-CC-PVTZ-JKFIT

    Orbital Energies [Eh]
    ---------------------

    Doubly Occupied:

       1A    -20.544824     2A    -11.269896     3A    -11.269828
       4A    -11.226744     5A    -11.226083     6A     -1.361522
       7A     -1.061233     8A     -0.988973     9A     -0.809021
      10A     -0.808184    11A     -0.681581    12A     -0.672061
      13A     -0.589515    14A     -0.587421    15A     -0.556527
      16A     -0.504344    17A     -0.494504    18A     -0.475529
      19A     -0.464216    20A     -0.408003

  @DF-RHF Final Energy:  -231.06096695600755

   => Energetics <=

    Nuclear Repulsion Energy =            190.7450657126522628
    One-Electron Energy =                -691.6120430727679604
    Two-Electron Energy =                 269.8060104041081217
    Total Energy =                       -231.0609669560075758
  Basis Set: (AUG-CC-PVTZ AUX)
    Blend: AUG-CC-PVTZ-RI
    Molecular point group: c1

    Geometry (in Angstrom), charge = 0, multiplicity = 1:

       Center              X                  Y                   Z               Mass
    ------------   -----------------  -----------------  -----------------  -----------------
         O           -0.000114853245     1.208366026333     0.000475323190    15.994914619570
         C           -0.724371853245    -1.032593973667     0.242738323190    12.000000000000
         C            0.724155146755    -1.032584973667    -0.241768676810    12.000000000000
         C           -1.163852853245     0.377249026333    -0.138314676810    12.000000000000
         C            1.163622146755     0.377254026333     0.139308323190    12.000000000000
         H           -1.342570853245    -1.809119973667    -0.216361676810     1.007825032230
         H           -0.759262853245    -1.161974973667     1.329546323190     1.007825032230
         H            1.350417046755    -1.822377573667     0.182444423190     1.007825032230
         H            0.759047146755    -1.161946973667    -1.328579676810     1.007825032230
         H           -1.513840853245     0.412578026333    -1.179449676810     1.007825032230
         H           -1.952974853245     0.779300026333     0.504768323190     1.007825032230
         H            1.513573146755     0.412573026333     1.180455323190     1.007825032230
         H            1.952762146755     0.779316026333    -0.503743676810     1.007825032230

  Basis Set: AUG-CC-PVTZ
    Blend: AUG-CC-PVTZ
  Basis Set: (AUG-CC-PVTZ AUX)
    Blend: AUG-CC-PVTZ-JKFIT
	 Reference Energy          =    -231.0609669560075474 [Eh]
	 Singles Energy            =      -0.0000000000000000 [Eh]
	 Same-Spin Energy          =      -0.2325611694048655 [Eh]
	 Opposite-Spin Energy      =      -0.7955950194169414 [Eh]
	 Correlation Energy        =      -1.0281561888218069 [Eh]
	 Total Energy              =    -232.0891231448293581 [Eh]

	 ================> DF-SCS-MP2 Energies <==================
	-----------------------------------------------------------
	 SCS Same-Spin Scale       =       0.3333333333333333 [-]
	 SCS Opposite-Spin Scale   =       1.2000000000000000 [-]
	 SCS Same-Spin Energy      =      -0.0775203898016218 [Eh]
	 SCS Opposite-Spin Energy  =      -0.9547140233003297 [Eh]
	 SCS Correlation Energy    =      -1.0322344131019516 [Eh]
	 SCS Total Energy          =    -232.0932013691094937 [Eh]
	-----------------------------------------------------------

  Dipole Moment: [D]
     X:     0.0024      Y:    -1.8842      Z:    -0.0090     Total:     1.8842

*** Psi4 exiting successfully. Buy a developer a beer!
