                               Psi4 1.3.2 release

  ==> Input File <==

--------------------------------------------------------------------------
#psi4
#
memory 32 gb

molecule  {
0 1
  O       -0.0000020     1.2522540    -0.0000130
  C       -0.7187033    -1.0093877     0.2581260
  C        0.7242680    -0.9886970    -0.2422570
  C       -1.1637400     0.4211370    -0.1388030
  C        1.1637350     0.4211420     0.1388200
  H       -1.3424580    -1.7652320    -0.2168500
  H       -0.7591500    -1.1180870     1.3290580
  H        1.3424710    -1.7652260     0.2168300
  H        0.7591600    -1.1180590    -1.3290680
  H       -1.5137280     0.4564660    -1.1799380
  H       -1.9528620     0.8231880     0.5042800
  H        1.5136860     0.4564610     1.1799670
  H        1.9528750     0.8232040    -0.5042320
units angstrom
no_reorient  #important for SAPT in psi4, default
symmetry c1  #important for SAPT in psi4, default
}

set PROPERTIES_ORIGIN ["COM"]
properties('MP2/aug-cc-pvtz', properties = ['dipole'])
--------------------------------------------------------------------------

    Molecular point group: c1
  Charge       = 0
  Multiplicity = 1
  Basis Set: AUG-CC-PVTZ
    Blend: AUG-CC-PVTZ
  Basis Set: (AUG-CC-PVTZ AUX)
    Blend: AUG-CC-PVTZ-JKFIT

    Orbital Energies [Eh]
    ---------------------

    Doubly Occupied:

       1A    -20.544534     2A    -11.270524     3A    -11.269720
       4A    -11.226430     5A    -11.225513     6A     -1.360590
       7A     -1.060195     8A     -0.986597     9A     -0.810387
      10A     -0.807171    11A     -0.681978    12A     -0.669448
      13A     -0.591182    14A     -0.587561    15A     -0.558706
      16A     -0.503686    17A     -0.489443    18A     -0.481400
      19A     -0.461009    20A     -0.407771

  @DF-RHF Final Energy:  -231.06056394872672

   => Energetics <=

    Nuclear Repulsion Energy =            190.4857842497834213
    One-Electron Energy =                -691.1050080553884527
    Two-Electron Energy =                 269.5586598568783074
    Total Energy =                       -231.0605639487267240
  Basis Set: (AUG-CC-PVTZ AUX)
    Blend: AUG-CC-PVTZ-RI
    Molecular point group: c1

    Geometry (in Angstrom), charge = 0, multiplicity = 1:

       Center              X                  Y                   Z               Mass
    ------------   -----------------  -----------------  -----------------  -----------------
         O           -0.000927349193     1.211624715067    -0.002656325047    15.994914619570
         C           -0.719628649193    -1.050016984933     0.255482674953    12.000000000000
         C            0.723342650807    -1.029326284933    -0.244900325047    12.000000000000
         C           -1.164665349193     0.380507715067    -0.141446325047    12.000000000000
         C            1.162809650807     0.380512715067     0.136176674953    12.000000000000
         H           -1.343383349193    -1.805861284933    -0.219493325047     1.007825032230
         H           -0.760075349193    -1.158716284933     1.326414674953     1.007825032230
         H            1.341545650807    -1.805855284933     0.214186674953     1.007825032230
         H            0.758234650807    -1.158688284933    -1.331711325047     1.007825032230
         H           -1.514653349193     0.415836715067    -1.182581325047     1.007825032230
         H           -1.953787349193     0.782558715067     0.501636674953     1.007825032230
         H            1.512760650807     0.415831715067     1.177323674953     1.007825032230
         H            1.951949650807     0.782574715067    -0.506875325047     1.007825032230

  Basis Set: AUG-CC-PVTZ
    Blend: AUG-CC-PVTZ
  Basis Set: (AUG-CC-PVTZ AUX)
    Blend: AUG-CC-PVTZ-JKFIT
	 Reference Energy          =    -231.0605639487267240 [Eh]
	 Singles Energy            =      -0.0000000000000000 [Eh]
	 Same-Spin Energy          =      -0.2324897721907866 [Eh]
	 Opposite-Spin Energy      =      -0.7956213083788390 [Eh]
	 Correlation Energy        =      -1.0281110805696256 [Eh]
	 Total Energy              =    -232.0886750292963541 [Eh]

	 ================> DF-SCS-MP2 Energies <==================
	-----------------------------------------------------------
	 SCS Same-Spin Scale       =       0.3333333333333333 [-]
	 SCS Opposite-Spin Scale   =       1.2000000000000000 [-]
	 SCS Same-Spin Energy      =      -0.0774965907302622 [Eh]
	 SCS Opposite-Spin Energy  =      -0.9547455700546068 [Eh]
	 SCS Correlation Energy    =      -1.0322421607848691 [Eh]
	 SCS Total Energy          =    -232.0928061095115993 [Eh]
	-----------------------------------------------------------

  Dipole Moment: [D]
     X:    -0.0004      Y:    -1.8726      Z:     0.0046     Total:     1.8726

*** Psi4 exiting successfully. Buy a developer a beer!
