                               Psi4 1.3.2 release

  ==> Input File <==

--------------------------------------------------------------------------
#psi4
#
memory 32 gb

molecule  {
0 1
  O       -0.0000020     1.2522540    -0.0000130
  C       -0.7340451    -0.9473488     0.2100601
  C        0.7242680    -0.9886970    -0.2422570
  C       -1.1637400     0.4211370    -0.1388030
  C        1.1637350     0.4211420     0.1388200
  H       -1.3424580    -1.7652320    -0.2168500
  H       -0.7591500    -1.1180870     1.3290580
  H        1.3424710    -1.7652260     0.2168300
  H        0.7591600    -1.1180590    -1.3290680
  H       -1.5137280     0.4564660    -1.1799380
  H       -1.9528620     0.8231880     0.5042800
  H        1.5136860     0.4564610     1.1799670
  H        1.9528750     0.8232040    -0.5042320
units angstrom
no_reorient  #important for SAPT in psi4, default
symmetry c1  #important for SAPT in psi4, default
}

set PROPERTIES_ORIGIN ["COM"]
properties('MP2/aug-cc-pvtz', properties = ['dipole'])
--------------------------------------------------------------------------

    Molecular point group: c1
  Charge       = 0
  Multiplicity = 1
  Basis Set: AUG-CC-PVTZ
    Blend: AUG-CC-PVTZ
  Basis Set: (AUG-CC-PVTZ AUX)
    Blend: AUG-CC-PVTZ-JKFIT

    Orbital Energies [Eh]
    ---------------------

    Doubly Occupied:

       1A    -20.544771     2A    -11.269589     3A    -11.267788
       4A    -11.228278     5A    -11.226555     6A     -1.363101
       7A     -1.064574     8A     -0.994050     9A     -0.811155
      10A     -0.802828    11A     -0.683417    12A     -0.675180
      13A     -0.590163    14A     -0.585708    15A     -0.554731
      16A     -0.507119    17A     -0.499142    18A     -0.468601
      19A     -0.465406    20A     -0.407931

  @DF-RHF Final Energy:  -231.05782361194878

   => Energetics <=

    Nuclear Repulsion Energy =            191.3622546626347969
    One-Electron Energy =                -692.8199817264320473
    Two-Electron Energy =                 270.3999034518485018
    Total Energy =                       -231.0578236119487769
  Basis Set: (AUG-CC-PVTZ AUX)
    Blend: AUG-CC-PVTZ-RI
    Molecular point group: c1

    Geometry (in Angstrom), charge = 0, multiplicity = 1:

       Center              X                  Y                   Z               Mass
    ------------   -----------------  -----------------  -----------------  -----------------
         O            0.001627576554     1.201293151437     0.005348264079    15.994914619570
         C           -0.732415523446    -0.998309648563     0.215421364079    12.000000000000
         C            0.725897576554    -1.039657848563    -0.236895735921    12.000000000000
         C           -1.162110423446     0.370176151437    -0.133441735921    12.000000000000
         C            1.165364576554     0.370181151437     0.144181264079    12.000000000000
         H           -1.340828423446    -1.816192848563    -0.211488735921     1.007825032230
         H           -0.757520423446    -1.169047848563     1.334419264079     1.007825032230
         H            1.344100576554    -1.816186848563     0.222191264079     1.007825032230
         H            0.760789576554    -1.169019848563    -1.323706735921     1.007825032230
         H           -1.512098423446     0.405505151437    -1.174576735921     1.007825032230
         H           -1.951232423446     0.772227151437     0.509641264079     1.007825032230
         H            1.515315576554     0.405500151437     1.185328264079     1.007825032230
         H            1.954504576554     0.772243151437    -0.498870735921     1.007825032230

  Basis Set: AUG-CC-PVTZ
    Blend: AUG-CC-PVTZ
  Basis Set: (AUG-CC-PVTZ AUX)
    Blend: AUG-CC-PVTZ-JKFIT
	 Reference Energy          =    -231.0578236119487769 [Eh]
	 Singles Energy            =      -0.0000000000000000 [Eh]
	 Same-Spin Energy          =      -0.2328995084089242 [Eh]
	 Opposite-Spin Energy      =      -0.7959722067471890 [Eh]
	 Correlation Energy        =      -1.0288717151561133 [Eh]
	 Total Energy              =    -232.0866953271048772 [Eh]

	 ================> DF-SCS-MP2 Energies <==================
	-----------------------------------------------------------
	 SCS Same-Spin Scale       =       0.3333333333333333 [-]
	 SCS Opposite-Spin Scale   =       1.2000000000000000 [-]
	 SCS Same-Spin Energy      =      -0.0776331694696414 [Eh]
	 SCS Opposite-Spin Energy  =      -0.9551666480966268 [Eh]
	 SCS Correlation Energy    =      -1.0327998175662683 [Eh]
	 SCS Total Energy          =    -232.0906234295150341 [Eh]
	-----------------------------------------------------------

  Dipole Moment: [D]
     X:     0.0034      Y:    -1.8930      Z:    -0.0136     Total:     1.8931

*** Psi4 exiting successfully. Buy a developer a beer!
