                               Psi4 1.3.2 release

  ==> Input File <==

--------------------------------------------------------------------------
#psi4
#
memory 32 gb

molecule  {
0 1
  O        0.0121332     1.2376136    -0.0163593
  C       -0.7242590    -0.9887060     0.2422500
  C        0.7242680    -0.9886970    -0.2422570
  C       -1.1637400     0.4211370    -0.1388030
  C        1.1637350     0.4211420     0.1388200
  H       -1.3424580    -1.7652320    -0.2168500
  H       -0.7591500    -1.1180870     1.3290580
  H        1.3424710    -1.7652260     0.2168300
  H        0.7591600    -1.1180590    -1.3290680
  H       -1.5137280     0.4564660    -1.1799380
  H       -1.9528620     0.8231880     0.5042800
  H        1.5136860     0.4564610     1.1799670
  H        1.9528750     0.8232040    -0.5042320
units angstrom
no_reorient  #important for SAPT in psi4, default
symmetry c1  #important for SAPT in psi4, default
}

set PROPERTIES_ORIGIN ["COM"]
properties('MP2/aug-cc-pvtz', properties = ['dipole'])
--------------------------------------------------------------------------

    Molecular point group: c1
  Charge       = 0
  Multiplicity = 1
  Basis Set: AUG-CC-PVTZ
    Blend: AUG-CC-PVTZ
  Basis Set: (AUG-CC-PVTZ AUX)
    Blend: AUG-CC-PVTZ-JKFIT

    Orbital Energies [Eh]
    ---------------------

    Doubly Occupied:

       1A    -20.543924     2A    -11.270427     3A    -11.268207
       4A    -11.226192     5A    -11.225203     6A     -1.366261
       7A     -1.060531     8A     -0.990425     9A     -0.808402
      10A     -0.807697    11A     -0.683585    12A     -0.672714
      13A     -0.591785    14A     -0.587860    15A     -0.559385
      16A     -0.503553    17A     -0.493605    18A     -0.476350
      19A     -0.462396    20A     -0.407080

  @DF-RHF Final Energy:  -231.06155680674331

   => Energetics <=

    Nuclear Repulsion Energy =            191.1442489592449476
    One-Electron Energy =                -692.4004504875282464
    Two-Electron Energy =                 270.1946447215400440
    Total Energy =                       -231.0615568067432832
  Basis Set: (AUG-CC-PVTZ AUX)
    Blend: AUG-CC-PVTZ-RI
    Molecular point group: c1

    Geometry (in Angstrom), charge = 0, multiplicity = 1:

       Center              X                  Y                   Z               Mass
    ------------   -----------------  -----------------  -----------------  -----------------
         O            0.009439359511     1.196789908529    -0.012730278941    15.994914619570
         C           -0.726952840489    -1.029529691471     0.245879021059    12.000000000000
         C            0.721574159511    -1.029520691471    -0.238627978941    12.000000000000
         C           -1.166433840489     0.380313308529    -0.135173978941    12.000000000000
         C            1.161041159511     0.380318308529     0.142449021059    12.000000000000
         H           -1.345151840489    -1.806055691471    -0.213220978941     1.007825032230
         H           -0.761843840489    -1.158910691471     1.332687021059     1.007825032230
         H            1.339777159511    -1.806049691471     0.220459021059     1.007825032230
         H            0.756466159511    -1.158882691471    -1.325438978941     1.007825032230
         H           -1.516421840489     0.415642308529    -1.176308978941     1.007825032230
         H           -1.955555840489     0.782364308529     0.507909021059     1.007825032230
         H            1.510992159511     0.415637308529     1.183596021059     1.007825032230
         H            1.950181159511     0.782380308529    -0.500602978941     1.007825032230

  Basis Set: AUG-CC-PVTZ
    Blend: AUG-CC-PVTZ
  Basis Set: (AUG-CC-PVTZ AUX)
    Blend: AUG-CC-PVTZ-JKFIT
	 Reference Energy          =    -231.0615568067433117 [Eh]
	 Singles Energy            =      -0.0000000000000000 [Eh]
	 Same-Spin Energy          =      -0.2325046532316296 [Eh]
	 Opposite-Spin Energy      =      -0.7952075309278162 [Eh]
	 Correlation Energy        =      -1.0277121841594457 [Eh]
	 Total Energy              =    -232.0892689909027524 [Eh]

	 ================> DF-SCS-MP2 Energies <==================
	-----------------------------------------------------------
	 SCS Same-Spin Scale       =       0.3333333333333333 [-]
	 SCS Opposite-Spin Scale   =       1.2000000000000000 [-]
	 SCS Same-Spin Energy      =      -0.0775015510772099 [Eh]
	 SCS Opposite-Spin Energy  =      -0.9542490371133794 [Eh]
	 SCS Correlation Energy    =      -1.0317505881905893 [Eh]
	 SCS Total Energy          =    -232.0933073949339018 [Eh]
	-----------------------------------------------------------

  Dipole Moment: [D]
     X:    -0.0513      Y:    -1.8343      Z:     0.0204     Total:     1.8351

*** Psi4 exiting successfully. Buy a developer a beer!
