                               Psi4 1.3.2 release

  ==> Input File <==

--------------------------------------------------------------------------
#psi4
#
memory 32 gb

molecule  {
0 1
  O       -0.0000020     1.2522540    -0.0000130
  C       -0.7242590    -0.9887060     0.2422500
  C        0.7242680    -0.9886970    -0.2422570
  C       -1.3257338     0.3054445    -0.1581227
  C        1.1637350     0.4211420     0.1388200
  H       -1.3424580    -1.7652320    -0.2168500
  H       -0.7591500    -1.1180870     1.3290580
  H        1.3424710    -1.7652260     0.2168300
  H        0.7591600    -1.1180590    -1.3290680
  H       -1.5137280     0.4564660    -1.1799380
  H       -1.9528620     0.8231880     0.5042800
  H        1.5136860     0.4564610     1.1799670
  H        1.9528750     0.8232040    -0.5042320
units angstrom
no_reorient  #important for SAPT in psi4, default
symmetry c1  #important for SAPT in psi4, default
}

set PROPERTIES_ORIGIN ["COM"]
properties('MP2/aug-cc-pvtz', properties = ['dipole'])
--------------------------------------------------------------------------

    Molecular point group: c1
  Charge       = 0
  Multiplicity = 1
  Basis Set: AUG-CC-PVTZ
    Blend: AUG-CC-PVTZ
  Basis Set: (AUG-CC-PVTZ AUX)
    Blend: AUG-CC-PVTZ-JKFIT

    Orbital Energies [Eh]
    ---------------------

    Doubly Occupied:

       1A    -20.525657     2A    -11.277045     3A    -11.259324
       4A    -11.231825     5A    -11.226835     6A     -1.307138
       7A     -1.065682     8A     -0.989978     9A     -0.822355
      10A     -0.799394    11A     -0.680731    12A     -0.655015
      13A     -0.605894    14A     -0.572936    15A     -0.531425
      16A     -0.516383    17A     -0.491839    18A     -0.482464
      19A     -0.439372    20A     -0.403427

  @DF-RHF Final Energy:  -231.03206618958433

   => Energetics <=

    Nuclear Repulsion Energy =            188.4403183391115419
    One-Electron Energy =                -687.1753274239134726
    Two-Electron Energy =                 267.7029428952176318
    Total Energy =                       -231.0320661895843273
  Basis Set: (AUG-CC-PVTZ AUX)
    Blend: AUG-CC-PVTZ-RI
    Molecular point group: c1

    Geometry (in Angstrom), charge = 0, multiplicity = 1:

       Center              X                  Y                   Z               Mass
    ------------   -----------------  -----------------  -----------------  -----------------
         O            0.026975278360     1.227447209111     0.003204942868    15.994914619570
         C           -0.697281721640    -1.013512790889     0.245467942868    12.000000000000
         C            0.751245278360    -1.013503790889    -0.239039057132    12.000000000000
         C           -1.298756521640     0.280637709111    -0.154904757132    12.000000000000
         C            1.190712278360     0.396335209111     0.142037942868    12.000000000000
         H           -1.315480721640    -1.790038790889    -0.213632057132     1.007825032230
         H           -0.732172721640    -1.142893790889     1.332275942868     1.007825032230
         H            1.369448278360    -1.790032790889     0.220047942868     1.007825032230
         H            0.786137278360    -1.142865790889    -1.325850057132     1.007825032230
         H           -1.486750721640     0.431659209111    -1.176720057132     1.007825032230
         H           -1.925884721640     0.798381209111     0.507497942868     1.007825032230
         H            1.540663278360     0.431654209111     1.183184942868     1.007825032230
         H            1.979852278360     0.798397209111    -0.501014057132     1.007825032230

  Basis Set: AUG-CC-PVTZ
    Blend: AUG-CC-PVTZ
  Basis Set: (AUG-CC-PVTZ AUX)
    Blend: AUG-CC-PVTZ-JKFIT
	 Reference Energy          =    -231.0320661895843273 [Eh]
	 Singles Energy            =      -0.0000000000000000 [Eh]
	 Same-Spin Energy          =      -0.2342736125977041 [Eh]
	 Opposite-Spin Energy      =      -0.8005326669086570 [Eh]
	 Correlation Energy        =      -1.0348062795063611 [Eh]
	 Total Energy              =    -232.0668724690906970 [Eh]

	 ================> DF-SCS-MP2 Energies <==================
	-----------------------------------------------------------
	 SCS Same-Spin Scale       =       0.3333333333333333 [-]
	 SCS Opposite-Spin Scale   =       1.2000000000000000 [-]
	 SCS Same-Spin Energy      =      -0.0780912041992347 [Eh]
	 SCS Opposite-Spin Energy  =      -0.9606392002903883 [Eh]
	 SCS Correlation Energy    =      -1.0387304044896231 [Eh]
	 SCS Total Energy          =    -232.0707965940739541 [Eh]
	-----------------------------------------------------------

  Dipole Moment: [D]
     X:    -0.4642      Y:    -2.1355      Z:    -0.0856     Total:     2.1871

*** Psi4 exiting successfully. Buy a developer a beer!
