                               Psi4 1.3.2 release

  ==> Input File <==

--------------------------------------------------------------------------
#psi4
#
memory 32 gb

molecule  {
0 1
  O       -0.0000020     1.2522540    -0.0000130
  C       -0.7242590    -0.9887060     0.2422500
  C        0.7242680    -0.9886970    -0.2422570
  C       -1.0827431     0.4789833    -0.1291431
  C        1.1637350     0.4211420     0.1388200
  H       -1.3424580    -1.7652320    -0.2168500
  H       -0.7591500    -1.1180870     1.3290580
  H        1.3424710    -1.7652260     0.2168300
  H        0.7591600    -1.1180590    -1.3290680
  H       -1.5137280     0.4564660    -1.1799380
  H       -1.9528620     0.8231880     0.5042800
  H        1.5136860     0.4564610     1.1799670
  H        1.9528750     0.8232040    -0.5042320
units angstrom
no_reorient  #important for SAPT in psi4, default
symmetry c1  #important for SAPT in psi4, default
}

set PROPERTIES_ORIGIN ["COM"]
properties('MP2/aug-cc-pvtz', properties = ['dipole'])
--------------------------------------------------------------------------

    Molecular point group: c1
  Charge       = 0
  Multiplicity = 1
  Basis Set: AUG-CC-PVTZ
    Blend: AUG-CC-PVTZ
  Basis Set: (AUG-CC-PVTZ AUX)
    Blend: AUG-CC-PVTZ-JKFIT

    Orbital Energies [Eh]
    ---------------------

    Doubly Occupied:

       1A    -20.553551     2A    -11.276039     3A    -11.271617
       4A    -11.226886     5A    -11.224747     6A     -1.401052
       7A     -1.062636     8A     -0.989040     9A     -0.814364
      10A     -0.800928    11A     -0.689827    12A     -0.682190
      13A     -0.608434    14A     -0.580357    15A     -0.570061
      16A     -0.514123    17A     -0.490990    18A     -0.475059
      19A     -0.451428    20A     -0.400450

  @DF-RHF Final Energy:  -231.05329527692072

   => Energetics <=

    Nuclear Repulsion Energy =            192.0632390152068751
    One-Electron Energy =                -694.0655133970012685
    Two-Electron Energy =                 270.9489791048736720
    Total Energy =                       -231.0532952769207213
  Basis Set: (AUG-CC-PVTZ AUX)
    Blend: AUG-CC-PVTZ-RI
    Molecular point group: c1

    Geometry (in Angstrom), charge = 0, multiplicity = 1:

       Center              X                  Y                   Z               Mass
    ------------   -----------------  -----------------  -----------------  -----------------
         O           -0.013490846581     1.198547161649    -0.001621135308    15.994914619570
         C           -0.737747846581    -1.042412838351     0.240641864692    12.000000000000
         C            0.710779153419    -1.042403838351    -0.243865135308    12.000000000000
         C           -1.096231946581     0.425276461649    -0.130751235308    12.000000000000
         C            1.150246153419     0.367435161649     0.137211864692    12.000000000000
         H           -1.355946846581    -1.818938838351    -0.218458135308     1.007825032230
         H           -0.772638846581    -1.171793838351     1.327449864692     1.007825032230
         H            1.328982153419    -1.818932838351     0.215221864692     1.007825032230
         H            0.745671153419    -1.171765838351    -1.330676135308     1.007825032230
         H           -1.527216846581     0.402759161649    -1.181546135308     1.007825032230
         H           -1.966350846581     0.769481161649     0.502671864692     1.007825032230
         H            1.500197153419     0.402754161649     1.178358864692     1.007825032230
         H            1.939386153419     0.769497161649    -0.505840135308     1.007825032230

  Basis Set: AUG-CC-PVTZ
    Blend: AUG-CC-PVTZ
  Basis Set: (AUG-CC-PVTZ AUX)
    Blend: AUG-CC-PVTZ-JKFIT
	 Reference Energy          =    -231.0532952769207213 [Eh]
	 Singles Energy            =      -0.0000000000000000 [Eh]
	 Same-Spin Energy          =      -0.2326504765386651 [Eh]
	 Opposite-Spin Energy      =      -0.7946851950532681 [Eh]
	 Correlation Energy        =      -1.0273356715919331 [Eh]
	 Total Energy              =    -232.0806309485126633 [Eh]

	 ================> DF-SCS-MP2 Energies <==================
	-----------------------------------------------------------
	 SCS Same-Spin Scale       =       0.3333333333333333 [-]
	 SCS Opposite-Spin Scale   =       1.2000000000000000 [-]
	 SCS Same-Spin Energy      =      -0.0775501588462217 [Eh]
	 SCS Opposite-Spin Energy  =      -0.9536222340639217 [Eh]
	 SCS Correlation Energy    =      -1.0311723929101433 [Eh]
	 SCS Total Energy          =    -232.0844676698308717 [Eh]
	-----------------------------------------------------------

  Dipole Moment: [D]
     X:     0.3570      Y:    -1.7333      Z:     0.0737     Total:     1.7713

*** Psi4 exiting successfully. Buy a developer a beer!
