                               Psi4 1.3.2 release

  ==> Input File <==

--------------------------------------------------------------------------
#psi4
#
memory 32 gb

molecule  {
0 1
  O       -0.0260482     1.2118730    -0.0143662
  C       -0.7242590    -0.9887060     0.2422500
  C        0.7242680    -0.9886970    -0.2422570
  C       -1.1637400     0.4211370    -0.1388030
  C        1.1637350     0.4211420     0.1388200
  H       -1.3424580    -1.7652320    -0.2168500
  H       -0.7591500    -1.1180870     1.3290580
  H        1.3424710    -1.7652260     0.2168300
  H        0.7591600    -1.1180590    -1.3290680
  H       -1.5137280     0.4564660    -1.1799380
  H       -1.9528620     0.8231880     0.5042800
  H        1.5136860     0.4564610     1.1799670
  H        1.9528750     0.8232040    -0.5042320
units angstrom
no_reorient  #important for SAPT in psi4, default
symmetry c1  #important for SAPT in psi4, default
}

set PROPERTIES_ORIGIN ["COM"]
properties('MP2/aug-cc-pvtz', properties = ['dipole'])
--------------------------------------------------------------------------

    Molecular point group: c1
  Charge       = 0
  Multiplicity = 1
  Basis Set: AUG-CC-PVTZ
    Blend: AUG-CC-PVTZ
  Basis Set: (AUG-CC-PVTZ AUX)
    Blend: AUG-CC-PVTZ-JKFIT

    Orbital Energies [Eh]
    ---------------------

    Doubly Occupied:

       1A    -20.542620     2A    -11.272219     3A    -11.265363
       4A    -11.225490     5A    -11.223751     6A     -1.375392
       7A     -1.059093     8A     -0.993101     9A     -0.810042
      10A     -0.805785    11A     -0.686041    12A     -0.675260
      13A     -0.596546    14A     -0.587364    15A     -0.563147
      16A     -0.503958    17A     -0.493594    18A     -0.475993
      19A     -0.458753    20A     -0.405300

  @DF-RHF Final Energy:  -231.06126378517976

   => Energetics <=

    Nuclear Repulsion Energy =            191.8144122574910568
    One-Electron Energy =                -693.7137298728958967
    Two-Electron Energy =                 270.8380538302250784
    Total Energy =                       -231.0612637851797331
  Basis Set: (AUG-CC-PVTZ AUX)
    Blend: AUG-CC-PVTZ-RI
    Molecular point group: c1

    Geometry (in Angstrom), charge = 0, multiplicity = 1:

       Center              X                  Y                   Z               Mass
    ------------   -----------------  -----------------  -----------------  -----------------
         O           -0.020266751907     1.176763059551    -0.011179595868    15.994914619570
         C           -0.718477551907    -1.023815940449     0.245436604132    12.000000000000
         C            0.730049448093    -1.023806940449    -0.239070395868    12.000000000000
         C           -1.157958551907     0.386027059551    -0.135616395868    12.000000000000
         C            1.169516448093     0.386032059551     0.142006604132    12.000000000000
         H           -1.336676551907    -1.800341940449    -0.213663395868     1.007825032230
         H           -0.753368551907    -1.153196940449     1.332244604132     1.007825032230
         H            1.348252448093    -1.800335940449     0.220016604132     1.007825032230
         H            0.764941448093    -1.153168940449    -1.325881395868     1.007825032230
         H           -1.507946551907     0.421356059551    -1.176751395868     1.007825032230
         H           -1.947080551907     0.788078059551     0.507466604132     1.007825032230
         H            1.519467448093     0.421351059551     1.183153604132     1.007825032230
         H            1.958656448093     0.788094059551    -0.501045395868     1.007825032230

  Basis Set: AUG-CC-PVTZ
    Blend: AUG-CC-PVTZ
  Basis Set: (AUG-CC-PVTZ AUX)
    Blend: AUG-CC-PVTZ-JKFIT
	 Reference Energy          =    -231.0612637851797615 [Eh]
	 Singles Energy            =      -0.0000000000000000 [Eh]
	 Same-Spin Energy          =      -0.2324066318828742 [Eh]
	 Opposite-Spin Energy      =      -0.7944949466213745 [Eh]
	 Correlation Energy        =      -1.0269015785042488 [Eh]
	 Total Energy              =    -232.0881653636839985 [Eh]

	 ================> DF-SCS-MP2 Energies <==================
	-----------------------------------------------------------
	 SCS Same-Spin Scale       =       0.3333333333333333 [-]
	 SCS Opposite-Spin Scale   =       1.2000000000000000 [-]
	 SCS Same-Spin Energy      =      -0.0774688772942914 [Eh]
	 SCS Opposite-Spin Energy  =      -0.9533939359456494 [Eh]
	 SCS Correlation Energy    =      -1.0308628132399407 [Eh]
	 SCS Total Energy          =    -232.0921265984196964 [Eh]
	-----------------------------------------------------------

  Dipole Moment: [D]
     X:     0.1405      Y:    -1.7518      Z:     0.0431     Total:     1.7579

*** Psi4 exiting successfully. Buy a developer a beer!
