                               Psi4 1.4a3.dev225

  ==> Input File <==

--------------------------------------------------------------------------
#psi4
#
memory 32 gb

molecule  {
0 1
  O        0.0000050    -1.2522320    -0.0000130
  C        0.7242410     0.9886740     0.2423340
  C       -0.7242550     0.9886620    -0.2423410
  C        1.1475678    -0.4326543    -0.1369312
  C       -1.1637580    -0.4210950     0.1388810
  H        1.3425610     1.7653610    -0.2163320
  H        0.7589520     1.1177070     1.3292070
  H       -1.3425830     1.7653500     0.2163130
  H       -0.7589690     1.1176750    -1.3292170
  H        1.5136340    -0.4563640    -1.1800500
  H        1.9530090    -0.8232070     0.5040550
  H       -1.5135900    -0.4563680     1.1800790
  H       -1.9530190    -0.8232310    -0.5040080
units angstrom
no_reorient  #important for SAPT in psi4, default
symmetry c1  #important for SAPT in psi4, default
}

set PROPERTIES_ORIGIN ["COM"]
properties('MP2/aug-cc-pvtz', properties = ['dipole'])
--------------------------------------------------------------------------

    Molecular point group: c1
  Charge       = 0
  Multiplicity = 1
  Basis Set: AUG-CC-PVTZ
    Blend: AUG-CC-PVTZ
  Basis Set: (AUG-CC-PVTZ AUX)
    Blend: AUG-CC-PVTZ-JKFIT

    Orbital Energies [Eh]
    ---------------------

    Doubly Occupied:

       1A    -20.546347     2A    -11.270841     3A    -11.269749
       4A    -11.226543     5A    -11.225803     6A     -1.368414
       7A     -1.061435     8A     -0.988908     9A     -0.808952
      10A     -0.807002    11A     -0.683400    12A     -0.673298
      13A     -0.592642    14A     -0.586202    15A     -0.560069
      16A     -0.505233    17A     -0.492380    18A     -0.476107
      19A     -0.463088    20A     -0.407091

  @DF-RHF Final Energy:  -231.06111914986113

   => Energetics <=

    Nuclear Repulsion Energy =            191.0198302237188557
    One-Electron Energy =                -692.1348939118466888
    Two-Electron Energy =                 270.0539445382667623
    Total Energy =                       -231.0611191498610992
  Basis Set: (AUG-CC-PVTZ AUX)
    Blend: AUG-CC-PVTZ-RI
    Molecular point group: c1

    Geometry (in Angstrom), charge = 0, multiplicity = 1:

       Center              X                  Y                   Z               Mass
    ------------   -----------------  -----------------  -----------------  -----------------
         O            0.002702504416    -1.206236988186    -0.000334313244    15.994914619570
         C            0.726938504416     1.034669011814     0.242012686756    12.000000000000
         C           -0.721557495584     1.034657011814    -0.242662313244    12.000000000000
         C            1.150265304416    -0.386659288186    -0.137252513244    12.000000000000
         C           -1.161060495584    -0.375099988186     0.138559686756    12.000000000000
         H            1.345258504416     1.811356011814    -0.216653313244     1.007825032230
         H            0.761649504416     1.163702011814     1.328885686756     1.007825032230
         H           -1.339885495584     1.811345011814     0.215991686756     1.007825032230
         H           -0.756271495584     1.163670011814    -1.329538313244     1.007825032230
         H            1.516331504416    -0.410368988186    -1.180371313244     1.007825032230
         H            1.955706504416    -0.777211988186     0.503733686756     1.007825032230
         H           -1.510892495584    -0.410372988186     1.179757686756     1.007825032230
         H           -1.950321495584    -0.777235988186    -0.504329313244     1.007825032230

  Basis Set: AUG-CC-PVTZ
    Blend: AUG-CC-PVTZ
  Basis Set: (AUG-CC-PVTZ AUX)
    Blend: AUG-CC-PVTZ-JKFIT
	 Reference Energy          =    -231.0611191498611277 [Eh]
	 Singles Energy            =      -0.0000000000000000 [Eh]
	 Same-Spin Energy          =      -0.2325350099851977 [Eh]
	 Opposite-Spin Energy      =      -0.7953619534064966 [Eh]
	 Correlation Energy        =      -1.0278969633916943 [Eh]
	 Total Energy              =    -232.0890161132528249 [Eh]

	 ================> DF-SCS-MP2 Energies <==================
	-----------------------------------------------------------
	 SCS Same-Spin Scale       =       0.3333333333333333 [-]
	 SCS Opposite-Spin Scale   =       1.2000000000000000 [-]
	 SCS Same-Spin Energy      =      -0.0775116699950659 [Eh]
	 SCS Opposite-Spin Energy  =      -0.9544343440877959 [Eh]
	 SCS Correlation Energy    =      -1.0319460140828618 [Eh]
	 SCS Total Energy          =    -232.0930651639439759 [Eh]
	-----------------------------------------------------------

  Dipole Moment: [D]
     X:    -0.0637      Y:     1.8526      Z:     0.0127     Total:     1.8537

*** Psi4 exiting successfully. Buy a developer a beer!
