                               Psi4 1.3.2 release

  ==> Input File <==

--------------------------------------------------------------------------
#psi4
#
memory 32 gb

molecule  {
0 1
  O        0.0563104     1.3299302     0.0291831
  C       -0.7242590    -0.9887060     0.2422500
  C        0.7242680    -0.9886970    -0.2422570
  C       -1.1637400     0.4211370    -0.1388030
  C        1.1637350     0.4211420     0.1388200
  H       -1.3424580    -1.7652320    -0.2168500
  H       -0.7591500    -1.1180870     1.3290580
  H        1.3424710    -1.7652260     0.2168300
  H        0.7591600    -1.1180590    -1.3290680
  H       -1.5137280     0.4564660    -1.1799380
  H       -1.9528620     0.8231880     0.5042800
  H        1.5136860     0.4564610     1.1799670
  H        1.9528750     0.8232040    -0.5042320
units angstrom
no_reorient  #important for SAPT in psi4, default
symmetry c1  #important for SAPT in psi4, default
}

set PROPERTIES_ORIGIN ["COM"]
properties('MP2/aug-cc-pvtz', properties = ['dipole'])
--------------------------------------------------------------------------

    Molecular point group: c1
  Charge       = 0
  Multiplicity = 1
  Basis Set: AUG-CC-PVTZ
    Blend: AUG-CC-PVTZ
  Basis Set: (AUG-CC-PVTZ AUX)
    Blend: AUG-CC-PVTZ-JKFIT

    Orbital Energies [Eh]
    ---------------------

    Doubly Occupied:

       1A    -20.547653     2A    -11.278524     3A    -11.265351
       4A    -11.231139     5A    -11.228172     6A     -1.337565
       7A     -1.066913     8A     -0.981594     9A     -0.814656
      10A     -0.803017    11A     -0.676839    12A     -0.664885
      13A     -0.590433    14A     -0.579250    15A     -0.544745
      16A     -0.503310    17A     -0.492844    18A     -0.478770
      19A     -0.469047    20A     -0.410718

  @DF-RHF Final Energy:  -231.05127974333712

   => Energetics <=

    Nuclear Repulsion Energy =            188.8211401589189222
    One-Electron Energy =                -687.8139907812043248
    Two-Electron Energy =                 267.9415708789482551
    Total Energy =                       -231.0512797433371475
  Basis Set: (AUG-CC-PVTZ AUX)
    Blend: AUG-CC-PVTZ-RI
    Molecular point group: c1

    Geometry (in Angstrom), charge = 0, multiplicity = 1:

       Center              X                  Y                   Z               Mass
    ------------   -----------------  -----------------  -----------------  -----------------
         O            0.043810357572     1.268614598178     0.022702879840    15.994914619570
         C           -0.736759042428    -1.050021601822     0.235769779840    12.000000000000
         C            0.711767957572    -1.050012601822    -0.248737220160    12.000000000000
         C           -1.176240042428     0.359821398178    -0.145283220160    12.000000000000
         C            1.151234957572     0.359826398178     0.132339779840    12.000000000000
         H           -1.354958042428    -1.826547601822    -0.223330220160     1.007825032230
         H           -0.771650042428    -1.179402601822     1.322577779840     1.007825032230
         H            1.329970957572    -1.826541601822     0.210349779840     1.007825032230
         H            0.746659957572    -1.179374601822    -1.335548220160     1.007825032230
         H           -1.526228042428     0.395150398178    -1.186418220160     1.007825032230
         H           -1.965362042428     0.761872398178     0.497799779840     1.007825032230
         H            1.501185957572     0.395145398178     1.173486779840     1.007825032230
         H            1.940374957572     0.761888398178    -0.510712220160     1.007825032230

  Basis Set: AUG-CC-PVTZ
    Blend: AUG-CC-PVTZ
  Basis Set: (AUG-CC-PVTZ AUX)
    Blend: AUG-CC-PVTZ-JKFIT
	 Reference Energy          =    -231.0512797433371190 [Eh]
	 Singles Energy            =      -0.0000000000000000 [Eh]
	 Same-Spin Energy          =      -0.2332317137599668 [Eh]
	 Opposite-Spin Energy      =      -0.7985795198932738 [Eh]
	 Correlation Energy        =      -1.0318112336532406 [Eh]
	 Total Energy              =    -232.0830909769903485 [Eh]

	 ================> DF-SCS-MP2 Energies <==================
	-----------------------------------------------------------
	 SCS Same-Spin Scale       =       0.3333333333333333 [-]
	 SCS Opposite-Spin Scale   =       1.2000000000000000 [-]
	 SCS Same-Spin Energy      =      -0.0777439045866556 [Eh]
	 SCS Opposite-Spin Energy  =      -0.9582954238719286 [Eh]
	 SCS Correlation Energy    =      -1.0360393284585843 [Eh]
	 SCS Total Energy          =    -232.0873190717956902 [Eh]
	-----------------------------------------------------------

  Dipole Moment: [D]
     X:    -0.2530      Y:    -2.1183      Z:    -0.0810     Total:     2.1349

*** Psi4 exiting successfully. Buy a developer a beer!
