                               Psi4 1.4a3.dev225

  ==> Input File <==

--------------------------------------------------------------------------
#psi4
#
memory 32 gb

molecule  {
0 1
  O        0.0000050    -1.2522320    -0.0000130
  C        0.7242410     0.9886740     0.2423340
  C       -0.7242550     0.9886620    -0.2423410
  C        1.2042651    -0.3921617    -0.1436959
  C       -1.1637580    -0.4210950     0.1388810
  H        1.3425610     1.7653610    -0.2163320
  H        0.7589520     1.1177070     1.3292070
  H       -1.3425830     1.7653500     0.2163130
  H       -0.7589690     1.1176750    -1.3292170
  H        1.5136340    -0.4563640    -1.1800500
  H        1.9530090    -0.8232070     0.5040550
  H       -1.5135900    -0.4563680     1.1800790
  H       -1.9530190    -0.8232310    -0.5040080
units angstrom
no_reorient  #important for SAPT in psi4, default
symmetry c1  #important for SAPT in psi4, default
}

set PROPERTIES_ORIGIN ["COM"]
properties('MP2/aug-cc-pvtz', properties = ['dipole'])
--------------------------------------------------------------------------

    Molecular point group: c1
  Charge       = 0
  Multiplicity = 1
  Basis Set: AUG-CC-PVTZ
    Blend: AUG-CC-PVTZ
  Basis Set: (AUG-CC-PVTZ AUX)
    Blend: AUG-CC-PVTZ-JKFIT

    Orbital Energies [Eh]
    ---------------------

    Doubly Occupied:

       1A    -20.540131     2A    -11.270117     3A    -11.266869
       4A    -11.227433     5A    -11.226212     6A     -1.345183
       7A     -1.061835     8A     -0.989132     9A     -0.812273
      10A     -0.805076    11A     -0.680452    12A     -0.666824
      13A     -0.592517    14A     -0.582957    15A     -0.549984
      16A     -0.500969    17A     -0.496901    18A     -0.478198
      19A     -0.463151    20A     -0.408621

  @DF-RHF Final Energy:  -231.05826310591300

   => Energetics <=

    Nuclear Repulsion Energy =            190.1662474601900215
    One-Electron Energy =                -690.5193465746054926
    Two-Electron Energy =                 269.2948360085025001
    Total Energy =                       -231.0582631059129994
  Basis Set: (AUG-CC-PVTZ AUX)
    Blend: AUG-CC-PVTZ-RI
    Molecular point group: c1

    Geometry (in Angstrom), charge = 0, multiplicity = 1:

       Center              X                  Y                   Z               Mass
    ------------   -----------------  -----------------  -----------------  -----------------
         O           -0.006739503141    -1.212980368121     0.000792236847    15.994914619570
         C            0.717496496859     1.027925631879     0.243139236847    12.000000000000
         C           -0.730999503141     1.027913631879    -0.241535763153    12.000000000000
         C            1.197520596859    -0.352910068121    -0.142890663153    12.000000000000
         C           -1.170502503141    -0.381843368121     0.139686236847    12.000000000000
         H            1.335816496859     1.804612631879    -0.215526763153     1.007825032230
         H            0.752207496859     1.156958631879     1.330012236847     1.007825032230
         H           -1.349327503141     1.804601631879     0.217118236847     1.007825032230
         H           -0.765713503141     1.156926631879    -1.328411763153     1.007825032230
         H            1.506889496859    -0.417112368121    -1.179244763153     1.007825032230
         H            1.946264496859    -0.783955368121     0.504860236847     1.007825032230
         H           -1.520334503141    -0.417116368121     1.180884236847     1.007825032230
         H           -1.959763503141    -0.783979368121    -0.503202763153     1.007825032230

  Basis Set: AUG-CC-PVTZ
    Blend: AUG-CC-PVTZ
  Basis Set: (AUG-CC-PVTZ AUX)
    Blend: AUG-CC-PVTZ-JKFIT
	 Reference Energy          =    -231.0582631059129994 [Eh]
	 Singles Energy            =      -0.0000000000000000 [Eh]
	 Same-Spin Energy          =      -0.2327931700590499 [Eh]
	 Opposite-Spin Energy      =      -0.7965359055875847 [Eh]
	 Correlation Energy        =      -1.0293290756466345 [Eh]
	 Total Energy              =    -232.0875921815596428 [Eh]

	 ================> DF-SCS-MP2 Energies <==================
	-----------------------------------------------------------
	 SCS Same-Spin Scale       =       0.3333333333333333 [-]
	 SCS Opposite-Spin Scale   =       1.2000000000000000 [-]
	 SCS Same-Spin Energy      =      -0.0775977233530166 [Eh]
	 SCS Opposite-Spin Energy  =      -0.9558430867051015 [Eh]
	 SCS Correlation Energy    =      -1.0334408100581181 [Eh]
	 SCS Total Energy          =    -232.0917039159711237 [Eh]
	-----------------------------------------------------------

  Dipole Moment: [D]
     X:     0.1446      Y:     1.9493      Z:    -0.0279     Total:     1.9549

*** Psi4 exiting successfully. Buy a developer a beer!
