                               Psi4 1.3.2 release

  ==> Input File <==

--------------------------------------------------------------------------
#psi4
#
memory 32 gb

molecule  {
0 1
  O       -0.0000020     1.2522540    -0.0000130
  C       -0.7242590    -0.9887060     0.2422500
  C        0.7242680    -0.9886970    -0.2422570
  C       -1.1637400     0.4211370    -0.1388030
  C        1.0441463     0.4741194     0.0472993
  H       -1.3424580    -1.7652320    -0.2168500
  H       -0.7591500    -1.1180870     1.3290580
  H        1.3424710    -1.7652260     0.2168300
  H        0.7591600    -1.1180590    -1.3290680
  H       -1.5137280     0.4564660    -1.1799380
  H       -1.9528620     0.8231880     0.5042800
  H        1.5136860     0.4564610     1.1799670
  H        1.9528750     0.8232040    -0.5042320
units angstrom
no_reorient  #important for SAPT in psi4, default
symmetry c1  #important for SAPT in psi4, default
}

set PROPERTIES_ORIGIN ["COM"]
properties('MP2/aug-cc-pvtz', properties = ['dipole'])
--------------------------------------------------------------------------

    Molecular point group: c1
  Charge       = 0
  Multiplicity = 1
  Basis Set: AUG-CC-PVTZ
    Blend: AUG-CC-PVTZ
  Basis Set: (AUG-CC-PVTZ AUX)
    Blend: AUG-CC-PVTZ-JKFIT

    Orbital Energies [Eh]
    ---------------------

    Doubly Occupied:

       1A    -20.558943     2A    -11.279535     3A    -11.275945
       4A    -11.228540     5A    -11.224922     6A     -1.420208
       7A     -1.068805     8A     -0.992609     9A     -0.821100
      10A     -0.795775    11A     -0.693190    12A     -0.691864
      13A     -0.615724    14A     -0.579897    15A     -0.568927
      16A     -0.520515    17A     -0.497041    18A     -0.473493
      19A     -0.457337    20A     -0.383179

  @DF-RHF Final Energy:  -231.03763755759658

   => Energetics <=

    Nuclear Repulsion Energy =            192.9821352220670576
    One-Electron Energy =                -695.7444510021783799
    Two-Electron Energy =                 271.7246782225146831
    Total Energy =                       -231.0376375575966108
  Basis Set: (AUG-CC-PVTZ AUX)
    Blend: AUG-CC-PVTZ-RI
    Molecular point group: c1

    Geometry (in Angstrom), charge = 0, multiplicity = 1:

       Center              X                  Y                   Z               Mass
    ------------   -----------------  -----------------  -----------------  -----------------
         O            0.019913402845     1.199357997272     0.015228837968    15.994914619570
         C           -0.704343597155    -1.041602002728     0.257491837968    12.000000000000
         C            0.744183402845    -1.041593002728    -0.227015162032    12.000000000000
         C           -1.143824597155     0.368240997272    -0.123561162032    12.000000000000
         C            1.064061702845     0.421223397272     0.062541137968    12.000000000000
         H           -1.322542597155    -1.818128002728    -0.201608162032     1.007825032230
         H           -0.739234597155    -1.170983002728     1.344299837968     1.007825032230
         H            1.362386402845    -1.818122002728     0.232071837968     1.007825032230
         H            0.779075402845    -1.170955002728    -1.313826162032     1.007825032230
         H           -1.493812597155     0.403569997272    -1.164696162032     1.007825032230
         H           -1.932946597155     0.770291997272     0.519521837968     1.007825032230
         H            1.533601402845     0.403564997272     1.195208837968     1.007825032230
         H            1.972790402845     0.770307997272    -0.488990162032     1.007825032230

  Basis Set: AUG-CC-PVTZ
    Blend: AUG-CC-PVTZ
  Basis Set: (AUG-CC-PVTZ AUX)
    Blend: AUG-CC-PVTZ-JKFIT
	 Reference Energy          =    -231.0376375575965824 [Eh]
	 Singles Energy            =      -0.0000000000000000 [Eh]
	 Same-Spin Energy          =      -0.2331057166283918 [Eh]
	 Opposite-Spin Energy      =      -0.7951497727111752 [Eh]
	 Correlation Energy        =      -1.0282554893395670 [Eh]
	 Total Energy              =    -232.0658930469361394 [Eh]

	 ================> DF-SCS-MP2 Energies <==================
	-----------------------------------------------------------
	 SCS Same-Spin Scale       =       0.3333333333333333 [-]
	 SCS Opposite-Spin Scale   =       1.2000000000000000 [-]
	 SCS Same-Spin Energy      =      -0.0777019055427973 [Eh]
	 SCS Opposite-Spin Energy  =      -0.9541797272534102 [Eh]
	 SCS Correlation Energy    =      -1.0318816327962075 [Eh]
	 SCS Total Energy          =    -232.0695191903927821 [Eh]
	-----------------------------------------------------------

  Dipole Moment: [D]
     X:    -0.5740      Y:    -1.7057      Z:    -0.2835     Total:     1.8219

*** Psi4 exiting successfully. Buy a developer a beer!
