                               Psi4 1.3.2 release

  ==> Input File <==

--------------------------------------------------------------------------
#psi4
#
memory 32 gb

molecule  {
0 1
  O       -0.0000020     1.2522540    -0.0000130
  C       -0.7242590    -0.9887060     0.2422500
  C        0.7242680    -0.9886970    -0.2422570
  C       -1.1918324     0.4625450    -0.1421550
  C        1.1637350     0.4211420     0.1388200
  H       -1.3424580    -1.7652320    -0.2168500
  H       -0.7591500    -1.1180870     1.3290580
  H        1.3424710    -1.7652260     0.2168300
  H        0.7591600    -1.1180590    -1.3290680
  H       -1.5137280     0.4564660    -1.1799380
  H       -1.9528620     0.8231880     0.5042800
  H        1.5136860     0.4564610     1.1799670
  H        1.9528750     0.8232040    -0.5042320
units angstrom
no_reorient  #important for SAPT in psi4, default
symmetry c1  #important for SAPT in psi4, default
}

set PROPERTIES_ORIGIN ["COM"]
properties('MP2/aug-cc-pvtz', properties = ['dipole'])
--------------------------------------------------------------------------

    Molecular point group: c1
  Charge       = 0
  Multiplicity = 1
  Basis Set: AUG-CC-PVTZ
    Blend: AUG-CC-PVTZ
  Basis Set: (AUG-CC-PVTZ AUX)
    Blend: AUG-CC-PVTZ-JKFIT

    Orbital Energies [Eh]
    ---------------------

    Doubly Occupied:

       1A    -20.543377     2A    -11.269908     3A    -11.268956
       4A    -11.227323     5A    -11.225499     6A     -1.358987
       7A     -1.055597     8A     -0.987712     9A     -0.813282
      10A     -0.805113    11A     -0.682067    12A     -0.667587
      13A     -0.594478    14A     -0.588033    15A     -0.560198
      16A     -0.503056    17A     -0.489395    18A     -0.477708
      19A     -0.455829    20A     -0.409503

  @DF-RHF Final Energy:  -231.05925687929681

   => Energetics <=

    Nuclear Repulsion Energy =            190.1646583628516396
    One-Electron Energy =                -690.4806149792279939
    Two-Electron Energy =                 269.2566997370795434
    Total Energy =                       -231.0592568792968109
  Basis Set: (AUG-CC-PVTZ AUX)
    Blend: AUG-CC-PVTZ-RI
    Molecular point group: c1

    Geometry (in Angstrom), charge = 0, multiplicity = 1:

       Center              X                  Y                   Z               Mass
    ------------   -----------------  -----------------  -----------------  -----------------
         O            0.004676191266     1.201284691528     0.000545783719    15.994914619570
         C           -0.719580808734    -1.039675308472     0.242808783719    12.000000000000
         C            0.728946191266    -1.039666308472    -0.241698216281    12.000000000000
         C           -1.187154208734     0.411575691528    -0.141596216281    12.000000000000
         C            1.168413191266     0.370172691528     0.139378783719    12.000000000000
         H           -1.337779808734    -1.816201308472    -0.216291216281     1.007825032230
         H           -0.754471808734    -1.169056308472     1.329616783719     1.007825032230
         H            1.347149191266    -1.816195308472     0.217388783719     1.007825032230
         H            0.763838191266    -1.169028308472    -1.328509216281     1.007825032230
         H           -1.509049808734     0.405496691528    -1.179379216281     1.007825032230
         H           -1.948183808734     0.772218691528     0.504838783719     1.007825032230
         H            1.518364191266     0.405491691528     1.180525783719     1.007825032230
         H            1.957553191266     0.772234691528    -0.503673216281     1.007825032230

  Basis Set: AUG-CC-PVTZ
    Blend: AUG-CC-PVTZ
  Basis Set: (AUG-CC-PVTZ AUX)
    Blend: AUG-CC-PVTZ-JKFIT
	 Reference Energy          =    -231.0592568792968109 [Eh]
	 Singles Energy            =      -0.0000000000000000 [Eh]
	 Same-Spin Energy          =      -0.2322740084658142 [Eh]
	 Opposite-Spin Energy      =      -0.7954031014979892 [Eh]
	 Correlation Energy        =      -1.0276771099638033 [Eh]
	 Total Energy              =    -232.0869339892606149 [Eh]

	 ================> DF-SCS-MP2 Energies <==================
	-----------------------------------------------------------
	 SCS Same-Spin Scale       =       0.3333333333333333 [-]
	 SCS Opposite-Spin Scale   =       1.2000000000000000 [-]
	 SCS Same-Spin Energy      =      -0.0774246694886047 [Eh]
	 SCS Opposite-Spin Energy  =      -0.9544837217975870 [Eh]
	 SCS Correlation Energy    =      -1.0319083912861917 [Eh]
	 SCS Total Energy          =    -232.0911652705829908 [Eh]
	-----------------------------------------------------------

  Dipole Moment: [D]
     X:    -0.0396      Y:    -1.8264      Z:    -0.0050     Total:     1.8269

*** Psi4 exiting successfully. Buy a developer a beer!
