                               Psi4 1.3.2 release

  ==> Input File <==

--------------------------------------------------------------------------
#psi4
#
memory 32 gb

molecule  {
0 1
  O       -0.0000020     1.2522540    -0.0000130
  C       -0.7242590    -0.9887060     0.2422500
  C        0.7242680    -0.9886970    -0.2422570
  C       -1.0711014     0.3031842    -0.1277499
  C        1.1637350     0.4211420     0.1388200
  H       -1.3424580    -1.7652320    -0.2168500
  H       -0.7591500    -1.1180870     1.3290580
  H        1.3424710    -1.7652260     0.2168300
  H        0.7591600    -1.1180590    -1.3290680
  H       -1.5137280     0.4564660    -1.1799380
  H       -1.9528620     0.8231880     0.5042800
  H        1.5136860     0.4564610     1.1799670
  H        1.9528750     0.8232040    -0.5042320
units angstrom
no_reorient  #important for SAPT in psi4, default
symmetry c1  #important for SAPT in psi4, default
}

set PROPERTIES_ORIGIN ["COM"]
properties('MP2/aug-cc-pvtz', properties = ['dipole'])
--------------------------------------------------------------------------

    Molecular point group: c1
  Charge       = 0
  Multiplicity = 1
  Basis Set: AUG-CC-PVTZ
    Blend: AUG-CC-PVTZ
  Basis Set: (AUG-CC-PVTZ AUX)
    Blend: AUG-CC-PVTZ-JKFIT

    Orbital Energies [Eh]
    ---------------------

    Doubly Occupied:

       1A    -20.549548     2A    -11.275795     3A    -11.270266
       4A    -11.229925     5A    -11.222651     6A     -1.370284
       7A     -1.088269     8A     -0.992913     9A     -0.817174
      10A     -0.794303    11A     -0.688361    12A     -0.682868
      13A     -0.594391    14A     -0.581426    15A     -0.547869
      16A     -0.519815    17A     -0.497052    18A     -0.481915
      19A     -0.462681    20A     -0.394528

  @DF-RHF Final Energy:  -231.03107519797598

   => Energetics <=

    Nuclear Repulsion Energy =            192.7658598377897476
    One-Electron Energy =                -695.4698051408731772
    Two-Electron Energy =                 271.6728701051073926
    Total Energy =                       -231.0310751979760084
  Basis Set: (AUG-CC-PVTZ AUX)
    Blend: AUG-CC-PVTZ-RI
    Molecular point group: c1

    Geometry (in Angstrom), charge = 0, multiplicity = 1:

       Center              X                  Y                   Z               Mass
    ------------   -----------------  -----------------  -----------------  -----------------
         O           -0.015429581219     1.227823625090    -0.001853149971    15.994914619570
         C           -0.739686581219    -1.013136374910     0.240409850029    12.000000000000
         C            0.708840418781    -1.013127374910    -0.244097149971    12.000000000000
         C           -1.086528981219     0.278753825090    -0.129590049971    12.000000000000
         C            1.148307418781     0.396711625090     0.136979850029    12.000000000000
         H           -1.357885581219    -1.789662374910    -0.218690149971     1.007825032230
         H           -0.774577581219    -1.142517374910     1.327217850029     1.007825032230
         H            1.327043418781    -1.789656374910     0.214989850029     1.007825032230
         H            0.743732418781    -1.142489374910    -1.330908149971     1.007825032230
         H           -1.529155581219     0.432035625090    -1.181778149971     1.007825032230
         H           -1.968289581219     0.798757625090     0.502439850029     1.007825032230
         H            1.498258418781     0.432030625090     1.178126850029     1.007825032230
         H            1.937447418781     0.798773625090    -0.506072149971     1.007825032230

  Basis Set: AUG-CC-PVTZ
    Blend: AUG-CC-PVTZ
  Basis Set: (AUG-CC-PVTZ AUX)
    Blend: AUG-CC-PVTZ-JKFIT
	 Reference Energy          =    -231.0310751979759800 [Eh]
	 Singles Energy            =      -0.0000000000000000 [Eh]
	 Same-Spin Energy          =      -0.2347410655128599 [Eh]
	 Opposite-Spin Energy      =      -0.7986315911951798 [Eh]
	 Correlation Energy        =      -1.0333726567080397 [Eh]
	 Total Energy              =    -232.0644478546840332 [Eh]

	 ================> DF-SCS-MP2 Energies <==================
	-----------------------------------------------------------
	 SCS Same-Spin Scale       =       0.3333333333333333 [-]
	 SCS Opposite-Spin Scale   =       1.2000000000000000 [-]
	 SCS Same-Spin Energy      =      -0.0782470218376200 [Eh]
	 SCS Opposite-Spin Energy  =      -0.9583579094342157 [Eh]
	 SCS Correlation Energy    =      -1.0366049312718357 [Eh]
	 SCS Total Energy          =    -232.0676801292478046 [Eh]
	-----------------------------------------------------------

  Dipole Moment: [D]
     X:     0.1956      Y:    -2.0639      Z:     0.0107     Total:     2.0732

*** Psi4 exiting successfully. Buy a developer a beer!
