                               Psi4 1.3.2 release

  ==> Input File <==

--------------------------------------------------------------------------
#psi4
#
memory 32 gb

molecule  {
0 1
  O       -0.0000020     1.2522540    -0.0000130
  C       -0.7242590    -0.9887060     0.2422500
  C        0.7242680    -0.9886970    -0.2422570
  C       -1.1637400     0.4211370    -0.1388030
  C        1.1637350     0.4211420     0.1388200
  H       -1.3424580    -1.7652320    -0.2168500
  H       -0.7591500    -1.1180870     1.3290580
  H        1.3643499    -1.8021152     0.1107008
  H        0.7591600    -1.1180590    -1.3290680
  H       -1.5137280     0.4564660    -1.1799380
  H       -1.9528620     0.8231880     0.5042800
  H        1.5136860     0.4564610     1.1799670
  H        1.9528750     0.8232040    -0.5042320
units angstrom
no_reorient  #important for SAPT in psi4, default
symmetry c1  #important for SAPT in psi4, default
}

set PROPERTIES_ORIGIN ["COM"]
properties('MP2/aug-cc-pvtz', properties = ['dipole'])
--------------------------------------------------------------------------

    Molecular point group: c1
  Charge       = 0
  Multiplicity = 1
  Basis Set: AUG-CC-PVTZ
    Blend: AUG-CC-PVTZ
  Basis Set: (AUG-CC-PVTZ AUX)
    Blend: AUG-CC-PVTZ-JKFIT

    Orbital Energies [Eh]
    ---------------------

    Doubly Occupied:

       1A    -20.545284     2A    -11.270399     3A    -11.270159
       4A    -11.227100     5A    -11.226146     6A     -1.361856
       7A     -1.060928     8A     -0.989044     9A     -0.810655
      10A     -0.808523    11A     -0.680307    12A     -0.673374
      13A     -0.589863    14A     -0.586451    15A     -0.554745
      16A     -0.506567    17A     -0.495900    18A     -0.472854
      19A     -0.464262    20A     -0.408220

  @DF-RHF Final Energy:  -231.05979445832236

   => Energetics <=

    Nuclear Repulsion Energy =            190.6972818170388280
    One-Electron Energy =                -691.5088786867753470
    Two-Electron Energy =                 269.7518024114141326
    Total Energy =                       -231.0597944583223580
  Basis Set: (AUG-CC-PVTZ AUX)
    Blend: AUG-CC-PVTZ-RI
    Molecular point group: c1

    Geometry (in Angstrom), charge = 0, multiplicity = 1:

       Center              X                  Y                   Z               Mass
    ------------   -----------------  -----------------  -----------------  -----------------
         O           -0.000308145256     1.208696463362     0.001471928126    15.994914619570
         C           -0.724565145256    -1.032263536638     0.243734928126    12.000000000000
         C            0.723961854744    -1.032254536638    -0.240772071874    12.000000000000
         C           -1.164046145256     0.377579463362    -0.137318071874    12.000000000000
         C            1.163428854744     0.377584463362     0.140304928126    12.000000000000
         H           -1.342764145256    -1.808789536638    -0.215365071874     1.007825032230
         H           -0.759456145256    -1.161644536638     1.330542928126     1.007825032230
         H            1.364043754744    -1.845672736638     0.112185728126     1.007825032230
         H            0.758853854744    -1.161616536638    -1.327583071874     1.007825032230
         H           -1.514034145256     0.412908463362    -1.178453071874     1.007825032230
         H           -1.953168145256     0.779630463362     0.505764928126     1.007825032230
         H            1.513379854744     0.412903463362     1.181451928126     1.007825032230
         H            1.952568854744     0.779646463362    -0.502747071874     1.007825032230

  Basis Set: AUG-CC-PVTZ
    Blend: AUG-CC-PVTZ
  Basis Set: (AUG-CC-PVTZ AUX)
    Blend: AUG-CC-PVTZ-JKFIT
	 Reference Energy          =    -231.0597944583223580 [Eh]
	 Singles Energy            =      -0.0000000000000000 [Eh]
	 Same-Spin Energy          =      -0.2325775910705284 [Eh]
	 Opposite-Spin Energy      =      -0.7955641738889447 [Eh]
	 Correlation Energy        =      -1.0281417649594731 [Eh]
	 Total Energy              =    -232.0879362232818437 [Eh]

	 ================> DF-SCS-MP2 Energies <==================
	-----------------------------------------------------------
	 SCS Same-Spin Scale       =       0.3333333333333333 [-]
	 SCS Opposite-Spin Scale   =       1.2000000000000000 [-]
	 SCS Same-Spin Energy      =      -0.0775258636901761 [Eh]
	 SCS Opposite-Spin Energy  =      -0.9546770086667337 [Eh]
	 SCS Correlation Energy    =      -1.0322028723569099 [Eh]
	 SCS Total Energy          =    -232.0919973306792770 [Eh]
	-----------------------------------------------------------

  Dipole Moment: [D]
     X:     0.0063      Y:    -1.8904      Z:    -0.0303     Total:     1.8906

*** Psi4 exiting successfully. Buy a developer a beer!
