                               Psi4 1.3.2 release

  ==> Input File <==

--------------------------------------------------------------------------
#psi4
#
memory 32 gb

molecule  {
0 1
  O       -0.0000020     1.2522540    -0.0000130
  C       -0.7242590    -0.9887060     0.2422500
  C        0.7242680    -0.9886970    -0.2422570
  C       -1.1637400     0.4211370    -0.1388030
  C        1.1637350     0.4211420     0.1388200
  H       -1.3424580    -1.7652320    -0.2168500
  H       -0.7591500    -1.1180870     1.3290580
  H        1.3138190    -1.7198290     0.3179293
  H        0.7591600    -1.1180590    -1.3290680
  H       -1.5137280     0.4564660    -1.1799380
  H       -1.9528620     0.8231880     0.5042800
  H        1.5136860     0.4564610     1.1799670
  H        1.9528750     0.8232040    -0.5042320
units angstrom
no_reorient  #important for SAPT in psi4, default
symmetry c1  #important for SAPT in psi4, default
}

set PROPERTIES_ORIGIN ["COM"]
properties('MP2/aug-cc-pvtz', properties = ['dipole'])
--------------------------------------------------------------------------

    Molecular point group: c1
  Charge       = 0
  Multiplicity = 1
  Basis Set: AUG-CC-PVTZ
    Blend: AUG-CC-PVTZ
  Basis Set: (AUG-CC-PVTZ AUX)
    Blend: AUG-CC-PVTZ-JKFIT

    Orbital Energies [Eh]
    ---------------------

    Doubly Occupied:

       1A    -20.543843     2A    -11.269108     3A    -11.269005
       4A    -11.226501     5A    -11.225622     6A     -1.360820
       7A     -1.062205     8A     -0.988930     9A     -0.808572
      10A     -0.805187    11A     -0.684953    12A     -0.669120
      13A     -0.591110    14A     -0.588397    15A     -0.559194
      16A     -0.501150    17A     -0.489810    18A     -0.478892
      19A     -0.464073    20A     -0.407544

  @DF-RHF Final Energy:  -231.05976182515982

   => Energetics <=

    Nuclear Repulsion Energy =            190.8628574603731636
    One-Electron Energy =                -691.8571686623135975
    Two-Electron Energy =                 269.9345493767805806
    Total Energy =                       -231.0597618251598533
  Basis Set: (AUG-CC-PVTZ AUX)
    Blend: AUG-CC-PVTZ-RI
    Molecular point group: c1

    Geometry (in Angstrom), charge = 0, multiplicity = 1:

       Center              X                  Y                   Z               Mass
    ------------   -----------------  -----------------  -----------------  -----------------
         O            0.000398599988     1.207545575875    -0.001426452009    15.994914619570
         C           -0.723858400012    -1.033414424125     0.240836547991    12.000000000000
         C            0.724668599988    -1.033405424125    -0.243670452009    12.000000000000
         C           -1.163339400012     0.376428575875    -0.140216452009    12.000000000000
         C            1.164135599988     0.376433575875     0.137406547991    12.000000000000
         H           -1.342057400012    -1.809940424125    -0.218263452009     1.007825032230
         H           -0.758749400012    -1.162795424125     1.327644547991     1.007825032230
         H            1.314219599988    -1.764537424125     0.316515847991     1.007825032230
         H            0.759560599988    -1.162767424125    -1.330481452009     1.007825032230
         H           -1.513327400012     0.411757575875    -1.181351452009     1.007825032230
         H           -1.952461400012     0.778479575875     0.502866547991     1.007825032230
         H            1.514086599988     0.411752575875     1.178553547991     1.007825032230
         H            1.953275599988     0.778495575875    -0.505645452009     1.007825032230

  Basis Set: AUG-CC-PVTZ
    Blend: AUG-CC-PVTZ
  Basis Set: (AUG-CC-PVTZ AUX)
    Blend: AUG-CC-PVTZ-JKFIT
	 Reference Energy          =    -231.0597618251598249 [Eh]
	 Singles Energy            =      -0.0000000000000000 [Eh]
	 Same-Spin Energy          =      -0.2327064804669170 [Eh]
	 Opposite-Spin Energy      =      -0.7959088511260577 [Eh]
	 Correlation Energy        =      -1.0286153315929747 [Eh]
	 Total Energy              =    -232.0883771567528129 [Eh]

	 ================> DF-SCS-MP2 Energies <==================
	-----------------------------------------------------------
	 SCS Same-Spin Scale       =       0.3333333333333333 [-]
	 SCS Opposite-Spin Scale   =       1.2000000000000000 [-]
	 SCS Same-Spin Energy      =      -0.0775688268223057 [Eh]
	 SCS Opposite-Spin Energy  =      -0.9550906213512692 [Eh]
	 SCS Correlation Energy    =      -1.0326594481735749 [Eh]
	 SCS Total Energy          =    -232.0924212733334002 [Eh]
	-----------------------------------------------------------

  Dipole Moment: [D]
     X:    -0.0090      Y:    -1.8688      Z:     0.0215     Total:     1.8689

*** Psi4 exiting successfully. Buy a developer a beer!
