                               Psi4 1.4a3.dev225

  ==> Input File <==

--------------------------------------------------------------------------
#psi4
#
memory 32 gb

molecule  {
0 1
  O        0.0000050    -1.2522320    -0.0000130
  C        0.7242410     0.9886740     0.2423340
  C       -0.7242550     0.9886620    -0.2423410
  C        1.1637670    -0.4210850    -0.1388640
  C       -1.1637580    -0.4210950     0.1388810
  H        1.3425610     1.7653610    -0.2163320
  H        0.7589520     1.1177070     1.3292070
  H       -1.3425830     1.7653500     0.2163130
  H       -0.7589690     1.1176750    -1.3292170
  H        1.5136340    -0.4563640    -1.1800500
  H        1.9169544    -0.8048370     0.4746848
  H       -1.5135900    -0.4563680     1.1800790
  H       -1.9530190    -0.8232310    -0.5040080
units angstrom
no_reorient  #important for SAPT in psi4, default
symmetry c1  #important for SAPT in psi4, default
}

set PROPERTIES_ORIGIN ["COM"]
properties('MP2/aug-cc-pvtz', properties = ['dipole'])
--------------------------------------------------------------------------

    Molecular point group: c1
  Charge       = 0
  Multiplicity = 1
  Basis Set: AUG-CC-PVTZ
    Blend: AUG-CC-PVTZ
  Basis Set: (AUG-CC-PVTZ AUX)
    Blend: AUG-CC-PVTZ-JKFIT

    Orbital Energies [Eh]
    ---------------------

    Doubly Occupied:

       1A    -20.543815     2A    -11.269222     3A    -11.263399
       4A    -11.226215     5A    -11.225592     6A     -1.360855
       7A     -1.061110     8A     -0.991351     9A     -0.812867
      10A     -0.807322    11A     -0.683550    12A     -0.672418
      13A     -0.592096    14A     -0.588198    15A     -0.557399
      16A     -0.503081    17A     -0.494656    18A     -0.477123
      19A     -0.464436    20A     -0.408323

  @DF-RHF Final Energy:  -231.06030053835451

   => Energetics <=

    Nuclear Repulsion Energy =            191.0169847454517935
    One-Electron Energy =                -692.1485121539292322
    Two-Electron Energy =                 270.0712268701229277
    Total Energy =                       -231.0603005383545110
  Basis Set: (AUG-CC-PVTZ AUX)
    Blend: AUG-CC-PVTZ-RI
    Molecular point group: c1

    Geometry (in Angstrom), charge = 0, multiplicity = 1:

       Center              X                  Y                   Z               Mass
    ------------   -----------------  -----------------  -----------------  -----------------
         O            0.000509066689    -1.208420595907     0.000398346255    15.994914619570
         C            0.724745066689     1.032485404093     0.242745346255    12.000000000000
         C           -0.723750933311     1.032473404093    -0.241929653745    12.000000000000
         C            1.164271066689    -0.377273595907    -0.138452653745    12.000000000000
         C           -1.163253933311    -0.377283595907     0.139292346255    12.000000000000
         H            1.343065066689     1.809172404093    -0.215920653745     1.007825032230
         H            0.759456066689     1.161518404093     1.329618346255     1.007825032230
         H           -1.342078933311     1.809161404093     0.216724346255     1.007825032230
         H           -0.758464933311     1.161486404093    -1.328805653745     1.007825032230
         H            1.514138066689    -0.412552595907    -1.179638653745     1.007825032230
         H            1.917458466689    -0.761025595907     0.475096146255     1.007825032230
         H           -1.513085933311    -0.412556595907     1.180490346255     1.007825032230
         H           -1.952514933311    -0.779419595907    -0.503596653745     1.007825032230

  Basis Set: AUG-CC-PVTZ
    Blend: AUG-CC-PVTZ
  Basis Set: (AUG-CC-PVTZ AUX)
    Blend: AUG-CC-PVTZ-JKFIT
	 Reference Energy          =    -231.0603005383545110 [Eh]
	 Singles Energy            =      -0.0000000000000000 [Eh]
	 Same-Spin Energy          =      -0.2325438036394681 [Eh]
	 Opposite-Spin Energy      =      -0.7953293119288969 [Eh]
	 Correlation Energy        =      -1.0278731155683651 [Eh]
	 Total Energy              =    -232.0881736539228655 [Eh]

	 ================> DF-SCS-MP2 Energies <==================
	-----------------------------------------------------------
	 SCS Same-Spin Scale       =       0.3333333333333333 [-]
	 SCS Opposite-Spin Scale   =       1.2000000000000000 [-]
	 SCS Same-Spin Energy      =      -0.0775146012131560 [Eh]
	 SCS Opposite-Spin Energy  =      -0.9543951743146762 [Eh]
	 SCS Correlation Energy    =      -1.0319097755278324 [Eh]
	 SCS Total Energy          =    -232.0922103138823331 [Eh]
	-----------------------------------------------------------

  Dipole Moment: [D]
     X:     0.0353      Y:     1.8710      Z:     0.0106     Total:     1.8713

*** Psi4 exiting successfully. Buy a developer a beer!
