                               Psi4 1.3.2 release

  ==> Input File <==

--------------------------------------------------------------------------
#psi4
#
memory 32 gb

molecule  {
0 1
  O       -0.0000020     1.2522540    -0.0000130
  C       -0.7482773    -0.8648360     0.1440669
  C        0.7242680    -0.9886970    -0.2422570
  C       -1.1637400     0.4211370    -0.1388030
  C        1.1637350     0.4211420     0.1388200
  H       -1.3424580    -1.7652320    -0.2168500
  H       -0.7591500    -1.1180870     1.3290580
  H        1.3424710    -1.7652260     0.2168300
  H        0.7591600    -1.1180590    -1.3290680
  H       -1.5137280     0.4564660    -1.1799380
  H       -1.9528620     0.8231880     0.5042800
  H        1.5136860     0.4564610     1.1799670
  H        1.9528750     0.8232040    -0.5042320
units angstrom
no_reorient  #important for SAPT in psi4, default
symmetry c1  #important for SAPT in psi4, default
}

set PROPERTIES_ORIGIN ["COM"]
properties('MP2/aug-cc-pvtz', properties = ['dipole'])
--------------------------------------------------------------------------

    Molecular point group: c1
  Charge       = 0
  Multiplicity = 1
  Basis Set: AUG-CC-PVTZ
    Blend: AUG-CC-PVTZ
  Basis Set: (AUG-CC-PVTZ AUX)
    Blend: AUG-CC-PVTZ-JKFIT

    Orbital Energies [Eh]
    ---------------------

    Doubly Occupied:

       1A    -20.545531     2A    -11.269730     3A    -11.263677
       4A    -11.233964     5A    -11.228340     6A     -1.367720
       7A     -1.074249     8A     -1.005370     9A     -0.817580
      10A     -0.792828    11A     -0.687857    12A     -0.682134
      13A     -0.594167    14A     -0.582635    15A     -0.551576
      16A     -0.531944    17A     -0.493244    18A     -0.469940
      19A     -0.442964    20A     -0.406374

  @DF-RHF Final Energy:  -231.03173214547732

   => Energetics <=

    Nuclear Repulsion Energy =            192.6250191316667042
    One-Electron Energy =                -695.2298558935948449
    Two-Electron Energy =                 271.5731046164507916
    Total Energy =                       -231.0317321454773491
  Basis Set: (AUG-CC-PVTZ AUX)
    Blend: AUG-CC-PVTZ-RI
    Molecular point group: c1

    Geometry (in Angstrom), charge = 0, multiplicity = 1:

       Center              X                  Y                   Z               Mass
    ------------   -----------------  -----------------  -----------------  -----------------
         O            0.003997716577     1.187551994783     0.016338351668    15.994914619570
         C           -0.744277583423    -0.929538005217     0.160418251668    12.000000000000
         C            0.728267716577    -1.053399005217    -0.225905648332    12.000000000000
         C           -1.159740283423     0.356434994783    -0.122451648332    12.000000000000
         C            1.167734716577     0.356439994783     0.155171351668    12.000000000000
         H           -1.338458283423    -1.829934005217    -0.200498648332     1.007825032230
         H           -0.755150283423    -1.182789005217     1.345409351668     1.007825032230
         H            1.346470716577    -1.829928005217     0.233181351668     1.007825032230
         H            0.763159716577    -1.182761005217    -1.312716648332     1.007825032230
         H           -1.509728283423     0.391763994783    -1.163586648332     1.007825032230
         H           -1.948862283423     0.758485994783     0.520631351668     1.007825032230
         H            1.517685716577     0.391758994783     1.196318351668     1.007825032230
         H            1.956874716577     0.758501994783    -0.487880648332     1.007825032230

  Basis Set: AUG-CC-PVTZ
    Blend: AUG-CC-PVTZ
  Basis Set: (AUG-CC-PVTZ AUX)
    Blend: AUG-CC-PVTZ-JKFIT
	 Reference Energy          =    -231.0317321454773207 [Eh]
	 Singles Energy            =      -0.0000000000000000 [Eh]
	 Same-Spin Energy          =      -0.2341890346172901 [Eh]
	 Opposite-Spin Energy      =      -0.7977776416718950 [Eh]
	 Correlation Energy        =      -1.0319666762891850 [Eh]
	 Total Energy              =    -232.0636988217665078 [Eh]

	 ================> DF-SCS-MP2 Energies <==================
	-----------------------------------------------------------
	 SCS Same-Spin Scale       =       0.3333333333333333 [-]
	 SCS Opposite-Spin Scale   =       1.2000000000000000 [-]
	 SCS Same-Spin Energy      =      -0.0780630115390967 [Eh]
	 SCS Opposite-Spin Energy  =      -0.9573331700062739 [Eh]
	 SCS Correlation Energy    =      -1.0353961815453707 [Eh]
	 SCS Total Energy          =    -232.0671283270226866 [Eh]
	-----------------------------------------------------------

  Dipole Moment: [D]
     X:     0.0199      Y:    -1.8984      Z:    -0.0621     Total:     1.8995

*** Psi4 exiting successfully. Buy a developer a beer!
