                               Psi4 1.3.2 release

  ==> Input File <==

--------------------------------------------------------------------------
#psi4
#
memory 32 gb

molecule  {
0 1
  O       -0.0000020     1.2522540    -0.0000130
  C       -0.7242590    -0.9887060     0.2422500
  C        0.7242680    -0.9886970    -0.2422570
  C       -1.1637400     0.4211370    -0.1388030
  C        1.2025912     0.4000167     0.1684474
  H       -1.3424580    -1.7652320    -0.2168500
  H       -0.7591500    -1.1180870     1.3290580
  H        1.3424710    -1.7652260     0.2168300
  H        0.7591600    -1.1180590    -1.3290680
  H       -1.5137280     0.4564660    -1.1799380
  H       -1.9528620     0.8231880     0.5042800
  H        1.5136860     0.4564610     1.1799670
  H        1.9528750     0.8232040    -0.5042320
units angstrom
no_reorient  #important for SAPT in psi4, default
symmetry c1  #important for SAPT in psi4, default
}

set PROPERTIES_ORIGIN ["COM"]
properties('MP2/aug-cc-pvtz', properties = ['dipole'])
--------------------------------------------------------------------------

    Molecular point group: c1
  Charge       = 0
  Multiplicity = 1
  Basis Set: AUG-CC-PVTZ
    Blend: AUG-CC-PVTZ
  Basis Set: (AUG-CC-PVTZ AUX)
    Blend: AUG-CC-PVTZ-JKFIT

    Orbital Energies [Eh]
    ---------------------

    Doubly Occupied:

       1A    -20.540306     2A    -11.269753     3A    -11.266904
       4A    -11.227728     5A    -11.225921     6A     -1.345810
       7A     -1.060369     8A     -0.988522     9A     -0.813765
      10A     -0.804389    11A     -0.680816    12A     -0.665606
      13A     -0.594272    14A     -0.583647    15A     -0.551467
      16A     -0.500269    17A     -0.493365    18A     -0.479287
      19A     -0.461536    20A     -0.409895

  @DF-RHF Final Energy:  -231.05776102402911

   => Energetics <=

    Nuclear Repulsion Energy =            190.0932564858963190
    One-Electron Energy =                -690.3747824313827550
    Two-Electron Energy =                 269.2237649214573594
    Total Energy =                       -231.0577610240291051
  Basis Set: (AUG-CC-PVTZ AUX)
    Blend: AUG-CC-PVTZ-RI
    Molecular point group: c1

    Geometry (in Angstrom), charge = 0, multiplicity = 1:

       Center              X                  Y                   Z               Mass
    ------------   -----------------  -----------------  -----------------  -----------------
         O           -0.006473002560     1.211698589388    -0.004946395698    15.994914619570
         C           -0.730730002560    -1.029261410612     0.237316604302    12.000000000000
         C            0.717796997440    -1.029252410612    -0.247190395698    12.000000000000
         C           -1.170211002560     0.380581589388    -0.143736395698    12.000000000000
         C            1.196120197440     0.359461289388     0.163514004302    12.000000000000
         H           -1.348929002560    -1.805787410612    -0.221783395698     1.007825032230
         H           -0.765621002560    -1.158642410612     1.324124604302     1.007825032230
         H            1.335999997440    -1.805781410612     0.211896604302     1.007825032230
         H            0.752688997440    -1.158614410612    -1.334001395698     1.007825032230
         H           -1.520199002560     0.415910589388    -1.184871395698     1.007825032230
         H           -1.959333002560     0.782632589388     0.499346604302     1.007825032230
         H            1.507214997440     0.415905589388     1.175033604302     1.007825032230
         H            1.946403997440     0.782648589388    -0.509165395698     1.007825032230

  Basis Set: AUG-CC-PVTZ
    Blend: AUG-CC-PVTZ
  Basis Set: (AUG-CC-PVTZ AUX)
    Blend: AUG-CC-PVTZ-JKFIT
	 Reference Energy          =    -231.0577610240291051 [Eh]
	 Singles Energy            =      -0.0000000000000000 [Eh]
	 Same-Spin Energy          =      -0.2327166850197930 [Eh]
	 Opposite-Spin Energy      =      -0.7964394433193206 [Eh]
	 Correlation Energy        =      -1.0291561283391135 [Eh]
	 Total Energy              =    -232.0869171523682155 [Eh]

	 ================> DF-SCS-MP2 Energies <==================
	-----------------------------------------------------------
	 SCS Same-Spin Scale       =       0.3333333333333333 [-]
	 SCS Opposite-Spin Scale   =       1.2000000000000000 [-]
	 SCS Same-Spin Energy      =      -0.0775722283399310 [Eh]
	 SCS Opposite-Spin Energy  =      -0.9557273319831847 [Eh]
	 SCS Correlation Energy    =      -1.0332995603231157 [Eh]
	 SCS Total Energy          =    -232.0910605843522205 [Eh]
	-----------------------------------------------------------

  Dipole Moment: [D]
     X:     0.1436      Y:    -1.9392      Z:     0.0613     Total:     1.9455

*** Psi4 exiting successfully. Buy a developer a beer!
