                               Psi4 1.3.2 release

  ==> Input File <==

--------------------------------------------------------------------------
#psi4
#
memory 32 gb

molecule  {
0 1
  O       -0.0124917     1.2666413     0.0162910
  C       -0.7242590    -0.9887060     0.2422500
  C        0.7242680    -0.9886970    -0.2422570
  C       -1.1637400     0.4211370    -0.1388030
  C        1.1637350     0.4211420     0.1388200
  H       -1.3424580    -1.7652320    -0.2168500
  H       -0.7591500    -1.1180870     1.3290580
  H        1.3424710    -1.7652260     0.2168300
  H        0.7591600    -1.1180590    -1.3290680
  H       -1.5137280     0.4564660    -1.1799380
  H       -1.9528620     0.8231880     0.5042800
  H        1.5136860     0.4564610     1.1799670
  H        1.9528750     0.8232040    -0.5042320
units angstrom
no_reorient  #important for SAPT in psi4, default
symmetry c1  #important for SAPT in psi4, default
}

set PROPERTIES_ORIGIN ["COM"]
properties('MP2/aug-cc-pvtz', properties = ['dipole'])
--------------------------------------------------------------------------

    Molecular point group: c1
  Charge       = 0
  Multiplicity = 1
  Basis Set: AUG-CC-PVTZ
    Blend: AUG-CC-PVTZ
  Basis Set: (AUG-CC-PVTZ AUX)
    Blend: AUG-CC-PVTZ-JKFIT

    Orbital Energies [Eh]
    ---------------------

    Doubly Occupied:

       1A    -20.545258     2A    -11.271139     3A    -11.268905
       4A    -11.227416     5A    -11.226437     6A     -1.356587
       7A     -1.062365     8A     -0.987493     9A     -0.809710
      10A     -0.806789    11A     -0.681139    12A     -0.670034
      13A     -0.588429    14A     -0.587183    15A     -0.554892
      16A     -0.503240    17A     -0.493447    18A     -0.476948
      19A     -0.465723    20A     -0.408677

  @DF-RHF Final Energy:  -231.06014966461458

   => Energetics <=

    Nuclear Repulsion Energy =            190.4018944272626754
    One-Electron Energy =                -690.9404693400300630
    Two-Electron Energy =                 269.4784252481528029
    Total Energy =                       -231.0601496646145847
  Basis Set: (AUG-CC-PVTZ AUX)
    Blend: AUG-CC-PVTZ-RI
    Molecular point group: c1

    Geometry (in Angstrom), charge = 0, multiplicity = 1:

       Center              X                  Y                   Z               Mass
    ------------   -----------------  -----------------  -----------------  -----------------
         O           -0.009719446166     1.219374205868     0.012672494390    15.994914619570
         C           -0.721486746166    -1.035973094132     0.238631494390    12.000000000000
         C            0.727040253834    -1.035964094132    -0.245875505610    12.000000000000
         C           -1.160967746166     0.373869905868    -0.142421505610    12.000000000000
         C            1.166507253834     0.373874905868     0.135201494390    12.000000000000
         H           -1.339685746166    -1.812499094132    -0.220468505610     1.007825032230
         H           -0.756377746166    -1.165354094132     1.325439494390     1.007825032230
         H            1.345243253834    -1.812493094132     0.213211494390     1.007825032230
         H            0.761932253834    -1.165326094132    -1.332686505610     1.007825032230
         H           -1.510955746166     0.409198905868    -1.183556505610     1.007825032230
         H           -1.950089746166     0.775920905868     0.500661494390     1.007825032230
         H            1.516458253834     0.409193905868     1.176348494390     1.007825032230
         H            1.955647253834     0.775936905868    -0.507850505610     1.007825032230

  Basis Set: AUG-CC-PVTZ
    Blend: AUG-CC-PVTZ
  Basis Set: (AUG-CC-PVTZ AUX)
    Blend: AUG-CC-PVTZ-JKFIT
	 Reference Energy          =    -231.0601496646145847 [Eh]
	 Singles Energy            =      -0.0000000000000000 [Eh]
	 Same-Spin Energy          =      -0.2326690961045433 [Eh]
	 Opposite-Spin Energy      =      -0.7961261503561314 [Eh]
	 Correlation Energy        =      -1.0287952464606747 [Eh]
	 Total Energy              =    -232.0889449110752594 [Eh]

	 ================> DF-SCS-MP2 Energies <==================
	-----------------------------------------------------------
	 SCS Same-Spin Scale       =       0.3333333333333333 [-]
	 SCS Opposite-Spin Scale   =       1.2000000000000000 [-]
	 SCS Same-Spin Energy      =      -0.0775563653681811 [Eh]
	 SCS Opposite-Spin Energy  =      -0.9553513804273577 [Eh]
	 SCS Correlation Energy    =      -1.0329077457955389 [Eh]
	 SCS Total Energy          =    -232.0930574104101254 [Eh]
	-----------------------------------------------------------

  Dipole Moment: [D]
     X:     0.0510      Y:    -1.9256      Z:    -0.0208     Total:     1.9264

*** Psi4 exiting successfully. Buy a developer a beer!
