                               Psi4 1.3.2 release

  ==> Input File <==

--------------------------------------------------------------------------
#psi4
#
memory 32 gb

molecule  {
0 1
  O       -0.0000020     1.2522540    -0.0000130
  C       -0.7242590    -0.9887060     0.2422500
  C        0.7242680    -0.9886970    -0.2422570
  C       -1.1637400     0.4211370    -0.1388030
  C        1.2785088     0.3527181     0.2261655
  H       -1.3424580    -1.7652320    -0.2168500
  H       -0.7591500    -1.1180870     1.3290580
  H        1.3424710    -1.7652260     0.2168300
  H        0.7591600    -1.1180590    -1.3290680
  H       -1.5137280     0.4564660    -1.1799380
  H       -1.9528620     0.8231880     0.5042800
  H        1.5136860     0.4564610     1.1799670
  H        1.9528750     0.8232040    -0.5042320
units angstrom
no_reorient  #important for SAPT in psi4, default
symmetry c1  #important for SAPT in psi4, default
}

set PROPERTIES_ORIGIN ["COM"]
properties('MP2/aug-cc-pvtz', properties = ['dipole'])
--------------------------------------------------------------------------

    Molecular point group: c1
  Charge       = 0
  Multiplicity = 1
  Basis Set: AUG-CC-PVTZ
    Blend: AUG-CC-PVTZ
  Basis Set: (AUG-CC-PVTZ AUX)
    Blend: AUG-CC-PVTZ-JKFIT

    Orbital Energies [Eh]
    ---------------------

    Doubly Occupied:

       1A    -20.531632     2A    -11.273054     3A    -11.261852
       4A    -11.231588     5A    -11.225682     6A     -1.319612
       7A     -1.060001     8A     -0.988725     9A     -0.825500
      10A     -0.799108    11A     -0.679667    12A     -0.655787
      13A     -0.608821    14A     -0.577619    15A     -0.537826
      16A     -0.502507    17A     -0.490054    18A     -0.482609
      19A     -0.448662    20A     -0.408277

  @DF-RHF Final Energy:  -231.03608531023235

   => Energetics <=

    Nuclear Repulsion Energy =            188.8196548546771112
    One-Electron Energy =                -687.8943113497106197
    Two-Electron Energy =                 268.0385711848011852
    Total Energy =                       -231.0360853102323517
  Basis Set: (AUG-CC-PVTZ AUX)
    Blend: AUG-CC-PVTZ-RI
    Molecular point group: c1

    Geometry (in Angstrom), charge = 0, multiplicity = 1:

       Center              X                  Y                   Z               Mass
    ------------   -----------------  -----------------  -----------------  -----------------
         O           -0.019115836573     1.219575397254    -0.014558400791    15.994914619570
         C           -0.743372836573    -1.021384602746     0.227704599209    12.000000000000
         C            0.705154163427    -1.021375602746    -0.256802400791    12.000000000000
         C           -1.182853836573     0.388458397254    -0.153348400791    12.000000000000
         C            1.259394963427     0.320039497254     0.211620099209    12.000000000000
         H           -1.361571836573    -1.797910602746    -0.231395400791     1.007825032230
         H           -0.778263836573    -1.150765602746     1.314512599209     1.007825032230
         H            1.323357163427    -1.797904602746     0.202284599209     1.007825032230
         H            0.740046163427    -1.150737602746    -1.343613400791     1.007825032230
         H           -1.532841836573     0.423787397254    -1.194483400791     1.007825032230
         H           -1.971975836573     0.790509397254     0.489734599209     1.007825032230
         H            1.494572163427     0.423782397254     1.165421599209     1.007825032230
         H            1.933761163427     0.790525397254    -0.518777400791     1.007825032230

  Basis Set: AUG-CC-PVTZ
    Blend: AUG-CC-PVTZ
  Basis Set: (AUG-CC-PVTZ AUX)
    Blend: AUG-CC-PVTZ-JKFIT
	 Reference Energy          =    -231.0360853102323517 [Eh]
	 Singles Energy            =      -0.0000000000000000 [Eh]
	 Same-Spin Energy          =      -0.2334573838033233 [Eh]
	 Opposite-Spin Energy      =      -0.7989339682498516 [Eh]
	 Correlation Energy        =      -1.0323913520531749 [Eh]
	 Total Energy              =    -232.0684766622855193 [Eh]

	 ================> DF-SCS-MP2 Energies <==================
	-----------------------------------------------------------
	 SCS Same-Spin Scale       =       0.3333333333333333 [-]
	 SCS Opposite-Spin Scale   =       1.2000000000000000 [-]
	 SCS Same-Spin Energy      =      -0.0778191279344411 [Eh]
	 SCS Opposite-Spin Energy  =      -0.9587207618998219 [Eh]
	 SCS Correlation Energy    =      -1.0365398898342630 [Eh]
	 SCS Total Energy          =    -232.0726252000666250 [Eh]
	-----------------------------------------------------------

  Dipole Moment: [D]
     X:     0.3709      Y:    -2.0560      Z:     0.1469     Total:     2.0943

*** Psi4 exiting successfully. Buy a developer a beer!
