                               Psi4 1.3.2 release

  ==> Input File <==

--------------------------------------------------------------------------
#psi4
#
memory 32 gb

molecule  {
0 1
  O       -0.0000020     1.2522540    -0.0000130
  C       -0.7242590    -0.9887060     0.2422500
  C        0.7242680    -0.9886970    -0.2422570
  C       -1.1637400     0.4211370    -0.1388030
  C        1.1637350     0.4211420     0.1388200
  H       -1.3424580    -1.7652320    -0.2168500
  H       -0.7591500    -1.1180870     1.3290580
  H        1.3381584    -1.7582384     0.2340598
  H        0.7591600    -1.1180590    -1.3290680
  H       -1.5137280     0.4564660    -1.1799380
  H       -1.9528620     0.8231880     0.5042800
  H        1.5136860     0.4564610     1.1799670
  H        1.9528750     0.8232040    -0.5042320
units angstrom
no_reorient  #important for SAPT in psi4, default
symmetry c1  #important for SAPT in psi4, default
}

set PROPERTIES_ORIGIN ["COM"]
properties('MP2/aug-cc-pvtz', properties = ['dipole'])
--------------------------------------------------------------------------

    Molecular point group: c1
  Charge       = 0
  Multiplicity = 1
  Basis Set: AUG-CC-PVTZ
    Blend: AUG-CC-PVTZ
  Basis Set: (AUG-CC-PVTZ AUX)
    Blend: AUG-CC-PVTZ-JKFIT

    Orbital Energies [Eh]
    ---------------------

    Doubly Occupied:

       1A    -20.544463     2A    -11.269570     3A    -11.269536
       4A    -11.226585     5A    -11.225956     6A     -1.361262
       7A     -1.061539     8A     -0.988940     9A     -0.808664
      10A     -0.807174    11A     -0.682733    12A     -0.670985
      13A     -0.589540    14A     -0.588160    15A     -0.557683
      16A     -0.502906    17A     -0.493027    18A     -0.477142
      19A     -0.464165    20A     -0.407832

  @DF-RHF Final Energy:  -231.06107339284105

   => Energetics <=

    Nuclear Repulsion Energy =            190.7857279191781572
    One-Electron Energy =                -691.6978768987805779
    Two-Electron Energy =                 269.8510755867613398
    Total Energy =                       -231.0610733928410809
  Basis Set: (AUG-CC-PVTZ AUX)
    Blend: AUG-CC-PVTZ-RI
    Molecular point group: c1

    Geometry (in Angstrom), charge = 0, multiplicity = 1:

       Center              X                  Y                   Z               Mass
    ------------   -----------------  -----------------  -----------------  -----------------
         O            0.000058179469     1.208082785004    -0.000253419860    15.994914619570
         C           -0.724198820531    -1.032877214996     0.242009580140    12.000000000000
         C            0.724328179469    -1.032868214996    -0.242497419860    12.000000000000
         C           -1.163679820531     0.376965785004    -0.139043419860    12.000000000000
         C            1.163795179469     0.376970785004     0.138579580140    12.000000000000
         H           -1.342397820531    -1.809403214996    -0.217090419860     1.007825032230
         H           -0.759089820531    -1.162258214996     1.328817580140     1.007825032230
         H            1.338218579469    -1.802409614996     0.233819380140     1.007825032230
         H            0.759220179469    -1.162230214996    -1.329308419860     1.007825032230
         H           -1.513667820531     0.412294785004    -1.180178419860     1.007825032230
         H           -1.952801820531     0.779016785004     0.504039580140     1.007825032230
         H            1.513746179469     0.412289785004     1.179726580140     1.007825032230
         H            1.952935179469     0.779032785004    -0.504472419860     1.007825032230

  Basis Set: AUG-CC-PVTZ
    Blend: AUG-CC-PVTZ
  Basis Set: (AUG-CC-PVTZ AUX)
    Blend: AUG-CC-PVTZ-JKFIT
	 Reference Energy          =    -231.0610733928410525 [Eh]
	 Singles Energy            =      -0.0000000000000000 [Eh]
	 Same-Spin Energy          =      -0.2325879326296513 [Eh]
	 Opposite-Spin Energy      =      -0.7956753422558757 [Eh]
	 Correlation Energy        =      -1.0282632748855269 [Eh]
	 Total Energy              =    -232.0893366677265703 [Eh]

	 ================> DF-SCS-MP2 Energies <==================
	-----------------------------------------------------------
	 SCS Same-Spin Scale       =       0.3333333333333333 [-]
	 SCS Opposite-Spin Scale   =       1.2000000000000000 [-]
	 SCS Same-Spin Energy      =      -0.0775293108765504 [Eh]
	 SCS Opposite-Spin Energy  =      -0.9548104107070507 [Eh]
	 SCS Correlation Energy    =      -1.0323397215836012 [Eh]
	 SCS Total Energy          =    -232.0934131144246635 [Eh]
	-----------------------------------------------------------

  Dipole Moment: [D]
     X:    -0.0013      Y:    -1.8790      Z:     0.0042     Total:     1.8790

*** Psi4 exiting successfully. Buy a developer a beer!
