                               Psi4 1.3.2 release

  ==> Input File <==

--------------------------------------------------------------------------
#psi4
#
memory 32 gb

molecule  {
0 1
  O       -0.0000020     1.2522540    -0.0000130
  C       -0.7242590    -0.9887060     0.2422500
  C        0.7242680    -0.9886970    -0.2422570
  C       -1.1637400     0.4211370    -0.1388030
  C        1.1637350     0.4211420     0.1388200
  H       -1.3424580    -1.7652320    -0.2168500
  H       -0.7591500    -1.1180870     1.3290580
  H        1.3578258    -1.7907910     0.1465653
  H        0.7591600    -1.1180590    -1.3290680
  H       -1.5137280     0.4564660    -1.1799380
  H       -1.9528620     0.8231880     0.5042800
  H        1.5136860     0.4564610     1.1799670
  H        1.9528750     0.8232040    -0.5042320
units angstrom
no_reorient  #important for SAPT in psi4, default
symmetry c1  #important for SAPT in psi4, default
}

set PROPERTIES_ORIGIN ["COM"]
properties('MP2/aug-cc-pvtz', properties = ['dipole'])
--------------------------------------------------------------------------

    Molecular point group: c1
  Charge       = 0
  Multiplicity = 1
  Basis Set: AUG-CC-PVTZ
    Blend: AUG-CC-PVTZ
  Basis Set: (AUG-CC-PVTZ AUX)
    Blend: AUG-CC-PVTZ-JKFIT

    Orbital Energies [Eh]
    ---------------------

    Doubly Occupied:

       1A    -20.545057     2A    -11.270143     3A    -11.269997
       4A    -11.226906     5A    -11.226126     6A     -1.361692
       7A     -1.061066     8A     -0.989005     9A     -0.809736
      10A     -0.808434    11A     -0.680901    12A     -0.672742
      13A     -0.589663    14A     -0.586906    15A     -0.555666
      16A     -0.505427    17A     -0.495274    18A     -0.474264
      19A     -0.464244    20A     -0.408113

  @DF-RHF Final Energy:  -231.06052728145690

   => Energetics <=

    Nuclear Repulsion Energy =            190.7202609930015171
    One-Electron Energy =                -691.5588532102801764
    Two-Electron Energy =                 269.7780649358217602
    Total Energy =                       -231.0605272814569275
  Basis Set: (AUG-CC-PVTZ AUX)
    Blend: AUG-CC-PVTZ-RI
    Molecular point group: c1

    Geometry (in Angstrom), charge = 0, multiplicity = 1:

       Center              X                  Y                   Z               Mass
    ------------   -----------------  -----------------  -----------------  -----------------
         O           -0.000216896601     1.208538078601     0.000970312980    15.994914619570
         C           -0.724473896601    -1.032421921399     0.243233312980    12.000000000000
         C            0.724053103399    -1.032412921399    -0.241273687020    12.000000000000
         C           -1.163954896601     0.377421078601    -0.137819687020    12.000000000000
         C            1.163520103399     0.377426078601     0.139803312980    12.000000000000
         H           -1.342672896601    -1.808947921399    -0.215866687020     1.007825032230
         H           -0.759364896601    -1.161802921399     1.330041312980     1.007825032230
         H            1.357610903399    -1.834506921399     0.147548612980     1.007825032230
         H            0.758945103399    -1.161774921399    -1.328084687020     1.007825032230
         H           -1.513942896601     0.412750078601    -1.178954687020     1.007825032230
         H           -1.953076896601     0.779472078601     0.505263312980     1.007825032230
         H            1.513471103399     0.412745078601     1.180950312980     1.007825032230
         H            1.952660103399     0.779488078601    -0.503248687020     1.007825032230

  Basis Set: AUG-CC-PVTZ
    Blend: AUG-CC-PVTZ
  Basis Set: (AUG-CC-PVTZ AUX)
    Blend: AUG-CC-PVTZ-JKFIT
	 Reference Energy          =    -231.0605272814568991 [Eh]
	 Singles Energy            =      -0.0000000000000000 [Eh]
	 Same-Spin Energy          =      -0.2325618916960553 [Eh]
	 Opposite-Spin Energy      =      -0.7955682706905560 [Eh]
	 Correlation Energy        =      -1.0281301623866113 [Eh]
	 Total Energy              =    -232.0886574438435161 [Eh]

	 ================> DF-SCS-MP2 Energies <==================
	-----------------------------------------------------------
	 SCS Same-Spin Scale       =       0.3333333333333333 [-]
	 SCS Opposite-Spin Scale   =       1.2000000000000000 [-]
	 SCS Same-Spin Energy      =      -0.0775206305653518 [Eh]
	 SCS Opposite-Spin Energy  =      -0.9546819248286672 [Eh]
	 SCS Correlation Energy    =      -1.0322025553940191 [Eh]
	 SCS Total Energy          =    -232.0927298368509071 [Eh]
	-----------------------------------------------------------

  Dipole Moment: [D]
     X:     0.0044      Y:    -1.8874      Z:    -0.0191     Total:     1.8875

*** Psi4 exiting successfully. Buy a developer a beer!
