                               Psi4 1.3.2 release

  ==> Input File <==

--------------------------------------------------------------------------
#psi4
#
memory 32 gb

molecule  {
0 1
  O        0.0135548     1.2720678     0.0072281
  C       -0.7242590    -0.9887060     0.2422500
  C        0.7242680    -0.9886970    -0.2422570
  C       -1.1637400     0.4211370    -0.1388030
  C        1.1637350     0.4211420     0.1388200
  H       -1.3424580    -1.7652320    -0.2168500
  H       -0.7591500    -1.1180870     1.3290580
  H        1.3424710    -1.7652260     0.2168300
  H        0.7591600    -1.1180590    -1.3290680
  H       -1.5137280     0.4564660    -1.1799380
  H       -1.9528620     0.8231880     0.5042800
  H        1.5136860     0.4564610     1.1799670
  H        1.9528750     0.8232040    -0.5042320
units angstrom
no_reorient  #important for SAPT in psi4, default
symmetry c1  #important for SAPT in psi4, default
}

set PROPERTIES_ORIGIN ["COM"]
properties('MP2/aug-cc-pvtz', properties = ['dipole'])
--------------------------------------------------------------------------

    Molecular point group: c1
  Charge       = 0
  Multiplicity = 1
  Basis Set: AUG-CC-PVTZ
    Blend: AUG-CC-PVTZ
  Basis Set: (AUG-CC-PVTZ AUX)
    Blend: AUG-CC-PVTZ-JKFIT

    Orbital Energies [Eh]
    ---------------------

    Doubly Occupied:

       1A    -20.545466     2A    -11.271845     3A    -11.268482
       4A    -11.227650     5A    -11.226667     6A     -1.354883
       7A     -1.062726     8A     -0.986972     9A     -0.810147
      10A     -0.806432    11A     -0.680735    12A     -0.669564
      13A     -0.588673    14A     -0.586211    15A     -0.554158
      16A     -0.503186    17A     -0.493413    18A     -0.477093
      19A     -0.466244    20A     -0.408888

  @DF-RHF Final Energy:  -231.05973351486722

   => Energetics <=

    Nuclear Repulsion Energy =            190.2672899610968784
    One-Electron Energy =                -690.6751745155498838
    Two-Electron Energy =                 269.3481510395857867
    Total Energy =                       -231.0597335148672187
  Basis Set: (AUG-CC-PVTZ AUX)
    Blend: AUG-CC-PVTZ-RI
    Molecular point group: c1

    Geometry (in Angstrom), charge = 0, multiplicity = 1:

       Center              X                  Y                   Z               Mass
    ------------   -----------------  -----------------  -----------------  -----------------
         O            0.010545400882     1.223596162465     0.005621325046    15.994914619570
         C           -0.727268399118    -1.037177637535     0.240643225046    12.000000000000
         C            0.721258600882    -1.037168637535    -0.243863774954    12.000000000000
         C           -1.166749399118     0.372665362465    -0.140409774954    12.000000000000
         C            1.160725600882     0.372670362465     0.137213225046    12.000000000000
         H           -1.345467399118    -1.813703637535    -0.218456774954     1.007825032230
         H           -0.762159399118    -1.166558637535     1.327451225046     1.007825032230
         H            1.339461600882    -1.813697637535     0.215223225046     1.007825032230
         H            0.756150600882    -1.166530637535    -1.330674774954     1.007825032230
         H           -1.516737399118     0.407994362465    -1.181544774954     1.007825032230
         H           -1.955871399118     0.774716362465     0.502673225046     1.007825032230
         H            1.510676600882     0.407989362465     1.178360225046     1.007825032230
         H            1.949865600882     0.774732362465    -0.505838774954     1.007825032230

  Basis Set: AUG-CC-PVTZ
    Blend: AUG-CC-PVTZ
  Basis Set: (AUG-CC-PVTZ AUX)
    Blend: AUG-CC-PVTZ-JKFIT
	 Reference Energy          =    -231.0597335148672187 [Eh]
	 Singles Energy            =      -0.0000000000000000 [Eh]
	 Same-Spin Energy          =      -0.2327019038967018 [Eh]
	 Opposite-Spin Energy      =      -0.7963016445798230 [Eh]
	 Correlation Energy        =      -1.0290035484765248 [Eh]
	 Total Energy              =    -232.0887370633437570 [Eh]

	 ================> DF-SCS-MP2 Energies <==================
	-----------------------------------------------------------
	 SCS Same-Spin Scale       =       0.3333333333333333 [-]
	 SCS Opposite-Spin Scale   =       1.2000000000000000 [-]
	 SCS Same-Spin Energy      =      -0.0775673012989006 [Eh]
	 SCS Opposite-Spin Energy  =      -0.9555619734957875 [Eh]
	 SCS Correlation Energy    =      -1.0331292747946881 [Eh]
	 SCS Total Energy          =    -232.0928627896618934 [Eh]
	-----------------------------------------------------------

  Dipole Moment: [D]
     X:    -0.0665      Y:    -1.9426      Z:    -0.0209     Total:     1.9439

*** Psi4 exiting successfully. Buy a developer a beer!
