                               Psi4 1.3.2 release

  ==> Input File <==

--------------------------------------------------------------------------
#psi4
#
memory 32 gb

molecule  {
0 1
  O        0.0865080     1.3671308     0.0439905
  C       -0.7242590    -0.9887060     0.2422500
  C        0.7242680    -0.9886970    -0.2422570
  C       -1.1637400     0.4211370    -0.1388030
  C        1.1637350     0.4211420     0.1388200
  H       -1.3424580    -1.7652320    -0.2168500
  H       -0.7591500    -1.1180870     1.3290580
  H        1.3424710    -1.7652260     0.2168300
  H        0.7591600    -1.1180590    -1.3290680
  H       -1.5137280     0.4564660    -1.1799380
  H       -1.9528620     0.8231880     0.5042800
  H        1.5136860     0.4564610     1.1799670
  H        1.9528750     0.8232040    -0.5042320
units angstrom
no_reorient  #important for SAPT in psi4, default
symmetry c1  #important for SAPT in psi4, default
}

set PROPERTIES_ORIGIN ["COM"]
properties('MP2/aug-cc-pvtz', properties = ['dipole'])
--------------------------------------------------------------------------

    Molecular point group: c1
  Charge       = 0
  Multiplicity = 1
  Basis Set: AUG-CC-PVTZ
    Blend: AUG-CC-PVTZ
  Basis Set: (AUG-CC-PVTZ AUX)
    Blend: AUG-CC-PVTZ-JKFIT

    Orbital Energies [Eh]
    ---------------------

    Doubly Occupied:

       1A    -20.548700     2A    -11.283030     3A    -11.263546
       4A    -11.233429     5A    -11.229159     6A     -1.327611
       7A     -1.069834     8A     -0.978537     9A     -0.817690
      10A     -0.800850    11A     -0.674889    12A     -0.662329
      13A     -0.591825    14A     -0.575936    15A     -0.539367
      16A     -0.503893    17A     -0.492944    18A     -0.480056
      19A     -0.467388    20A     -0.411029

  @DF-RHF Final Energy:  -231.04270149595092

   => Energetics <=

    Nuclear Repulsion Energy =            187.9119787608673278
    One-Electron Energy =                -686.0052753943980406
    Two-Electron Energy =                 267.0505951375797622
    Total Energy =                       -231.0427014959509506
  Basis Set: (AUG-CC-PVTZ AUX)
    Blend: AUG-CC-PVTZ-RI
    Molecular point group: c1

    Geometry (in Angstrom), charge = 0, multiplicity = 1:

       Center              X                  Y                   Z               Mass
    ------------   -----------------  -----------------  -----------------  -----------------
         O            0.067304867207     1.297557621966     0.034223417961    15.994914619570
         C           -0.743462132793    -1.058279178034     0.232482917961    12.000000000000
         C            0.705064867207    -1.058270178034    -0.252024082039    12.000000000000
         C           -1.182943132793     0.351563821966    -0.148570082039    12.000000000000
         C            1.144531867207     0.351568821966     0.129052917961    12.000000000000
         H           -1.361661132793    -1.834805178034    -0.226617082039     1.007825032230
         H           -0.778353132793    -1.187660178034     1.319290917961     1.007825032230
         H            1.323267867207    -1.834799178034     0.207062917961     1.007825032230
         H            0.739956867207    -1.187632178034    -1.338835082039     1.007825032230
         H           -1.532931132793     0.386892821966    -1.189705082039     1.007825032230
         H           -1.972065132793     0.753614821966     0.494512917961     1.007825032230
         H            1.494482867207     0.386887821966     1.170199917961     1.007825032230
         H            1.933671867207     0.753630821966    -0.513999082039     1.007825032230

  Basis Set: AUG-CC-PVTZ
    Blend: AUG-CC-PVTZ
  Basis Set: (AUG-CC-PVTZ AUX)
    Blend: AUG-CC-PVTZ-JKFIT
	 Reference Energy          =    -231.0427014959509222 [Eh]
	 Singles Energy            =      -0.0000000000000000 [Eh]
	 Same-Spin Energy          =      -0.2336931469906118 [Eh]
	 Opposite-Spin Energy      =      -0.8003205649531134 [Eh]
	 Correlation Energy        =      -1.0340137119437252 [Eh]
	 Total Energy              =    -232.0767152078946367 [Eh]

	 ================> DF-SCS-MP2 Energies <==================
	-----------------------------------------------------------
	 SCS Same-Spin Scale       =       0.3333333333333333 [-]
	 SCS Opposite-Spin Scale   =       1.2000000000000000 [-]
	 SCS Same-Spin Energy      =      -0.0778977156635373 [Eh]
	 SCS Opposite-Spin Energy  =      -0.9603846779437361 [Eh]
	 SCS Correlation Energy    =      -1.0382823936072734 [Eh]
	 SCS Total Energy          =    -232.0809838895581834 [Eh]
	-----------------------------------------------------------

  Dipole Moment: [D]
     X:    -0.3677      Y:    -2.2275      Z:    -0.1187     Total:     2.2607

*** Psi4 exiting successfully. Buy a developer a beer!
