                               Psi4 1.3.2 release

  ==> Input File <==

--------------------------------------------------------------------------
#psi4
#
memory 32 gb

molecule  {
0 1
  O       -0.0000020     1.2522540    -0.0000130
  C       -0.7242590    -0.9887060     0.2422500
  C        0.7242680    -0.9886970    -0.2422570
  C       -1.1637400     0.4211370    -0.1388030
  C        1.1637350     0.4211420     0.1388200
  H       -1.3424580    -1.7652320    -0.2168500
  H       -0.7591500    -1.1180870     1.3290580
  H        1.3424710    -1.7652260     0.2168300
  H        0.7591600    -1.1180590    -1.3290680
  H       -1.5137280     0.4564660    -1.1799380
  H       -1.8807627     0.7864540     0.4455237
  H        1.5136860     0.4564610     1.1799670
  H        1.9528750     0.8232040    -0.5042320
units angstrom
no_reorient  #important for SAPT in psi4, default
symmetry c1  #important for SAPT in psi4, default
}

set PROPERTIES_ORIGIN ["COM"]
properties('MP2/aug-cc-pvtz', properties = ['dipole'])
--------------------------------------------------------------------------

    Molecular point group: c1
  Charge       = 0
  Multiplicity = 1
  Basis Set: AUG-CC-PVTZ
    Blend: AUG-CC-PVTZ
  Basis Set: (AUG-CC-PVTZ AUX)
    Blend: AUG-CC-PVTZ-JKFIT

    Orbital Energies [Eh]
    ---------------------

    Doubly Occupied:

       1A    -20.543163     2A    -11.268843     3A    -11.257051
       4A    -11.225865     5A    -11.225232     6A     -1.360535
       7A     -1.060908     8A     -0.994411     9A     -0.817926
      10A     -0.807019    11A     -0.685444    12A     -0.673184
      13A     -0.595413    14A     -0.587906    15A     -0.557515
      16A     -0.502911    17A     -0.495705    18A     -0.477545
      19A     -0.464575    20A     -0.408705

  @DF-RHF Final Energy:  -231.05544737258731

   => Energetics <=

    Nuclear Repulsion Energy =            191.2794486117050496
    One-Electron Energy =                -692.6500783120984579
    Two-Electron Energy =                 270.3151823278060988
    Total Energy =                       -231.0554473725873095
  Basis Set: (AUG-CC-PVTZ AUX)
    Blend: AUG-CC-PVTZ-RI
    Molecular point group: c1

    Geometry (in Angstrom), charge = 0, multiplicity = 1:

       Center              X                  Y                   Z               Mass
    ------------   -----------------  -----------------  -----------------  -----------------
         O           -0.001010547723     1.208694292673     0.000809351925    15.994914619570
         C           -0.725267547723    -1.032265707327     0.243072351925    12.000000000000
         C            0.723259452277    -1.032256707327    -0.241434648075    12.000000000000
         C           -1.164748547723     0.377577292673    -0.137980648075    12.000000000000
         C            1.162726452277     0.377582292673     0.139642351925    12.000000000000
         H           -1.343466547723    -1.808791707327    -0.216027648075     1.007825032230
         H           -0.760158547723    -1.161646707327     1.329880351925     1.007825032230
         H            1.341462452277    -1.808785707327     0.217652351925     1.007825032230
         H            0.758151452277    -1.161618707327    -1.328245648075     1.007825032230
         H           -1.514736547723     0.412906292673    -1.179115648075     1.007825032230
         H           -1.881771247723     0.742894292673     0.446346051925     1.007825032230
         H            1.512677452277     0.412901292673     1.180789351925     1.007825032230
         H            1.951866452277     0.779644292673    -0.503409648075     1.007825032230

  Basis Set: AUG-CC-PVTZ
    Blend: AUG-CC-PVTZ
  Basis Set: (AUG-CC-PVTZ AUX)
    Blend: AUG-CC-PVTZ-JKFIT
	 Reference Energy          =    -231.0554473725873095 [Eh]
	 Singles Energy            =      -0.0000000000000000 [Eh]
	 Same-Spin Energy          =      -0.2325253459361626 [Eh]
	 Opposite-Spin Energy      =      -0.7950903699583844 [Eh]
	 Correlation Energy        =      -1.0276157158945471 [Eh]
	 Total Energy              =    -232.0830630884818504 [Eh]

	 ================> DF-SCS-MP2 Energies <==================
	-----------------------------------------------------------
	 SCS Same-Spin Scale       =       0.3333333333333333 [-]
	 SCS Opposite-Spin Scale   =       1.2000000000000000 [-]
	 SCS Same-Spin Energy      =      -0.0775084486453875 [Eh]
	 SCS Opposite-Spin Energy  =      -0.9541084439500613 [Eh]
	 SCS Correlation Energy    =      -1.0316168925954488 [Eh]
	 SCS Total Energy          =    -232.0870642651827609 [Eh]
	-----------------------------------------------------------

  Dipole Moment: [D]
     X:    -0.0648      Y:    -1.8635      Z:     0.0185     Total:     1.8647

*** Psi4 exiting successfully. Buy a developer a beer!
