                               Psi4 1.3.2 release

  ==> Input File <==

--------------------------------------------------------------------------
#psi4
#
memory 32 gb

molecule  {
0 1
  O       -0.0000020     1.2522540    -0.0000130
  C       -0.7242590    -0.9887060     0.2422500
  C        0.7242680    -0.9886970    -0.2422570
  C       -1.1637400     0.4211370    -0.1388030
  C        1.1637350     0.4211420     0.1388200
  H       -1.3424580    -1.7652320    -0.2168500
  H       -0.7591500    -1.1180870     1.3290580
  H        1.3424710    -1.7652260     0.2168300
  H        0.7591600    -1.1180590    -1.3290680
  H       -1.5137280     0.4564660    -1.1799380
  H       -2.0970607     0.8966560     0.6217925
  H        1.5136860     0.4564610     1.1799670
  H        1.9528750     0.8232040    -0.5042320
units angstrom
no_reorient  #important for SAPT in psi4, default
symmetry c1  #important for SAPT in psi4, default
}

set PROPERTIES_ORIGIN ["COM"]
properties('MP2/aug-cc-pvtz', properties = ['dipole'])
--------------------------------------------------------------------------

    Molecular point group: c1
  Charge       = 0
  Multiplicity = 1
  Basis Set: AUG-CC-PVTZ
    Blend: AUG-CC-PVTZ
  Basis Set: (AUG-CC-PVTZ AUX)
    Blend: AUG-CC-PVTZ-JKFIT

    Orbital Energies [Eh]
    ---------------------

    Doubly Occupied:

       1A    -20.548858     2A    -11.293117     3A    -11.272112
       4A    -11.229115     5A    -11.228385     6A     -1.364485
       7A     -1.063699     8A     -0.984228     9A     -0.809967
      10A     -0.798402    11A     -0.682205    12A     -0.666685
      13A     -0.591431    14A     -0.578012    15A     -0.556377
      16A     -0.505535    17A     -0.491089    18A     -0.475081
      19A     -0.459865    20A     -0.404764

  @DF-RHF Final Energy:  -231.04069542382544

   => Energetics <=

    Nuclear Repulsion Energy =            189.9190642731945502
    One-Electron Energy =                -689.9126954814530563
    Two-Electron Energy =                 268.9529357844331230
    Total Energy =                       -231.0406954238254116
  Basis Set: (AUG-CC-PVTZ AUX)
    Blend: AUG-CC-PVTZ-RI
    Molecular point group: c1

    Geometry (in Angstrom), charge = 0, multiplicity = 1:

       Center              X                  Y                   Z               Mass
    ------------   -----------------  -----------------  -----------------  -----------------
         O            0.002014682042     1.207152963716    -0.001656013545    15.994914619570
         C           -0.722242317958    -1.033807036284     0.240606986455    12.000000000000
         C            0.726284682042    -1.033798036284    -0.243900013545    12.000000000000
         C           -1.161723317958     0.376035963716    -0.140446013545    12.000000000000
         C            1.165751682042     0.376040963716     0.137176986455    12.000000000000
         H           -1.340441317958    -1.810333036284    -0.218493013545     1.007825032230
         H           -0.757133317958    -1.163188036284     1.327414986455     1.007825032230
         H            1.344487682042    -1.810327036284     0.215186986455     1.007825032230
         H            0.761176682042    -1.163160036284    -1.330711013545     1.007825032230
         H           -1.511711317958     0.411364963716    -1.181581013545     1.007825032230
         H           -2.095044017958     0.851554963716     0.620149486455     1.007825032230
         H            1.515702682042     0.411359963716     1.178323986455     1.007825032230
         H            1.954891682042     0.778102963716    -0.505875013545     1.007825032230

  Basis Set: AUG-CC-PVTZ
    Blend: AUG-CC-PVTZ
  Basis Set: (AUG-CC-PVTZ AUX)
    Blend: AUG-CC-PVTZ-JKFIT
	 Reference Energy          =    -231.0406954238254400 [Eh]
	 Singles Energy            =      -0.0000000000000000 [Eh]
	 Same-Spin Energy          =      -0.2327743169511298 [Eh]
	 Opposite-Spin Energy      =      -0.7974404426850498 [Eh]
	 Correlation Energy        =      -1.0302147596361795 [Eh]
	 Total Energy              =    -232.0709101834616206 [Eh]

	 ================> DF-SCS-MP2 Energies <==================
	-----------------------------------------------------------
	 SCS Same-Spin Scale       =       0.3333333333333333 [-]
	 SCS Opposite-Spin Scale   =       1.2000000000000000 [-]
	 SCS Same-Spin Energy      =      -0.0775914389837099 [Eh]
	 SCS Opposite-Spin Energy  =      -0.9569285312220597 [Eh]
	 SCS Correlation Energy    =      -1.0345199702057697 [Eh]
	 SCS Total Energy          =    -232.0752153940312041 [Eh]
	-----------------------------------------------------------

  Dipole Moment: [D]
     X:     0.1981      Y:    -1.9437      Z:    -0.0699     Total:     1.9550

*** Psi4 exiting successfully. Buy a developer a beer!
