                               Psi4 1.3.2 release

  ==> Input File <==

--------------------------------------------------------------------------
#psi4
#
memory 32 gb

molecule  {
0 1
  O       -0.0000020     1.2522540    -0.0000130
  C       -0.7242590    -0.9887060     0.2422500
  C        0.7242680    -0.9886970    -0.2422570
  C       -1.1637400     0.4211370    -0.1388030
  C        1.1637350     0.4211420     0.1388200
  H       -1.3424580    -1.7652320    -0.2168500
  H       -0.7591500    -1.1180870     1.3290580
  H        1.3241043    -1.7358778     0.2848581
  H        0.7591600    -1.1180590    -1.3290680
  H       -1.5137280     0.4564660    -1.1799380
  H       -1.9528620     0.8231880     0.5042800
  H        1.5136860     0.4564610     1.1799670
  H        1.9528750     0.8232040    -0.5042320
units angstrom
no_reorient  #important for SAPT in psi4, default
symmetry c1  #important for SAPT in psi4, default
}

set PROPERTIES_ORIGIN ["COM"]
properties('MP2/aug-cc-pvtz', properties = ['dipole'])
--------------------------------------------------------------------------

    Molecular point group: c1
  Charge       = 0
  Multiplicity = 1
  Basis Set: AUG-CC-PVTZ
    Blend: AUG-CC-PVTZ
  Basis Set: (AUG-CC-PVTZ AUX)
    Blend: AUG-CC-PVTZ-JKFIT

    Orbital Energies [Eh]
    ---------------------

    Doubly Occupied:

       1A    -20.544093     2A    -11.269294     3A    -11.269209
       4A    -11.226518     5A    -11.225763     6A     -1.360997
       7A     -1.061914     8A     -0.988927     9A     -0.808590
      10A     -0.805971    11A     -0.684022    12A     -0.669872
      13A     -0.590282    14A     -0.588427    15A     -0.558654
      16A     -0.501756    17A     -0.491173    18A     -0.478364
      19A     -0.464110    20A     -0.407659

  @DF-RHF Final Energy:  -231.06051113839834

   => Energetics <=

    Nuclear Repulsion Energy =            190.8305873855592836
    One-Electron Energy =                -691.7910057434582995
    Two-Electron Energy =                 269.8999072195006761
    Total Energy =                       -231.0605111383983399
  Basis Set: (AUG-CC-PVTZ AUX)
    Blend: AUG-CC-PVTZ-RI
    Molecular point group: c1

    Geometry (in Angstrom), charge = 0, multiplicity = 1:

       Center              X                  Y                   Z               Mass
    ------------   -----------------  -----------------  -----------------  -----------------
         O            0.000254745696     1.207770040768    -0.000963905066    15.994914619570
         C           -0.724002254304    -1.033189959232     0.241299094934    12.000000000000
         C            0.724524745696    -1.033180959232    -0.243207905066    12.000000000000
         C           -1.163483254304     0.376653040768    -0.139753905066    12.000000000000
         C            1.163991745696     0.376658040768     0.137869094934    12.000000000000
         H           -1.342201254304    -1.809715959232    -0.217800905066     1.007825032230
         H           -0.758893254304    -1.162570959232     1.328107094934     1.007825032230
         H            1.324361045696    -1.780361759232     0.283907194934     1.007825032230
         H            0.759416745696    -1.162542959232    -1.330018905066     1.007825032230
         H           -1.513471254304     0.411982040768    -1.180888905066     1.007825032230
         H           -1.952605254304     0.778704040768     0.503329094934     1.007825032230
         H            1.513942745696     0.411977040768     1.179016094934     1.007825032230
         H            1.953131745696     0.778720040768    -0.505182905066     1.007825032230

  Basis Set: AUG-CC-PVTZ
    Blend: AUG-CC-PVTZ
  Basis Set: (AUG-CC-PVTZ AUX)
    Blend: AUG-CC-PVTZ-JKFIT
	 Reference Energy          =    -231.0605111383983399 [Eh]
	 Singles Energy            =      -0.0000000000000000 [Eh]
	 Same-Spin Energy          =      -0.2326479608944788 [Eh]
	 Opposite-Spin Energy      =      -0.7958010767172938 [Eh]
	 Correlation Energy        =      -1.0284490376117725 [Eh]
	 Total Energy              =    -232.0889601760101186 [Eh]

	 ================> DF-SCS-MP2 Energies <==================
	-----------------------------------------------------------
	 SCS Same-Spin Scale       =       0.3333333333333333 [-]
	 SCS Opposite-Spin Scale   =       1.2000000000000000 [-]
	 SCS Same-Spin Energy      =      -0.0775493202981596 [Eh]
	 SCS Opposite-Spin Energy  =      -0.9549612920607525 [Eh]
	 SCS Correlation Energy    =      -1.0325106123589121 [Eh]
	 SCS Total Energy          =    -232.0930217507572593 [Eh]
	-----------------------------------------------------------

  Dipole Moment: [D]
     X:    -0.0057      Y:    -1.8731      Z:     0.0153     Total:     1.8732

*** Psi4 exiting successfully. Buy a developer a beer!
