                               Psi4 1.3.2 release

  ==> Input File <==

--------------------------------------------------------------------------
#psi4
#
memory 32 gb

molecule  {
0 1
  O       -0.0000020     1.2522540    -0.0000130
  C       -0.7242590    -0.9887060     0.2422500
  C        0.7242680    -0.9886970    -0.2422570
  C       -1.2447369     0.3632907    -0.1484629
  C        1.1637350     0.4211420     0.1388200
  H       -1.3424580    -1.7652320    -0.2168500
  H       -0.7591500    -1.1180870     1.3290580
  H        1.3424710    -1.7652260     0.2168300
  H        0.7591600    -1.1180590    -1.3290680
  H       -1.5137280     0.4564660    -1.1799380
  H       -1.9528620     0.8231880     0.5042800
  H        1.5136860     0.4564610     1.1799670
  H        1.9528750     0.8232040    -0.5042320
units angstrom
no_reorient  #important for SAPT in psi4, default
symmetry c1  #important for SAPT in psi4, default
}

set PROPERTIES_ORIGIN ["COM"]
properties('MP2/aug-cc-pvtz', properties = ['dipole'])
--------------------------------------------------------------------------

    Molecular point group: c1
  Charge       = 0
  Multiplicity = 1
  Basis Set: AUG-CC-PVTZ
    Blend: AUG-CC-PVTZ
  Basis Set: (AUG-CC-PVTZ AUX)
    Blend: AUG-CC-PVTZ-JKFIT

    Orbital Energies [Eh]
    ---------------------

    Doubly Occupied:

       1A    -20.535523     2A    -11.271518     3A    -11.264239
       4A    -11.228631     5A    -11.226338     6A     -1.330997
       7A     -1.062752     8A     -0.989391     9A     -0.815800
      10A     -0.802868    11A     -0.679696    12A     -0.662647
      13A     -0.597214    14A     -0.578362    15A     -0.542643
      16A     -0.506004    17A     -0.495176    18A     -0.479881
      19A     -0.457737    20A     -0.407880

  @DF-RHF Final Energy:  -231.05203155985836

   => Energetics <=

    Nuclear Repulsion Energy =            189.5801542549188241
    One-Electron Energy =                -689.3937736816272945
    Two-Electron Energy =                 268.7615878668501068
    Total Energy =                       -231.0520315598583352
  Basis Set: (AUG-CC-PVTZ AUX)
    Blend: AUG-CC-PVTZ-RI
    Molecular point group: c1

    Geometry (in Angstrom), charge = 0, multiplicity = 1:

       Center              X                  Y                   Z               Mass
    ------------   -----------------  -----------------  -----------------  -----------------
         O            0.013486570046     1.217813871059     0.001596261245    15.994914619570
         C           -0.710770429954    -1.023146128941     0.243859261245    12.000000000000
         C            0.737756570046    -1.023137128941    -0.240647738755    12.000000000000
         C           -1.231248329954     0.328850571059    -0.146853638755    12.000000000000
         C            1.177223570046     0.386701871059     0.140429261245    12.000000000000
         H           -1.328969429954    -1.799672128941    -0.215240738755     1.007825032230
         H           -0.745661429954    -1.152527128941     1.330667261245     1.007825032230
         H            1.355959570046    -1.799666128941     0.218439261245     1.007825032230
         H            0.772648570046    -1.152499128941    -1.327458738755     1.007825032230
         H           -1.500239429954     0.422025871059    -1.178328738755     1.007825032230
         H           -1.939373429954     0.788747871059     0.505889261245     1.007825032230
         H            1.527174570046     0.422020871059     1.181576261245     1.007825032230
         H            1.966363570046     0.788763871059    -0.502622738755     1.007825032230

  Basis Set: AUG-CC-PVTZ
    Blend: AUG-CC-PVTZ
  Basis Set: (AUG-CC-PVTZ AUX)
    Blend: AUG-CC-PVTZ-JKFIT
	 Reference Energy          =    -231.0520315598583636 [Eh]
	 Singles Energy            =      -0.0000000000000000 [Eh]
	 Same-Spin Energy          =      -0.2331597479980882 [Eh]
	 Opposite-Spin Energy      =      -0.7976645076313837 [Eh]
	 Correlation Energy        =      -1.0308242556294720 [Eh]
	 Total Energy              =    -232.0828558154878465 [Eh]

	 ================> DF-SCS-MP2 Energies <==================
	-----------------------------------------------------------
	 SCS Same-Spin Scale       =       0.3333333333333333 [-]
	 SCS Opposite-Spin Scale   =       1.2000000000000000 [-]
	 SCS Same-Spin Energy      =      -0.0777199159993627 [Eh]
	 SCS Opposite-Spin Energy  =      -0.9571974091576605 [Eh]
	 SCS Correlation Energy    =      -1.0349173251570232 [Eh]
	 SCS Total Energy          =    -232.0869488850153743 [Eh]
	-----------------------------------------------------------

  Dipole Moment: [D]
     X:    -0.2699      Y:    -2.0149      Z:    -0.0512     Total:     2.0336

*** Psi4 exiting successfully. Buy a developer a beer!
