                               Psi4 1.3.2 release

  ==> Input File <==

--------------------------------------------------------------------------
#psi4
#
memory 32 gb

molecule  {
0 1
  O       -0.0000020     1.2522540    -0.0000130
  C       -0.7127081    -1.0300632     0.2738496
  C        0.7242680    -0.9886970    -0.2422570
  C       -1.1637400     0.4211370    -0.1388030
  C        1.1637350     0.4211420     0.1388200
  H       -1.3424580    -1.7652320    -0.2168500
  H       -0.7591500    -1.1180870     1.3290580
  H        1.3424710    -1.7652260     0.2168300
  H        0.7591600    -1.1180590    -1.3290680
  H       -1.5137280     0.4564660    -1.1799380
  H       -1.9528620     0.8231880     0.5042800
  H        1.5136860     0.4564610     1.1799670
  H        1.9528750     0.8232040    -0.5042320
units angstrom
no_reorient  #important for SAPT in psi4, default
symmetry c1  #important for SAPT in psi4, default
}

set PROPERTIES_ORIGIN ["COM"]
properties('MP2/aug-cc-pvtz', properties = ['dipole'])
--------------------------------------------------------------------------

    Molecular point group: c1
  Charge       = 0
  Multiplicity = 1
  Basis Set: AUG-CC-PVTZ
    Blend: AUG-CC-PVTZ
  Basis Set: (AUG-CC-PVTZ AUX)
    Blend: AUG-CC-PVTZ-JKFIT

    Orbital Energies [Eh]
    ---------------------

    Doubly Occupied:

       1A    -20.544511     2A    -11.271345     3A    -11.269804
       4A    -11.226468     5A    -11.225065     6A     -1.359902
       7A     -1.059157     8A     -0.984390     9A     -0.812786
      10A     -0.806129    11A     -0.681720    12A     -0.667583
      13A     -0.593446    14A     -0.586992    15A     -0.560086
      16A     -0.503959    17A     -0.486622    18A     -0.485490
      19A     -0.456683    20A     -0.407588

  @DF-RHF Final Energy:  -231.05865065858799

   => Energetics <=

    Nuclear Repulsion Energy =            190.2056891205429565
    One-Electron Energy =                -690.5492268977455979
    Two-Electron Energy =                 269.2848871186146198
    Total Energy =                       -231.0586506585880215
  Basis Set: (AUG-CC-PVTZ AUX)
    Blend: AUG-CC-PVTZ-RI
    Molecular point group: c1

    Geometry (in Angstrom), charge = 0, multiplicity = 1:

       Center              X                  Y                   Z               Mass
    ------------   -----------------  -----------------  -----------------  -----------------
         O           -0.001925751651     1.215067881271    -0.005274833336    15.994914619570
         C           -0.714631851651    -1.067249318729     0.268587766664    12.000000000000
         C            0.722344248349    -1.025883118729    -0.247518833336    12.000000000000
         C           -1.165663751651     0.383950881271    -0.144064833336    12.000000000000
         C            1.161811248349     0.383955881271     0.133558166664    12.000000000000
         H           -1.344381751651    -1.802418118729    -0.222111833336     1.007825032230
         H           -0.761073751651    -1.155273118729     1.323796166664     1.007825032230
         H            1.340547248349    -1.802412118729     0.211568166664     1.007825032230
         H            0.757236248349    -1.155245118729    -1.334329833336     1.007825032230
         H           -1.515651751651     0.419279881271    -1.185199833336     1.007825032230
         H           -1.954785751651     0.786001881271     0.499018166664     1.007825032230
         H            1.511762248349     0.419274881271     1.174705166664     1.007825032230
         H            1.950951248349     0.786017881271    -0.509493833336     1.007825032230

  Basis Set: AUG-CC-PVTZ
    Blend: AUG-CC-PVTZ
  Basis Set: (AUG-CC-PVTZ AUX)
    Blend: AUG-CC-PVTZ-JKFIT
	 Reference Energy          =    -231.0586506585879931 [Eh]
	 Singles Energy            =      -0.0000000000000000 [Eh]
	 Same-Spin Energy          =      -0.2324539021092820 [Eh]
	 Opposite-Spin Energy      =      -0.7956939870495794 [Eh]
	 Correlation Energy        =      -1.0281478891588614 [Eh]
	 Total Energy              =    -232.0867985477468665 [Eh]

	 ================> DF-SCS-MP2 Energies <==================
	-----------------------------------------------------------
	 SCS Same-Spin Scale       =       0.3333333333333333 [-]
	 SCS Opposite-Spin Scale   =       1.2000000000000000 [-]
	 SCS Same-Spin Energy      =      -0.0774846340364273 [Eh]
	 SCS Opposite-Spin Energy  =      -0.9548327844594953 [Eh]
	 SCS Correlation Energy    =      -1.0323174184959225 [Eh]
	 SCS Total Energy          =    -232.0909680770839145 [Eh]
	-----------------------------------------------------------

  Dipole Moment: [D]
     X:    -0.0000      Y:    -1.8631      Z:     0.0076     Total:     1.8631

*** Psi4 exiting successfully. Buy a developer a beer!
