                               Psi4 1.3.2 release

  ==> Input File <==

--------------------------------------------------------------------------
#psi4
#
memory 32 gb

molecule  {
0 1
  O       -0.0000020     1.2522540    -0.0000130
  C       -0.7242590    -0.9887060     0.2422500
  C        0.7242680    -0.9886970    -0.2422570
  C       -1.2436284     0.5481957    -0.1483354
  C        1.1637350     0.4211420     0.1388200
  H       -1.3424580    -1.7652320    -0.2168500
  H       -0.7591500    -1.1180870     1.3290580
  H        1.3424710    -1.7652260     0.2168300
  H        0.7591600    -1.1180590    -1.3290680
  H       -1.5137280     0.4564660    -1.1799380
  H       -1.9528620     0.8231880     0.5042800
  H        1.5136860     0.4564610     1.1799670
  H        1.9528750     0.8232040    -0.5042320
units angstrom
no_reorient  #important for SAPT in psi4, default
symmetry c1  #important for SAPT in psi4, default
}

set PROPERTIES_ORIGIN ["COM"]
properties('MP2/aug-cc-pvtz', properties = ['dipole'])
--------------------------------------------------------------------------

    Molecular point group: c1
  Charge       = 0
  Multiplicity = 1
  Basis Set: AUG-CC-PVTZ
    Blend: AUG-CC-PVTZ
  Basis Set: (AUG-CC-PVTZ AUX)
    Blend: AUG-CC-PVTZ-JKFIT

    Orbital Energies [Eh]
    ---------------------

    Doubly Occupied:

       1A    -20.541671     2A    -11.271005     3A    -11.269784
       4A    -11.228722     5A    -11.224482     6A     -1.355166
       7A     -1.047639     8A     -0.985572     9A     -0.822424
      10A     -0.800725    11A     -0.683570    12A     -0.661175
      13A     -0.608104    14A     -0.588314    15A     -0.563934
      16A     -0.502534    17A     -0.487897    18A     -0.475252
      19A     -0.435816    20A     -0.407544

  @DF-RHF Final Energy:  -231.04096360542010

   => Energetics <=

    Nuclear Repulsion Energy =            189.0223427908420604
    One-Electron Energy =                -688.2039543915473132
    Two-Electron Energy =                 268.1406479952851214
    Total Energy =                       -231.0409636054201314
  Basis Set: (AUG-CC-PVTZ AUX)
    Blend: AUG-CC-PVTZ-RI
    Molecular point group: c1

    Geometry (in Angstrom), charge = 0, multiplicity = 1:

       Center              X                  Y                   Z               Mass
    ------------   -----------------  -----------------  -----------------  -----------------
         O            0.013301967510     1.187020968976     0.001575028206    15.994914619570
         C           -0.710955032490    -1.053939031024     0.243838028206    12.000000000000
         C            0.737571967510    -1.053930031024    -0.240668971794    12.000000000000
         C           -1.230324432490     0.482962668976    -0.146747371794    12.000000000000
         C            1.177038967510     0.355908968976     0.140408028206    12.000000000000
         H           -1.329154032490    -1.830465031024    -0.215261971794     1.007825032230
         H           -0.745846032490    -1.183320031024     1.330646028206     1.007825032230
         H            1.355774967510    -1.830459031024     0.218418028206     1.007825032230
         H            0.772463967510    -1.183292031024    -1.327479971794     1.007825032230
         H           -1.500424032490     0.391232968976    -1.178349971794     1.007825032230
         H           -1.939558032490     0.757954968976     0.505868028206     1.007825032230
         H            1.526989967510     0.391227968976     1.181555028206     1.007825032230
         H            1.966178967510     0.757970968976    -0.502643971794     1.007825032230

  Basis Set: AUG-CC-PVTZ
    Blend: AUG-CC-PVTZ
  Basis Set: (AUG-CC-PVTZ AUX)
    Blend: AUG-CC-PVTZ-JKFIT
	 Reference Energy          =    -231.0409636054201030 [Eh]
	 Singles Energy            =      -0.0000000000000000 [Eh]
	 Same-Spin Energy          =      -0.2322510107449630 [Eh]
	 Opposite-Spin Energy      =      -0.7959893026163746 [Eh]
	 Correlation Energy        =      -1.0282403133613376 [Eh]
	 Total Energy              =    -232.0692039187814544 [Eh]

	 ================> DF-SCS-MP2 Energies <==================
	-----------------------------------------------------------
	 SCS Same-Spin Scale       =       0.3333333333333333 [-]
	 SCS Opposite-Spin Scale   =       1.2000000000000000 [-]
	 SCS Same-Spin Energy      =      -0.0774170035816543 [Eh]
	 SCS Opposite-Spin Energy  =      -0.9551871631396495 [Eh]
	 SCS Correlation Energy    =      -1.0326041667213037 [Eh]
	 SCS Total Energy          =    -232.0735677721414163 [Eh]
	-----------------------------------------------------------

  Dipole Moment: [D]
     X:    -0.0822      Y:    -1.7277      Z:    -0.0146     Total:     1.7298

*** Psi4 exiting successfully. Buy a developer a beer!
