                               Psi4 1.3.2 release

  ==> Input File <==

--------------------------------------------------------------------------
#psi4
#
memory 32 gb

molecule  {
0 1
  O       -0.0520491     1.3082406     0.0648998
  C       -0.7242590    -0.9887060     0.2422500
  C        0.7242680    -0.9886970    -0.2422570
  C       -1.1637400     0.4211370    -0.1388030
  C        1.1637350     0.4211420     0.1388200
  H       -1.3424580    -1.7652320    -0.2168500
  H       -0.7591500    -1.1180870     1.3290580
  H        1.3424710    -1.7652260     0.2168300
  H        0.7591600    -1.1180590    -1.3290680
  H       -1.5137280     0.4564660    -1.1799380
  H       -1.9528620     0.8231880     0.5042800
  H        1.5136860     0.4564610     1.1799670
  H        1.9528750     0.8232040    -0.5042320
units angstrom
no_reorient  #important for SAPT in psi4, default
symmetry c1  #important for SAPT in psi4, default
}

set PROPERTIES_ORIGIN ["COM"]
properties('MP2/aug-cc-pvtz', properties = ['dipole'])
--------------------------------------------------------------------------

    Molecular point group: c1
  Charge       = 0
  Multiplicity = 1
  Basis Set: AUG-CC-PVTZ
    Blend: AUG-CC-PVTZ
  Basis Set: (AUG-CC-PVTZ AUX)
    Blend: AUG-CC-PVTZ-JKFIT

    Orbital Energies [Eh]
    ---------------------

    Doubly Occupied:

       1A    -20.547305     2A    -11.275765     3A    -11.266797
       4A    -11.230213     5A    -11.227188     6A     -1.343267
       7A     -1.065349     8A     -0.983304     9A     -0.812899
      10A     -0.804412    11A     -0.677898    12A     -0.666435
      13A     -0.589919    14A     -0.582278    15A     -0.546405
      16A     -0.503467    17A     -0.492786    18A     -0.478043
      19A     -0.468250    20A     -0.410852

  @DF-RHF Final Energy:  -231.05433806714001

   => Energetics <=

    Nuclear Repulsion Energy =            189.3125876734442841
    One-Electron Energy =                -688.7881898632367665
    Two-Electron Energy =                 268.4212641226524738
    Total Energy =                       -231.0543380671400087
  Basis Set: (AUG-CC-PVTZ AUX)
    Blend: AUG-CC-PVTZ-RI
    Molecular point group: c1

    Geometry (in Angstrom), charge = 0, multiplicity = 1:

       Center              X                  Y                   Z               Mass
    ------------   -----------------  -----------------  -----------------  -----------------
         O           -0.040496120982     1.251739531412     0.050491391254    15.994914619570
         C           -0.712706020982    -1.045207068588     0.227841591254    12.000000000000
         C            0.735820979018    -1.045198068588    -0.256665408746    12.000000000000
         C           -1.152187020982     0.364635931412    -0.153211408746    12.000000000000
         C            1.175287979018     0.364640931412     0.124411591254    12.000000000000
         H           -1.330905020982    -1.821733068588    -0.231258408746     1.007825032230
         H           -0.747597020982    -1.174588068588     1.314649591254     1.007825032230
         H            1.354023979018    -1.821727068588     0.202421591254     1.007825032230
         H            0.770712979018    -1.174560068588    -1.343476408746     1.007825032230
         H           -1.502175020982     0.399964931412    -1.194346408746     1.007825032230
         H           -1.941309020982     0.766686931412     0.489871591254     1.007825032230
         H            1.525238979018     0.399959931412     1.165558591254     1.007825032230
         H            1.964427979018     0.766702931412    -0.518640408746     1.007825032230

  Basis Set: AUG-CC-PVTZ
    Blend: AUG-CC-PVTZ
  Basis Set: (AUG-CC-PVTZ AUX)
    Blend: AUG-CC-PVTZ-JKFIT
	 Reference Energy          =    -231.0543380671400087 [Eh]
	 Singles Energy            =      -0.0000000000000000 [Eh]
	 Same-Spin Energy          =      -0.2330866490596283 [Eh]
	 Opposite-Spin Energy      =      -0.7978520235289877 [Eh]
	 Correlation Energy        =      -1.0309386725886160 [Eh]
	 Total Energy              =    -232.0852767397286129 [Eh]

	 ================> DF-SCS-MP2 Energies <==================
	-----------------------------------------------------------
	 SCS Same-Spin Scale       =       0.3333333333333333 [-]
	 SCS Opposite-Spin Scale   =       1.2000000000000000 [-]
	 SCS Same-Spin Energy      =      -0.0776955496865428 [Eh]
	 SCS Opposite-Spin Energy  =      -0.9574224282347852 [Eh]
	 SCS Correlation Energy    =      -1.0351179779213280 [Eh]
	 SCS Total Energy          =    -232.0894560450613255 [Eh]
	-----------------------------------------------------------

  Dipole Moment: [D]
     X:     0.2007      Y:    -2.0507      Z:    -0.0862     Total:     2.0623

*** Psi4 exiting successfully. Buy a developer a beer!
