                               Psi4 1.3.2 release

  ==> Input File <==

--------------------------------------------------------------------------
#psi4
#
memory 32 gb

molecule  {
0 1
  O       -0.0000020     1.2522540    -0.0000130
  C       -0.7242590    -0.9887060     0.2422500
  C        0.7242680    -0.9886970    -0.2422570
  C       -1.1637400     0.4211370    -0.1388030
  C        1.1637350     0.4211420     0.1388200
  H       -1.3424580    -1.7652320    -0.2168500
  H       -0.7591500    -1.1180870     1.3290580
  H        1.3465952    -1.7719771     0.1994603
  H        0.7591600    -1.1180590    -1.3290680
  H       -1.5137280     0.4564660    -1.1799380
  H       -1.9528620     0.8231880     0.5042800
  H        1.5136860     0.4564610     1.1799670
  H        1.9528750     0.8232040    -0.5042320
units angstrom
no_reorient  #important for SAPT in psi4, default
symmetry c1  #important for SAPT in psi4, default
}

set PROPERTIES_ORIGIN ["COM"]
properties('MP2/aug-cc-pvtz', properties = ['dipole'])
--------------------------------------------------------------------------

    Molecular point group: c1
  Charge       = 0
  Multiplicity = 1
  Basis Set: AUG-CC-PVTZ
    Blend: AUG-CC-PVTZ
  Basis Set: (AUG-CC-PVTZ AUX)
    Blend: AUG-CC-PVTZ-JKFIT

    Orbital Energies [Eh]
    ---------------------

    Doubly Occupied:

       1A    -20.544705     2A    -11.269777     3A    -11.269740
       4A    -11.226679     5A    -11.226050     6A     -1.361436
       7A     -1.061328     8A     -0.988960     9A     -0.808825
      10A     -0.807915    11A     -0.681949    12A     -0.671708
      13A     -0.589475    14A     -0.587687    15A     -0.556932
      16A     -0.503837    17A     -0.494057    18A     -0.476106
      19A     -0.464200    20A     -0.407947

  @DF-RHF Final Energy:  -231.06107637978997

   => Energetics <=

    Nuclear Repulsion Energy =            190.7581572163360022
    One-Electron Energy =                -691.6398466876452176
    Two-Electron Energy =                 269.8206130915192489
    Total Energy =                       -231.0610763797899381
  Basis Set: (AUG-CC-PVTZ AUX)
    Blend: AUG-CC-PVTZ-RI
    Molecular point group: c1

    Geometry (in Angstrom), charge = 0, multiplicity = 1:

       Center              X                  Y                   Z               Mass
    ------------   -----------------  -----------------  -----------------  -----------------
         O           -0.000059820967     1.208274939921     0.000230502494    15.994914619570
         C           -0.724316820967    -1.032685060079     0.242493502494    12.000000000000
         C            0.724210179033    -1.032676060079    -0.242013497506    12.000000000000
         C           -1.163797820967     0.377157939921    -0.138559497506    12.000000000000
         C            1.163677179033     0.377162939921     0.139063502494    12.000000000000
         H           -1.342515820967    -1.809211060079    -0.216606497506     1.007825032230
         H           -0.759207820967    -1.162066060079     1.329301502494     1.007825032230
         H            1.346537379033    -1.815956160079     0.199703802494     1.007825032230
         H            0.759102179033    -1.162038060079    -1.328824497506     1.007825032230
         H           -1.513785820967     0.412486939921    -1.179694497506     1.007825032230
         H           -1.952919820967     0.779208939921     0.504523502494     1.007825032230
         H            1.513628179033     0.412481939921     1.180210502494     1.007825032230
         H            1.952817179033     0.779224939921    -0.503988497506     1.007825032230

  Basis Set: AUG-CC-PVTZ
    Blend: AUG-CC-PVTZ
  Basis Set: (AUG-CC-PVTZ AUX)
    Blend: AUG-CC-PVTZ-JKFIT
	 Reference Energy          =    -231.0610763797899665 [Eh]
	 Singles Energy            =      -0.0000000000000000 [Eh]
	 Same-Spin Energy          =      -0.2325663875949377 [Eh]
	 Opposite-Spin Energy      =      -0.7956165590307132 [Eh]
	 Correlation Energy        =      -1.0281829466256509 [Eh]
	 Total Energy              =    -232.0892593264156289 [Eh]

	 ================> DF-SCS-MP2 Energies <==================
	-----------------------------------------------------------
	 SCS Same-Spin Scale       =       0.3333333333333333 [-]
	 SCS Opposite-Spin Scale   =       1.2000000000000000 [-]
	 SCS Same-Spin Energy      =      -0.0775221291983126 [Eh]
	 SCS Opposite-Spin Energy  =      -0.9547398708368557 [Eh]
	 SCS Correlation Energy    =      -1.0322620000351683 [Eh]
	 SCS Total Energy          =    -232.0933383798251270 [Eh]
	-----------------------------------------------------------

  Dipole Moment: [D]
     X:     0.0012      Y:    -1.8825      Z:    -0.0044     Total:     1.8825

*** Psi4 exiting successfully. Buy a developer a beer!
