                               Psi4 1.3.2 release

  ==> Input File <==

--------------------------------------------------------------------------
#psi4
#
memory 32 gb

molecule  {
0 1
  O       -0.0801206     1.3346295     0.0970037
  C       -0.7242590    -0.9887060     0.2422500
  C        0.7242680    -0.9886970    -0.2422570
  C       -1.1637400     0.4211370    -0.1388030
  C        1.1637350     0.4211420     0.1388200
  H       -1.3424580    -1.7652320    -0.2168500
  H       -0.7591500    -1.1180870     1.3290580
  H        1.3424710    -1.7652260     0.2168300
  H        0.7591600    -1.1180590    -1.3290680
  H       -1.5137280     0.4564660    -1.1799380
  H       -1.9528620     0.8231880     0.5042800
  H        1.5136860     0.4564610     1.1799670
  H        1.9528750     0.8232040    -0.5042320
units angstrom
no_reorient  #important for SAPT in psi4, default
symmetry c1  #important for SAPT in psi4, default
}

set PROPERTIES_ORIGIN ["COM"]
properties('MP2/aug-cc-pvtz', properties = ['dipole'])
--------------------------------------------------------------------------

    Molecular point group: c1
  Charge       = 0
  Multiplicity = 1
  Basis Set: AUG-CC-PVTZ
    Blend: AUG-CC-PVTZ
  Basis Set: (AUG-CC-PVTZ AUX)
    Blend: AUG-CC-PVTZ-JKFIT

    Orbital Energies [Eh]
    ---------------------

    Doubly Occupied:

       1A    -20.548639     2A    -11.278963     3A    -11.265522
       4A    -11.232052     5A    -11.227640     6A     -1.335234
       7A     -1.067447     8A     -0.980711     9A     -0.815140
      10A     -0.802839    11A     -0.676018    12A     -0.664350
      13A     -0.591392    14A     -0.579636    15A     -0.540718
      16A     -0.504096    17A     -0.492400    18A     -0.479033
      19A     -0.467514    20A     -0.412091

  @DF-RHF Final Energy:  -231.04822586355854

   => Energetics <=

    Nuclear Repulsion Energy =            188.6063783205732420
    One-Electron Energy =                -687.3863403120875546
    Two-Electron Energy =                 267.7317361279557417
    Total Energy =                       -231.0482258635585708
  Basis Set: (AUG-CC-PVTZ AUX)
    Blend: AUG-CC-PVTZ-RI
    Molecular point group: c1

    Geometry (in Angstrom), charge = 0, multiplicity = 1:

       Center              X                  Y                   Z               Mass
    ------------   -----------------  -----------------  -----------------  -----------------
         O           -0.062336470123     1.272270774468     0.075469051328    15.994914619570
         C           -0.706474870123    -1.051064725532     0.220715351328    12.000000000000
         C            0.742052129877    -1.051055725532    -0.263791648672    12.000000000000
         C           -1.145955870123     0.358778274468    -0.160337648672    12.000000000000
         C            1.181519129877     0.358783274468     0.117285351328    12.000000000000
         H           -1.324673870123    -1.827590725532    -0.238384648672     1.007825032230
         H           -0.741365870123    -1.180445725532     1.307523351328     1.007825032230
         H            1.360255129877    -1.827584725532     0.195295351328     1.007825032230
         H            0.776944129877    -1.180417725532    -1.350602648672     1.007825032230
         H           -1.495943870123     0.394107274468    -1.201472648672     1.007825032230
         H           -1.935077870123     0.760829274468     0.482745351328     1.007825032230
         H            1.531470129877     0.394102274468     1.158432351328     1.007825032230
         H            1.970659129877     0.760845274468    -0.525766648672     1.007825032230

  Basis Set: AUG-CC-PVTZ
    Blend: AUG-CC-PVTZ
  Basis Set: (AUG-CC-PVTZ AUX)
    Blend: AUG-CC-PVTZ-JKFIT
	 Reference Energy          =    -231.0482258635585424 [Eh]
	 Singles Energy            =      -0.0000000000000000 [Eh]
	 Same-Spin Energy          =      -0.2334745926105330 [Eh]
	 Opposite-Spin Energy      =      -0.7992276568451887 [Eh]
	 Correlation Energy        =      -1.0327022494557216 [Eh]
	 Total Energy              =    -232.0809281130142665 [Eh]

	 ================> DF-SCS-MP2 Energies <==================
	-----------------------------------------------------------
	 SCS Same-Spin Scale       =       0.3333333333333333 [-]
	 SCS Opposite-Spin Scale   =       1.2000000000000000 [-]
	 SCS Same-Spin Energy      =      -0.0778248642035110 [Eh]
	 SCS Opposite-Spin Energy  =      -0.9590731882142264 [Eh]
	 SCS Correlation Energy    =      -1.0368980524177374 [Eh]
	 SCS Total Energy          =    -232.0851239159762827 [Eh]
	-----------------------------------------------------------

  Dipole Moment: [D]
     X:     0.2967      Y:    -2.1267      Z:    -0.1315     Total:     2.1513

*** Psi4 exiting successfully. Buy a developer a beer!
