                               Psi4 1.3.2 release

  ==> Input File <==

--------------------------------------------------------------------------
#psi4
#
memory 32 gb

molecule  {
0 1
  O       -0.0132043     1.2321870    -0.0072118
  C       -0.7242590    -0.9887060     0.2422500
  C        0.7242680    -0.9886970    -0.2422570
  C       -1.1637400     0.4211370    -0.1388030
  C        1.1637350     0.4211420     0.1388200
  H       -1.3424580    -1.7652320    -0.2168500
  H       -0.7591500    -1.1180870     1.3290580
  H        1.3424710    -1.7652260     0.2168300
  H        0.7591600    -1.1180590    -1.3290680
  H       -1.5137280     0.4564660    -1.1799380
  H       -1.9528620     0.8231880     0.5042800
  H        1.5136860     0.4564610     1.1799670
  H        1.9528750     0.8232040    -0.5042320
units angstrom
no_reorient  #important for SAPT in psi4, default
symmetry c1  #important for SAPT in psi4, default
}

set PROPERTIES_ORIGIN ["COM"]
properties('MP2/aug-cc-pvtz', properties = ['dipole'])
--------------------------------------------------------------------------

    Molecular point group: c1
  Charge       = 0
  Multiplicity = 1
  Basis Set: AUG-CC-PVTZ
    Blend: AUG-CC-PVTZ
  Basis Set: (AUG-CC-PVTZ AUX)
    Blend: AUG-CC-PVTZ-JKFIT

    Orbital Energies [Eh]
    ---------------------

    Doubly Occupied:

       1A    -20.543633     2A    -11.270900     3A    -11.267493
       4A    -11.225975     5A    -11.224967     6A     -1.368182
       7A     -1.060211     8A     -0.990998     9A     -0.808869
      10A     -0.807162    11A     -0.684098    12A     -0.673247
      13A     -0.592776    14A     -0.587641    15A     -0.560339
      16A     -0.503619    17A     -0.493627    18A     -0.476276
      19A     -0.461669    20A     -0.406693

  @DF-RHF Final Energy:  -231.06164848984068

   => Energetics <=

    Nuclear Repulsion Energy =            191.2874139294048916
    One-Electron Energy =                -692.6813742531071512
    Two-Electron Energy =                 270.3323118338615814
    Total Energy =                       -231.0616484898406497
  Basis Set: (AUG-CC-PVTZ AUX)
    Blend: AUG-CC-PVTZ-RI
    Molecular point group: c1

    Geometry (in Angstrom), charge = 0, multiplicity = 1:

       Center              X                  Y                   Z               Mass
    ------------   -----------------  -----------------  -----------------  -----------------
         O           -0.010273867297     1.192567874129    -0.005613288621    15.994914619570
         C           -0.721328567297    -1.028325125871     0.243848511379    12.000000000000
         C            0.727198432703    -1.028316125871    -0.240658488621    12.000000000000
         C           -1.160809567297     0.381517874129    -0.137204488621    12.000000000000
         C            1.166665432703     0.381522874129     0.140418511379    12.000000000000
         H           -1.339527567297    -1.804851125871    -0.215251488621     1.007825032230
         H           -0.756219567297    -1.157706125871     1.330656511379     1.007825032230
         H            1.345401432703    -1.804845125871     0.218428511379     1.007825032230
         H            0.762090432703    -1.157678125871    -1.327469488621     1.007825032230
         H           -1.510797567297     0.416846874129    -1.178339488621     1.007825032230
         H           -1.949931567297     0.783568874129     0.505878511379     1.007825032230
         H            1.516616432703     0.416841874129     1.181565511379     1.007825032230
         H            1.955805432703     0.783584874129    -0.502633488621     1.007825032230

  Basis Set: AUG-CC-PVTZ
    Blend: AUG-CC-PVTZ
  Basis Set: (AUG-CC-PVTZ AUX)
    Blend: AUG-CC-PVTZ-JKFIT
	 Reference Energy          =    -231.0616484898406782 [Eh]
	 Singles Energy            =      -0.0000000000000000 [Eh]
	 Same-Spin Energy          =      -0.2324763932910888 [Eh]
	 Opposite-Spin Energy      =      -0.7950402853173857 [Eh]
	 Correlation Energy        =      -1.0275166786084744 [Eh]
	 Total Energy              =    -232.0891651684491421 [Eh]

	 ================> DF-SCS-MP2 Energies <==================
	-----------------------------------------------------------
	 SCS Same-Spin Scale       =       0.3333333333333333 [-]
	 SCS Opposite-Spin Scale   =       1.2000000000000000 [-]
	 SCS Same-Spin Energy      =      -0.0774921310970296 [Eh]
	 SCS Opposite-Spin Energy  =      -0.9540483423808628 [Eh]
	 SCS Correlation Energy    =      -1.0315404734778924 [Eh]
	 SCS Total Energy          =    -232.0931889633185676 [Eh]
	-----------------------------------------------------------

  Dipole Moment: [D]
     X:     0.0690      Y:    -1.8172      Z:     0.0214     Total:     1.8186

*** Psi4 exiting successfully. Buy a developer a beer!
