                               Psi4 1.3.2 release

  ==> Input File <==

--------------------------------------------------------------------------
#psi4
#
memory 32 gb

molecule  {
0 1
  O       -0.0000020     1.2522540    -0.0000130
  C       -0.6994065    -1.0713699     0.3048204
  C        0.7242680    -0.9886970    -0.2422570
  C       -1.1637400     0.4211370    -0.1388030
  C        1.1637350     0.4211420     0.1388200
  H       -1.3424580    -1.7652320    -0.2168500
  H       -0.7591500    -1.1180870     1.3290580
  H        1.3424710    -1.7652260     0.2168300
  H        0.7591600    -1.1180590    -1.3290680
  H       -1.5137280     0.4564660    -1.1799380
  H       -1.9528620     0.8231880     0.5042800
  H        1.5136860     0.4564610     1.1799670
  H        1.9528750     0.8232040    -0.5042320
units angstrom
no_reorient  #important for SAPT in psi4, default
symmetry c1  #important for SAPT in psi4, default
}

set PROPERTIES_ORIGIN ["COM"]
properties('MP2/aug-cc-pvtz', properties = ['dipole'])
--------------------------------------------------------------------------

    Molecular point group: c1
  Charge       = 0
  Multiplicity = 1
  Basis Set: AUG-CC-PVTZ
    Blend: AUG-CC-PVTZ
  Basis Set: (AUG-CC-PVTZ AUX)
    Blend: AUG-CC-PVTZ-JKFIT

    Orbital Energies [Eh]
    ---------------------

    Doubly Occupied:

       1A    -20.544552     2A    -11.272849     3A    -11.270029
       4A    -11.226881     5A    -11.224682     6A     -1.358726
       7A     -1.057599     8A     -0.980422     9A     -0.817574
      10A     -0.804308    11A     -0.681421    12A     -0.664022
      13A     -0.598833    14A     -0.586006    15A     -0.562650
      16A     -0.503978    17A     -0.494072    18A     -0.482385
      19A     -0.445344    20A     -0.406956

  @DF-RHF Final Energy:  -231.05102527469117

   => Energetics <=

    Nuclear Repulsion Energy =            189.6616970488210256
    One-Electron Energy =                -689.4588636981036416
    Two-Electron Energy =                 268.7461413745914456
    Total Energy =                       -231.0510252746911988
  Basis Set: (AUG-CC-PVTZ AUX)
    Blend: AUG-CC-PVTZ-RI
    Molecular point group: c1

    Geometry (in Angstrom), charge = 0, multiplicity = 1:

       Center              X                  Y                   Z               Mass
    ------------   -----------------  -----------------  -----------------  -----------------
         O           -0.004140915472     1.221946836240    -0.010432513290    15.994914619570
         C           -0.703545415472    -1.101677063760     0.294400886710    12.000000000000
         C            0.720129084528    -1.019004163760    -0.252676513290    12.000000000000
         C           -1.167878915472     0.390829836240    -0.149222513290    12.000000000000
         C            1.159596084528     0.390834836240     0.128400486710    12.000000000000
         H           -1.346596915472    -1.795539163760    -0.227269513290     1.007825032230
         H           -0.763288915472    -1.148394163760     1.318638486710     1.007825032230
         H            1.338332084528    -1.795533163760     0.206410486710     1.007825032230
         H            0.755021084528    -1.148366163760    -1.339487513290     1.007825032230
         H           -1.517866915472     0.426158836240    -1.190357513290     1.007825032230
         H           -1.957000915472     0.792880836240     0.493860486710     1.007825032230
         H            1.509547084528     0.426153836240     1.169547486710     1.007825032230
         H            1.948736084528     0.792896836240    -0.514651513290     1.007825032230

  Basis Set: AUG-CC-PVTZ
    Blend: AUG-CC-PVTZ
  Basis Set: (AUG-CC-PVTZ AUX)
    Blend: AUG-CC-PVTZ-JKFIT
	 Reference Energy          =    -231.0510252746911704 [Eh]
	 Singles Energy            =      -0.0000000000000000 [Eh]
	 Same-Spin Energy          =      -0.2325271048881562 [Eh]
	 Opposite-Spin Energy      =      -0.7961235750560977 [Eh]
	 Correlation Energy        =      -1.0286506799442539 [Eh]
	 Total Energy              =    -232.0796759546354338 [Eh]

	 ================> DF-SCS-MP2 Energies <==================
	-----------------------------------------------------------
	 SCS Same-Spin Scale       =       0.3333333333333333 [-]
	 SCS Opposite-Spin Scale   =       1.2000000000000000 [-]
	 SCS Same-Spin Energy      =      -0.0775090349627187 [Eh]
	 SCS Opposite-Spin Energy  =      -0.9553482900673171 [Eh]
	 SCS Correlation Energy    =      -1.0328573250300359 [Eh]
	 SCS Total Energy          =    -232.0838825997211927 [Eh]
	-----------------------------------------------------------

  Dipole Moment: [D]
     X:     0.0032      Y:    -1.8396      Z:     0.0095     Total:     1.8397

*** Psi4 exiting successfully. Buy a developer a beer!
