                               Psi4 1.4a3.dev225

  ==> Input File <==

--------------------------------------------------------------------------
#psi4
#
memory 32 gb

molecule  {
0 1
  O        0.0000050    -1.2522320    -0.0000130
  C        0.7242410     0.9886740     0.2423340
  C       -0.7242550     0.9886620    -0.2423410
  C        1.1637670    -0.4210850    -0.1388640
  C       -1.1637580    -0.4210950     0.1388810
  H        1.3425610     1.7653610    -0.2163320
  H        0.7589520     1.1177070     1.3292070
  H       -1.3425830     1.7653500     0.2163130
  H       -0.7589690     1.1176750    -1.3292170
  H        1.5136340    -0.4563640    -1.1800500
  H        1.9890636    -0.8415770     0.5334252
  H       -1.5135900    -0.4563680     1.1800790
  H       -1.9530190    -0.8232310    -0.5040080
units angstrom
no_reorient  #important for SAPT in psi4, default
symmetry c1  #important for SAPT in psi4, default
}

set PROPERTIES_ORIGIN ["COM"]
properties('MP2/aug-cc-pvtz', properties = ['dipole'])
--------------------------------------------------------------------------

    Molecular point group: c1
  Charge       = 0
  Multiplicity = 1
  Basis Set: AUG-CC-PVTZ
    Blend: AUG-CC-PVTZ
  Basis Set: (AUG-CC-PVTZ AUX)
    Blend: AUG-CC-PVTZ-JKFIT

    Orbital Energies [Eh]
    ---------------------

    Doubly Occupied:

       1A    -20.545473     2A    -11.275790     3A    -11.270171
       4A    -11.227133     5A    -11.226508     6A     -1.361928
       7A     -1.061853     8A     -0.987108     9A     -0.808227
      10A     -0.804988    11A     -0.681697    12A     -0.670093
      13A     -0.589471    14A     -0.585246    15A     -0.557155
      16A     -0.503767    17A     -0.492647    18A     -0.476096
      19A     -0.463700    20A     -0.407367

  @DF-RHF Final Energy:  -231.05886332665801

   => Energetics <=

    Nuclear Repulsion Energy =            190.5399722657649022
    One-Electron Energy =                -691.2048354935263887
    Two-Electron Energy =                 269.6059999011034733
    Total Energy =                       -231.0588633266580132
  Basis Set: (AUG-CC-PVTZ AUX)
    Blend: AUG-CC-PVTZ-RI
    Molecular point group: c1

    Geometry (in Angstrom), charge = 0, multiplicity = 1:

       Center              X                  Y                   Z               Mass
    ------------   -----------------  -----------------  -----------------  -----------------
         O           -0.000499481232    -1.207906735670    -0.000423220318    15.994914619570
         C            0.723736518768     1.032999264330     0.241923779682    12.000000000000
         C           -0.724759481232     1.032987264330    -0.242751220318    12.000000000000
         C            1.163262518768    -0.376759735670    -0.139274220318    12.000000000000
         C           -1.164262481232    -0.376769735670     0.138470779682    12.000000000000
         H            1.342056518768     1.809686264330    -0.216742220318     1.007825032230
         H            0.758447518768     1.162032264330     1.328796779682     1.007825032230
         H           -1.343087481232     1.809675264330     0.215902779682     1.007825032230
         H           -0.759473481232     1.162000264330    -1.329627220318     1.007825032230
         H            1.513129518768    -0.412038735670    -1.180460220318     1.007825032230
         H            1.988559118768    -0.797251735670     0.533014979682     1.007825032230
         H           -1.514094481232    -0.412042735670     1.179668779682     1.007825032230
         H           -1.953523481232    -0.778905735670    -0.504418220318     1.007825032230

  Basis Set: AUG-CC-PVTZ
    Blend: AUG-CC-PVTZ
  Basis Set: (AUG-CC-PVTZ AUX)
    Blend: AUG-CC-PVTZ-JKFIT
	 Reference Energy          =    -231.0588633266580132 [Eh]
	 Singles Energy            =      -0.0000000000000000 [Eh]
	 Same-Spin Energy          =      -0.2326188458701426 [Eh]
	 Opposite-Spin Energy      =      -0.7960245248259670 [Eh]
	 Correlation Energy        =      -1.0286433706961096 [Eh]
	 Total Energy              =    -232.0875066973541152 [Eh]

	 ================> DF-SCS-MP2 Energies <==================
	-----------------------------------------------------------
	 SCS Same-Spin Scale       =       0.3333333333333333 [-]
	 SCS Opposite-Spin Scale   =       1.2000000000000000 [-]
	 SCS Same-Spin Energy      =      -0.0775396152900475 [Eh]
	 SCS Opposite-Spin Energy  =      -0.9552294297911603 [Eh]
	 SCS Correlation Energy    =      -1.0327690450812079 [Eh]
	 SCS Total Energy          =    -232.0916323717392231 [Eh]
	-----------------------------------------------------------

  Dipole Moment: [D]
     X:    -0.0411      Y:     1.8931      Z:    -0.0133     Total:     1.8936

*** Psi4 exiting successfully. Buy a developer a beer!
