                               Psi4 1.3.2 release

  ==> Input File <==

--------------------------------------------------------------------------
#psi4
#
memory 32 gb

molecule  {
0 1
  O       -0.0737618     1.1282714    -0.0424954
  C       -0.7242590    -0.9887060     0.2422500
  C        0.7242680    -0.9886970    -0.2422570
  C       -1.1637400     0.4211370    -0.1388030
  C        1.1637350     0.4211420     0.1388200
  H       -1.3424580    -1.7652320    -0.2168500
  H       -0.7591500    -1.1180870     1.3290580
  H        1.3424710    -1.7652260     0.2168300
  H        0.7591600    -1.1180590    -1.3290680
  H       -1.5137280     0.4564660    -1.1799380
  H       -1.9528620     0.8231880     0.5042800
  H        1.5136860     0.4564610     1.1799670
  H        1.9528750     0.8232040    -0.5042320
units angstrom
no_reorient  #important for SAPT in psi4, default
symmetry c1  #important for SAPT in psi4, default
}

set PROPERTIES_ORIGIN ["COM"]
properties('MP2/aug-cc-pvtz', properties = ['dipole'])
--------------------------------------------------------------------------

    Molecular point group: c1
  Charge       = 0
  Multiplicity = 1
  Basis Set: AUG-CC-PVTZ
    Blend: AUG-CC-PVTZ
  Basis Set: (AUG-CC-PVTZ AUX)
    Blend: AUG-CC-PVTZ-JKFIT

    Orbital Energies [Eh]
    ---------------------

    Doubly Occupied:

       1A    -20.538125     2A    -11.278311     3A    -11.257327
       4A    -11.223888     5A    -11.218483     6A     -1.408094
       7A     -1.056265     8A     -1.001469     9A     -0.814864
      10A     -0.800811    11A     -0.695740    12A     -0.684487
      13A     -0.614744    14A     -0.588190    15A     -0.571252
      16A     -0.505746    17A     -0.492701    18A     -0.475612
      19A     -0.443733    20A     -0.397900

  @DF-RHF Final Energy:  -231.04880890764520

   => Energetics <=

    Nuclear Repulsion Energy =            194.0342770245551947
    One-Electron Energy =                -698.0306893995549444
    Two-Electron Energy =                 272.9476034673545541
    Total Energy =                       -231.0488089076451956
  Basis Set: (AUG-CC-PVTZ AUX)
    Blend: AUG-CC-PVTZ-RI
    Molecular point group: c1

    Geometry (in Angstrom), charge = 0, multiplicity = 1:

       Center              X                  Y                   Z               Mass
    ------------   -----------------  -----------------  -----------------  -----------------
         O           -0.057389160142     1.111718864095    -0.033064837093    15.994914619570
         C           -0.707886360142    -1.005258535905     0.251680562907    12.000000000000
         C            0.740640639858    -1.005249535905    -0.232826437093    12.000000000000
         C           -1.147367360142     0.404584464095    -0.129372437093    12.000000000000
         C            1.180107639858     0.404589464095     0.148250562907    12.000000000000
         H           -1.326085360142    -1.781784535905    -0.207419437093     1.007825032230
         H           -0.742777360142    -1.134639535905     1.338488562907     1.007825032230
         H            1.358843639858    -1.781778535905     0.226260562907     1.007825032230
         H            0.775532639858    -1.134611535905    -1.319637437093     1.007825032230
         H           -1.497355360142     0.439913464095    -1.170507437093     1.007825032230
         H           -1.936489360142     0.806635464095     0.513710562907     1.007825032230
         H            1.530058639858     0.439908464095     1.189397562907     1.007825032230
         H            1.969247639858     0.806651464095    -0.494801437093     1.007825032230

  Basis Set: AUG-CC-PVTZ
    Blend: AUG-CC-PVTZ
  Basis Set: (AUG-CC-PVTZ AUX)
    Blend: AUG-CC-PVTZ-JKFIT
	 Reference Energy          =    -231.0488089076451956 [Eh]
	 Singles Energy            =      -0.0000000000000000 [Eh]
	 Same-Spin Energy          =      -0.2324441087113078 [Eh]
	 Opposite-Spin Energy      =      -0.7929343929354522 [Eh]
	 Correlation Energy        =      -1.0253785016467600 [Eh]
	 Total Energy              =    -232.0741874092919659 [Eh]

	 ================> DF-SCS-MP2 Energies <==================
	-----------------------------------------------------------
	 SCS Same-Spin Scale       =       0.3333333333333333 [-]
	 SCS Opposite-Spin Scale   =       1.2000000000000000 [-]
	 SCS Same-Spin Energy      =      -0.0774813695704359 [Eh]
	 SCS Opposite-Spin Energy  =      -0.9515212715225426 [Eh]
	 SCS Correlation Energy    =      -1.0290026410929785 [Eh]
	 SCS Total Energy          =    -232.0778115487381683 [Eh]
	-----------------------------------------------------------

  Dipole Moment: [D]
     X:     0.4555      Y:    -1.4715      Z:     0.1326     Total:     1.5461

*** Psi4 exiting successfully. Buy a developer a beer!
