                               Psi4 1.4a3.dev225

  ==> Input File <==

--------------------------------------------------------------------------
#psi4
#
memory 32 gb

molecule  {
0 1
  O        0.0000050    -1.2522320    -0.0000130
  C        0.7242410     0.9886740     0.2423340
  C       -0.7242550     0.9886620    -0.2423410
  C        1.1799662    -0.4095157    -0.1407968
  C       -1.1637580    -0.4210950     0.1388810
  H        1.3425610     1.7653610    -0.2163320
  H        0.7589520     1.1177070     1.3292070
  H       -1.3425830     1.7653500     0.2163130
  H       -0.7589690     1.1176750    -1.3292170
  H        1.5136340    -0.4563640    -1.1800500
  H        1.9530090    -0.8232070     0.5040550
  H       -1.5135900    -0.4563680     1.1800790
  H       -1.9530190    -0.8232310    -0.5040080
units angstrom
no_reorient  #important for SAPT in psi4, default
symmetry c1  #important for SAPT in psi4, default
}

set PROPERTIES_ORIGIN ["COM"]
properties('MP2/aug-cc-pvtz', properties = ['dipole'])
--------------------------------------------------------------------------

    Molecular point group: c1
  Charge       = 0
  Multiplicity = 1
  Basis Set: AUG-CC-PVTZ
    Blend: AUG-CC-PVTZ
  Basis Set: (AUG-CC-PVTZ AUX)
    Blend: AUG-CC-PVTZ-JKFIT

    Orbital Energies [Eh]
    ---------------------

    Doubly Occupied:

       1A    -20.542815     2A    -11.269729     3A    -11.268521
       4A    -11.226875     5A    -11.226132     6A     -1.354613
       7A     -1.061522     8A     -0.989009     9A     -0.810104
      10A     -0.806571    11A     -0.681431    12A     -0.669491
      13A     -0.589741    14A     -0.586601    15A     -0.554419
      16A     -0.501792    17A     -0.495132    18A     -0.477228
      19A     -0.464390    20A     -0.408385

  @DF-RHF Final Energy:  -231.06042540114979

   => Energetics <=

    Nuclear Repulsion Energy =            190.5266457319413860
    One-Electron Energy =                -691.2051399984469526
    Two-Electron Energy =                 269.6180688653557809
    Total Energy =                       -231.0604254011498142
  Basis Set: (AUG-CC-PVTZ AUX)
    Blend: AUG-CC-PVTZ-RI
    Molecular point group: c1

    Geometry (in Angstrom), charge = 0, multiplicity = 1:

       Center              X                  Y                   Z               Mass
    ------------   -----------------  -----------------  -----------------  -----------------
         O           -0.002692918958    -1.210090343391     0.000309439181    15.994914619570
         C            0.721543081042     1.030815656609     0.242656439181    12.000000000000
         C           -0.726952918958     1.030803656609    -0.242018560819    12.000000000000
         C            1.177268281042    -0.367374043391    -0.140474360819    12.000000000000
         C           -1.166455918958    -0.378953343391     0.139203439181    12.000000000000
         H            1.339863081042     1.807502656609    -0.216009560819     1.007825032230
         H            0.756254081042     1.159848656609     1.329529439181     1.007825032230
         H           -1.345280918958     1.807491656609     0.216635439181     1.007825032230
         H           -0.761666918958     1.159816656609    -1.328894560819     1.007825032230
         H            1.510936081042    -0.414222343391    -1.179727560819     1.007825032230
         H            1.950311081042    -0.781065343391     0.504377439181     1.007825032230
         H           -1.516287918958    -0.414226343391     1.180401439181     1.007825032230
         H           -1.955716918958    -0.781089343391    -0.503685560819     1.007825032230

  Basis Set: AUG-CC-PVTZ
    Blend: AUG-CC-PVTZ
  Basis Set: (AUG-CC-PVTZ AUX)
    Blend: AUG-CC-PVTZ-JKFIT
	 Reference Energy          =    -231.0604254011497858 [Eh]
	 Singles Energy            =      -0.0000000000000000 [Eh]
	 Same-Spin Energy          =      -0.2326438436111985 [Eh]
	 Opposite-Spin Energy      =      -0.7959708837158108 [Eh]
	 Correlation Energy        =      -1.0286147273270094 [Eh]
	 Total Energy              =    -232.0890401284767961 [Eh]

	 ================> DF-SCS-MP2 Energies <==================
	-----------------------------------------------------------
	 SCS Same-Spin Scale       =       0.3333333333333333 [-]
	 SCS Opposite-Spin Scale   =       1.2000000000000000 [-]
	 SCS Same-Spin Energy      =      -0.0775479478703995 [Eh]
	 SCS Opposite-Spin Energy  =      -0.9551650604589730 [Eh]
	 SCS Correlation Energy    =      -1.0327130083293725 [Eh]
	 SCS Total Energy          =    -232.0931384094791667 [Eh]
	-----------------------------------------------------------

  Dipole Moment: [D]
     X:     0.0602      Y:     1.9086      Z:    -0.0118     Total:     1.9096

*** Psi4 exiting successfully. Buy a developer a beer!
