                               Psi4 1.3.2 release

  ==> Input File <==

--------------------------------------------------------------------------
#psi4
#
memory 32 gb

molecule  {
0 1
  O       -0.0000020     1.2522540    -0.0000130
  C       -0.7242590    -0.9887060     0.2422500
  C        0.7242680    -0.9886970    -0.2422570
  C       -1.1637400     0.4211370    -0.1388030
  C        1.1637350     0.4211420     0.1388200
  H       -1.3424580    -1.7652320    -0.2168500
  H       -0.7591500    -1.1180870     1.3290580
  H        1.3424710    -1.7652260     0.2168300
  H        0.7591600    -1.1180590    -1.3290680
  H       -1.5137280     0.4564660    -1.1799380
  H       -1.9528620     0.8231880     0.5042800
  H        1.5136860     0.4564610     1.1799670
  H        1.9528750     0.8232040    -0.5042320
units angstrom
no_reorient  #important for SAPT in psi4, default
symmetry c1  #important for SAPT in psi4, default
}

set PROPERTIES_ORIGIN ["COM"]
properties('MP2/aug-cc-pvtz', properties = ['dipole'])
--------------------------------------------------------------------------

    Molecular point group: c1
  Charge       = 0
  Multiplicity = 1
  Basis Set: AUG-CC-PVTZ
    Blend: AUG-CC-PVTZ
  Basis Set: (AUG-CC-PVTZ AUX)
    Blend: AUG-CC-PVTZ-JKFIT

    Orbital Energies [Eh]
    ---------------------

    Doubly Occupied:

       1A    -20.544584     2A    -11.269666     3A    -11.269645
       4A    -11.226626     5A    -11.226008     6A     -1.361349
       7A     -1.061429     8A     -0.988949     9A     -0.808721
      10A     -0.807563    11A     -0.682333    12A     -0.671349
      13A     -0.589476    14A     -0.587941    15A     -0.557318
      16A     -0.503356    17A     -0.493564    18A     -0.476644
      19A     -0.464182    20A     -0.407890

  @DF-RHF Final Energy:  -231.06111192699950

   => Energetics <=

    Nuclear Repulsion Energy =            190.7717104502702057
    One-Electron Energy =                -691.6684572116948857
    Two-Electron Energy =                 269.8356348344251501
    Total Energy =                       -231.0611119269995015
  Basis Set: (AUG-CC-PVTZ AUX)
    Blend: AUG-CC-PVTZ-RI
    Molecular point group: c1

    Geometry (in Angstrom), charge = 0, multiplicity = 1:

       Center              X                  Y                   Z               Mass
    ------------   -----------------  -----------------  -----------------  -----------------
         O           -0.000002138268     1.208180516354    -0.000012437031    15.994914619570
         C           -0.724259138268    -1.032779483646     0.242250562969    12.000000000000
         C            0.724267861732    -1.032770483646    -0.242256437031    12.000000000000
         C           -1.163740138268     0.377063516354    -0.138802437031    12.000000000000
         C            1.163734861732     0.377068516354     0.138820562969    12.000000000000
         H           -1.342458138268    -1.809305483646    -0.216849437031     1.007825032230
         H           -0.759150138268    -1.162160483646     1.329058562969     1.007825032230
         H            1.342470861732    -1.809299483646     0.216830562969     1.007825032230
         H            0.759159861732    -1.162132483646    -1.329067437031     1.007825032230
         H           -1.513728138268     0.412392516354    -1.179937437031     1.007825032230
         H           -1.952862138268     0.779114516354     0.504280562969     1.007825032230
         H            1.513685861732     0.412387516354     1.179967562969     1.007825032230
         H            1.952874861732     0.779130516354    -0.504231437031     1.007825032230

  Basis Set: AUG-CC-PVTZ
    Blend: AUG-CC-PVTZ
  Basis Set: (AUG-CC-PVTZ AUX)
    Blend: AUG-CC-PVTZ-JKFIT
	 Reference Energy          =    -231.0611119269995015 [Eh]
	 Singles Energy            =      -0.0000000000000000 [Eh]
	 Same-Spin Energy          =      -0.2325753110419531 [Eh]
	 Opposite-Spin Energy      =      -0.7956433737875459 [Eh]
	 Correlation Energy        =      -1.0282186848294990 [Eh]
	 Total Energy              =    -232.0893306118290127 [Eh]

	 ================> DF-SCS-MP2 Energies <==================
	-----------------------------------------------------------
	 SCS Same-Spin Scale       =       0.3333333333333333 [-]
	 SCS Opposite-Spin Scale   =       1.2000000000000000 [-]
	 SCS Same-Spin Energy      =      -0.0775251036806510 [Eh]
	 SCS Opposite-Spin Energy  =      -0.9547720485450550 [Eh]
	 SCS Correlation Energy    =      -1.0322971522257061 [Eh]
	 SCS Total Energy          =    -232.0934090792252107 [Eh]
	-----------------------------------------------------------

  Dipole Moment: [D]
     X:     0.0000      Y:    -1.8808      Z:     0.0000     Total:     1.8808

*** Psi4 exiting successfully. Buy a developer a beer!
