                               Psi4 1.3.2 release

  ==> Input File <==

--------------------------------------------------------------------------
#psi4
#
memory 32 gb

molecule  {
0 1
  O       -0.0253321     1.2807710     0.0325478
  C       -0.7242590    -0.9887060     0.2422500
  C        0.7242680    -0.9886970    -0.2422570
  C       -1.1637400     0.4211370    -0.1388030
  C        1.1637350     0.4211420     0.1388200
  H       -1.3424580    -1.7652320    -0.2168500
  H       -0.7591500    -1.1180870     1.3290580
  H        1.3424710    -1.7652260     0.2168300
  H        0.7591600    -1.1180590    -1.3290680
  H       -1.5137280     0.4564660    -1.1799380
  H       -1.9528620     0.8231880     0.5042800
  H        1.5136860     0.4564610     1.1799670
  H        1.9528750     0.8232040    -0.5042320
units angstrom
no_reorient  #important for SAPT in psi4, default
symmetry c1  #important for SAPT in psi4, default
}

set PROPERTIES_ORIGIN ["COM"]
properties('MP2/aug-cc-pvtz', properties = ['dipole'])
--------------------------------------------------------------------------

    Molecular point group: c1
  Charge       = 0
  Multiplicity = 1
  Basis Set: AUG-CC-PVTZ
    Blend: AUG-CC-PVTZ
  Basis Set: (AUG-CC-PVTZ AUX)
    Blend: AUG-CC-PVTZ-JKFIT

    Orbital Energies [Eh]
    ---------------------

    Doubly Occupied:

       1A    -20.545940     2A    -11.272654     3A    -11.268177
       4A    -11.228340     5A    -11.226712     6A     -1.351982
       7A     -1.063333     8A     -0.986062     9A     -0.810743
      10A     -0.805999    11A     -0.680002    12A     -0.668775
      13A     -0.588774    14A     -0.585406    15A     -0.552197
      16A     -0.503216    17A     -0.493262    18A     -0.477273
      19A     -0.466961    20A     -0.409436

  @DF-RHF Final Energy:  -231.05868727012867

   => Energetics <=

    Nuclear Repulsion Energy =            190.0352000317226384
    One-Electron Energy =                -690.2172845461171846
    Two-Electron Energy =                 269.1233972442658455
    Total Energy =                       -231.0586872701287007
  Basis Set: (AUG-CC-PVTZ AUX)
    Blend: AUG-CC-PVTZ-RI
    Molecular point group: c1

    Geometry (in Angstrom), charge = 0, multiplicity = 1:

       Center              X                  Y                   Z               Mass
    ------------   -----------------  -----------------  -----------------  -----------------
         O           -0.019709607686     1.230367475955     0.025320702997    15.994914619570
         C           -0.718636507686    -1.039109524045     0.235022902997    12.000000000000
         C            0.729890492314    -1.039100524045    -0.249484097003    12.000000000000
         C           -1.158117507686     0.370733475955    -0.146030097003    12.000000000000
         C            1.169357492314     0.370738475955     0.131592902997    12.000000000000
         H           -1.336835507686    -1.815635524045    -0.224077097003     1.007825032230
         H           -0.753527507686    -1.168490524045     1.321830902997     1.007825032230
         H            1.348093492314    -1.815629524045     0.209602902997     1.007825032230
         H            0.764782492314    -1.168462524045    -1.336295097003     1.007825032230
         H           -1.508105507686     0.406062475955    -1.187165097003     1.007825032230
         H           -1.947239507686     0.772784475955     0.497052902997     1.007825032230
         H            1.519308492314     0.406057475955     1.172739902997     1.007825032230
         H            1.958497492314     0.772800475955    -0.511459097003     1.007825032230

  Basis Set: AUG-CC-PVTZ
    Blend: AUG-CC-PVTZ
  Basis Set: (AUG-CC-PVTZ AUX)
    Blend: AUG-CC-PVTZ-JKFIT
	 Reference Energy          =    -231.0586872701286723 [Eh]
	 Singles Energy            =      -0.0000000000000000 [Eh]
	 Same-Spin Energy          =      -0.2327857931492294 [Eh]
	 Opposite-Spin Energy      =      -0.7966555201149201 [Eh]
	 Correlation Energy        =      -1.0294413132641496 [Eh]
	 Total Energy              =    -232.0881285833928303 [Eh]

	 ================> DF-SCS-MP2 Energies <==================
	-----------------------------------------------------------
	 SCS Same-Spin Scale       =       0.3333333333333333 [-]
	 SCS Opposite-Spin Scale   =       1.2000000000000000 [-]
	 SCS Same-Spin Energy      =      -0.0775952643830765 [Eh]
	 SCS Opposite-Spin Energy  =      -0.9559866241379041 [Eh]
	 SCS Correlation Energy    =      -1.0335818885209807 [Eh]
	 SCS Total Energy          =    -232.0922691586496569 [Eh]
	-----------------------------------------------------------

  Dipole Moment: [D]
     X:     0.1015      Y:    -1.9689      Z:    -0.0422     Total:     1.9719

*** Psi4 exiting successfully. Buy a developer a beer!
