                               Psi4 1.3.2 release

  ==> Input File <==

--------------------------------------------------------------------------
#psi4
#
memory 32 gb

molecule  {
0 1
  O       -0.0000020     1.2522540    -0.0000130
  C       -0.7242590    -0.9887060     0.2422500
  C        0.7242680    -0.9886970    -0.2422570
  C       -1.1637400     0.4211370    -0.1388030
  C        1.2408647     0.3771994     0.1975744
  H       -1.3424580    -1.7652320    -0.2168500
  H       -0.7591500    -1.1180870     1.3290580
  H        1.3424710    -1.7652260     0.2168300
  H        0.7591600    -1.1180590    -1.3290680
  H       -1.5137280     0.4564660    -1.1799380
  H       -1.9528620     0.8231880     0.5042800
  H        1.5136860     0.4564610     1.1799670
  H        1.9528750     0.8232040    -0.5042320
units angstrom
no_reorient  #important for SAPT in psi4, default
symmetry c1  #important for SAPT in psi4, default
}

set PROPERTIES_ORIGIN ["COM"]
properties('MP2/aug-cc-pvtz', properties = ['dipole'])
--------------------------------------------------------------------------

    Molecular point group: c1
  Charge       = 0
  Multiplicity = 1
  Basis Set: AUG-CC-PVTZ
    Blend: AUG-CC-PVTZ
  Basis Set: (AUG-CC-PVTZ AUX)
    Blend: AUG-CC-PVTZ-JKFIT

    Orbital Energies [Eh]
    ---------------------

    Doubly Occupied:

       1A    -20.536021     2A    -11.270899     3A    -11.264318
       4A    -11.229460     5A    -11.225751     6A     -1.331971
       7A     -1.059910     8A     -0.988452     9A     -0.819415
      10A     -0.801529    11A     -0.680000    12A     -0.660426
      13A     -0.601428    14A     -0.579807    15A     -0.544795
      16A     -0.500341    17A     -0.492179    18A     -0.481281
      19A     -0.456193    20A     -0.409796

  @DF-RHF Final Energy:  -231.04931200837237

   => Energetics <=

    Nuclear Repulsion Energy =            189.4430641891766243
    One-Electron Energy =                -689.1168044997469906
    Two-Electron Energy =                 268.6244283021979413
    Total Energy =                       -231.0493120083723966
  Basis Set: (AUG-CC-PVTZ AUX)
    Blend: AUG-CC-PVTZ-RI
    Molecular point group: c1

    Geometry (in Angstrom), charge = 0, multiplicity = 1:

       Center              X                  Y                   Z               Mass
    ------------   -----------------  -----------------  -----------------  -----------------
         O           -0.012846827702     1.215498437336    -0.009797020932    15.994914619570
         C           -0.737103827702    -1.025461562664     0.232465979068    12.000000000000
         C            0.711423172298    -1.025452562664    -0.252041020932    12.000000000000
         C           -1.176584827702     0.384381437336    -0.148587020932    12.000000000000
         C            1.228019872298     0.340443837336     0.187790379068    12.000000000000
         H           -1.355302827702    -1.801987562664    -0.226634020932     1.007825032230
         H           -0.771994827702    -1.154842562664     1.319273979068     1.007825032230
         H            1.329626172298    -1.801981562664     0.207045979068     1.007825032230
         H            0.746315172298    -1.154814562664    -1.338852020932     1.007825032230
         H           -1.526572827702     0.419710437336    -1.189722020932     1.007825032230
         H           -1.965706827702     0.786432437336     0.494495979068     1.007825032230
         H            1.500841172298     0.419705437336     1.170182979068     1.007825032230
         H            1.940030172298     0.786448437336    -0.514016020932     1.007825032230

  Basis Set: AUG-CC-PVTZ
    Blend: AUG-CC-PVTZ
  Basis Set: (AUG-CC-PVTZ AUX)
    Blend: AUG-CC-PVTZ-JKFIT
	 Reference Energy          =    -231.0493120083723682 [Eh]
	 Singles Energy            =      -0.0000000000000000 [Eh]
	 Same-Spin Energy          =      -0.2330135480470180 [Eh]
	 Opposite-Spin Energy      =      -0.7975410649495882 [Eh]
	 Correlation Energy        =      -1.0305546129966063 [Eh]
	 Total Energy              =    -232.0798666213689785 [Eh]

	 ================> DF-SCS-MP2 Energies <==================
	-----------------------------------------------------------
	 SCS Same-Spin Scale       =       0.3333333333333333 [-]
	 SCS Opposite-Spin Scale   =       1.2000000000000000 [-]
	 SCS Same-Spin Energy      =      -0.0776711826823393 [Eh]
	 SCS Opposite-Spin Energy  =      -0.9570492779395058 [Eh]
	 SCS Correlation Energy    =      -1.0347204606218452 [Eh]
	 SCS Total Energy          =    -232.0840324689942236 [Eh]
	-----------------------------------------------------------

  Dipole Moment: [D]
     X:     0.2670      Y:    -1.9978      Z:     0.1097     Total:     2.0185

*** Psi4 exiting successfully. Buy a developer a beer!
