                               Psi4 1.3.2 release

  ==> Input File <==

--------------------------------------------------------------------------
#psi4
#
memory 32 gb

molecule  {
0 1
  O        0.0274620     1.2916224     0.0145093
  C       -0.7242590    -0.9887060     0.2422500
  C        0.7242680    -0.9886970    -0.2422570
  C       -1.1637400     0.4211370    -0.1388030
  C        1.1637350     0.4211420     0.1388200
  H       -1.3424580    -1.7652320    -0.2168500
  H       -0.7591500    -1.1180870     1.3290580
  H        1.3424710    -1.7652260     0.2168300
  H        0.7591600    -1.1180590    -1.3290680
  H       -1.5137280     0.4564660    -1.1799380
  H       -1.9528620     0.8231880     0.5042800
  H        1.5136860     0.4564610     1.1799670
  H        1.9528750     0.8232040    -0.5042320
units angstrom
no_reorient  #important for SAPT in psi4, default
symmetry c1  #important for SAPT in psi4, default
}

set PROPERTIES_ORIGIN ["COM"]
properties('MP2/aug-cc-pvtz', properties = ['dipole'])
--------------------------------------------------------------------------

    Molecular point group: c1
  Charge       = 0
  Multiplicity = 1
  Basis Set: AUG-CC-PVTZ
    Blend: AUG-CC-PVTZ
  Basis Set: (AUG-CC-PVTZ AUX)
    Blend: AUG-CC-PVTZ-JKFIT

    Orbital Energies [Eh]
    ---------------------

    Doubly Occupied:

       1A    -20.546274     2A    -11.274056     3A    -11.267377
       4A    -11.228807     5A    -11.227185     6A     -1.348773
       7A     -1.064082     8A     -0.985081     9A     -0.811634
      10A     -0.805278    11A     -0.679294    12A     -0.667891
      13A     -0.589185    14A     -0.583596    15A     -0.550947
      16A     -0.503120    17A     -0.493204    18A     -0.477610
      19A     -0.467791    20A     -0.409690

  @DF-RHF Final Energy:  -231.05758864973350

   => Energetics <=

    Nuclear Repulsion Energy =            189.7741063692106991
    One-Electron Energy =                -689.7016427837411356
    Two-Electron Energy =                 268.8699477647969047
    Total Energy =                       -231.0575886497335318
  Basis Set: (AUG-CC-PVTZ AUX)
    Blend: AUG-CC-PVTZ-RI
    Molecular point group: c1

    Geometry (in Angstrom), charge = 0, multiplicity = 1:

       Center              X                  Y                   Z               Mass
    ------------   -----------------  -----------------  -----------------  -----------------
         O            0.021365560245     1.238810144308     0.011286285955    15.994914619570
         C           -0.730355439755    -1.041518255692     0.239026985955    12.000000000000
         C            0.718171560245    -1.041509255692    -0.245480014045    12.000000000000
         C           -1.169836439755     0.368324744308    -0.142026014045    12.000000000000
         C            1.157638560245     0.368329744308     0.135596985955    12.000000000000
         H           -1.348554439755    -1.818044255692    -0.220073014045     1.007825032230
         H           -0.765246439755    -1.170899255692     1.325834985955     1.007825032230
         H            1.336374560245    -1.818038255692     0.213606985955     1.007825032230
         H            0.753063560245    -1.170871255692    -1.332291014045     1.007825032230
         H           -1.519824439755     0.403653744308    -1.183161014045     1.007825032230
         H           -1.958958439755     0.770375744308     0.501056985955     1.007825032230
         H            1.507589560245     0.403648744308     1.176743985955     1.007825032230
         H            1.946778560245     0.770391744308    -0.507455014045     1.007825032230

  Basis Set: AUG-CC-PVTZ
    Blend: AUG-CC-PVTZ
  Basis Set: (AUG-CC-PVTZ AUX)
    Blend: AUG-CC-PVTZ-JKFIT
	 Reference Energy          =    -231.0575886497335034 [Eh]
	 Singles Energy            =      -0.0000000000000000 [Eh]
	 Same-Spin Energy          =      -0.2328546009264216 [Eh]
	 Opposite-Spin Energy      =      -0.7970123636290214 [Eh]
	 Correlation Energy        =      -1.0298669645554430 [Eh]
	 Total Energy              =    -232.0874556142889560 [Eh]

	 ================> DF-SCS-MP2 Energies <==================
	-----------------------------------------------------------
	 SCS Same-Spin Scale       =       0.3333333333333333 [-]
	 SCS Opposite-Spin Scale   =       1.2000000000000000 [-]
	 SCS Same-Spin Energy      =      -0.0776182003088072 [Eh]
	 SCS Opposite-Spin Energy  =      -0.9564148363548256 [Eh]
	 SCS Correlation Energy    =      -1.0340330366636328 [Eh]
	 SCS Total Energy          =    -232.0916216863971329 [Eh]
	-----------------------------------------------------------

  Dipole Moment: [D]
     X:    -0.1308      Y:    -2.0028      Z:    -0.0414     Total:     2.0075

*** Psi4 exiting successfully. Buy a developer a beer!
