                               Psi4 1.4a3.dev225

  ==> Input File <==

--------------------------------------------------------------------------
#psi4
#
memory 32 gb

molecule  {
0 1
  O        0.0000050    -1.2522320    -0.0000130
  C        0.7242410     0.9886740     0.2423340
  C       -0.7242550     0.9886620    -0.2423410
  C        1.1637670    -0.4210850    -0.1388640
  C       -1.1637580    -0.4210950     0.1388810
  H        1.3425610     1.7653610    -0.2163320
  H        0.7589520     1.1177070     1.3292070
  H       -1.3425830     1.7653500     0.2163130
  H       -0.7589690     1.1176750    -1.3292170
  H        1.5136340    -0.4563640    -1.1800500
  H        1.9385872    -0.8158590     0.4923069
  H       -1.5135900    -0.4563680     1.1800790
  H       -1.9530190    -0.8232310    -0.5040080
units angstrom
no_reorient  #important for SAPT in psi4, default
symmetry c1  #important for SAPT in psi4, default
}

set PROPERTIES_ORIGIN ["COM"]
properties('MP2/aug-cc-pvtz', properties = ['dipole'])
--------------------------------------------------------------------------

    Molecular point group: c1
  Charge       = 0
  Multiplicity = 1
  Basis Set: AUG-CC-PVTZ
    Blend: AUG-CC-PVTZ
  Basis Set: (AUG-CC-PVTZ AUX)
    Blend: AUG-CC-PVTZ-JKFIT

    Orbital Energies [Eh]
    ---------------------

    Doubly Occupied:

       1A    -20.544262     2A    -11.269478     3A    -11.267170
       4A    -11.226457     5A    -11.225838     6A     -1.361123
       7A     -1.061288     8A     -0.989837     9A     -0.810235
      10A     -0.807511    11A     -0.682732    12A     -0.671811
      13A     -0.590264    14A     -0.588268    15A     -0.557338
      16A     -0.503239    17A     -0.494013    18A     -0.476839
      19A     -0.464302    20A     -0.408071

  @DF-RHF Final Energy:  -231.06120048056789

   => Energetics <=

    Nuclear Repulsion Energy =            190.8677194862725628
    One-Electron Energy =                -691.8576907721883344
    Two-Electron Energy =                 269.9287708053478809
    Total Energy =                       -231.0612004805678907
  Basis Set: (AUG-CC-PVTZ AUX)
    Blend: AUG-CC-PVTZ-RI
    Molecular point group: c1

    Geometry (in Angstrom), charge = 0, multiplicity = 1:

       Center              X                  Y                   Z               Mass
    ------------   -----------------  -----------------  -----------------  -----------------
         O            0.000206501754    -1.208266437836     0.000151876563    15.994914619570
         C            0.724442501754     1.032639562164     0.242498876563    12.000000000000
         C           -0.724053498246     1.032627562164    -0.242176123437    12.000000000000
         C            1.163968501754    -0.377119437836    -0.138699123437    12.000000000000
         C           -1.163556498246    -0.377129437836     0.139045876563    12.000000000000
         H            1.342762501754     1.809326562164    -0.216167123437     1.007825032230
         H            0.759153501754     1.161672562164     1.329371876563     1.007825032230
         H           -1.342381498246     1.809315562164     0.216477876563     1.007825032230
         H           -0.758767498246     1.161640562164    -1.329052123437     1.007825032230
         H            1.513835501754    -0.412398437836    -1.179885123437     1.007825032230
         H            1.938788701754    -0.771893437836     0.492471776563     1.007825032230
         H           -1.513388498246    -0.412402437836     1.180243876563     1.007825032230
         H           -1.952817498246    -0.779265437836    -0.503843123437     1.007825032230

  Basis Set: AUG-CC-PVTZ
    Blend: AUG-CC-PVTZ
  Basis Set: (AUG-CC-PVTZ AUX)
    Blend: AUG-CC-PVTZ-JKFIT
	 Reference Energy          =    -231.0612004805678907 [Eh]
	 Singles Energy            =      -0.0000000000000000 [Eh]
	 Same-Spin Energy          =      -0.2325617186980170 [Eh]
	 Opposite-Spin Energy      =      -0.7955103310736762 [Eh]
	 Correlation Energy        =      -1.0280720497716931 [Eh]
	 Total Energy              =    -232.0892725303395707 [Eh]

	 ================> DF-SCS-MP2 Energies <==================
	-----------------------------------------------------------
	 SCS Same-Spin Scale       =       0.3333333333333333 [-]
	 SCS Opposite-Spin Scale   =       1.2000000000000000 [-]
	 SCS Same-Spin Energy      =      -0.0775205728993390 [Eh]
	 SCS Opposite-Spin Energy  =      -0.9546123972884114 [Eh]
	 SCS Correlation Energy    =      -1.0321329701877504 [Eh]
	 SCS Total Energy          =    -232.0933334507556367 [Eh]
	-----------------------------------------------------------

  Dipole Moment: [D]
     X:     0.0148      Y:     1.8766      Z:     0.0046     Total:     1.8767

*** Psi4 exiting successfully. Buy a developer a beer!
