                               Psi4 1.3.2 release

  ==> Input File <==

--------------------------------------------------------------------------
#psi4
#
memory 32 gb

molecule  {
0 1
  O       -0.0506448     1.1705287    -0.0285328
  C       -0.7242590    -0.9887060     0.2422500
  C        0.7242680    -0.9886970    -0.2422570
  C       -1.1637400     0.4211370    -0.1388030
  C        1.1637350     0.4211420     0.1388200
  H       -1.3424580    -1.7652320    -0.2168500
  H       -0.7591500    -1.1180870     1.3290580
  H        1.3424710    -1.7652260     0.2168300
  H        0.7591600    -1.1180590    -1.3290680
  H       -1.5137280     0.4564660    -1.1799380
  H       -1.9528620     0.8231880     0.5042800
  H        1.5136860     0.4564610     1.1799670
  H        1.9528750     0.8232040    -0.5042320
units angstrom
no_reorient  #important for SAPT in psi4, default
symmetry c1  #important for SAPT in psi4, default
}

set PROPERTIES_ORIGIN ["COM"]
properties('MP2/aug-cc-pvtz', properties = ['dipole'])
--------------------------------------------------------------------------

    Molecular point group: c1
  Charge       = 0
  Multiplicity = 1
  Basis Set: AUG-CC-PVTZ
    Blend: AUG-CC-PVTZ
  Basis Set: (AUG-CC-PVTZ AUX)
    Blend: AUG-CC-PVTZ-JKFIT

    Orbital Energies [Eh]
    ---------------------

    Doubly Occupied:

       1A    -20.540441     2A    -11.275096     3A    -11.261232
       4A    -11.224639     5A    -11.221180     6A     -1.390966
       7A     -1.057275     8A     -0.997364     9A     -0.812450
      10A     -0.803148    11A     -0.690491    12A     -0.679631
      13A     -0.605130    14A     -0.587282    15A     -0.567906
      16A     -0.504795    17A     -0.493272    18A     -0.475664
      19A     -0.451866    20A     -0.401946

  @DF-RHF Final Energy:  -231.05739527704662

   => Energetics <=

    Nuclear Repulsion Energy =            192.9021681100880130
    One-Electron Energy =                -695.8355808640758369
    Two-Electron Energy =                 271.8760174769411719
    Total Energy =                       -231.0573952770466235
  Basis Set: (AUG-CC-PVTZ AUX)
    Blend: AUG-CC-PVTZ-RI
    Molecular point group: c1

    Geometry (in Angstrom), charge = 0, multiplicity = 1:

       Center              X                  Y                   Z               Mass
    ------------   -----------------  -----------------  -----------------  -----------------
         O           -0.039403539456     1.144596130567    -0.022201575105    15.994914619570
         C           -0.713017739456    -1.014638569433     0.248581224895    12.000000000000
         C            0.735509260544    -1.014629569433    -0.235925775105    12.000000000000
         C           -1.152498739456     0.395204430567    -0.132471775105    12.000000000000
         C            1.174976260544     0.395209430567     0.145151224895    12.000000000000
         H           -1.331216739456    -1.791164569433    -0.210518775105     1.007825032230
         H           -0.747908739456    -1.144019569433     1.335389224895     1.007825032230
         H            1.353712260544    -1.791158569433     0.223161224895     1.007825032230
         H            0.770401260544    -1.143991569433    -1.322736775105     1.007825032230
         H           -1.502486739456     0.430533430567    -1.173606775105     1.007825032230
         H           -1.941620739456     0.797255430567     0.510611224895     1.007825032230
         H            1.524927260544     0.430528430567     1.186298224895     1.007825032230
         H            1.964116260544     0.797271430567    -0.497900775105     1.007825032230

  Basis Set: AUG-CC-PVTZ
    Blend: AUG-CC-PVTZ
  Basis Set: (AUG-CC-PVTZ AUX)
    Blend: AUG-CC-PVTZ-JKFIT
	 Reference Energy          =    -231.0573952770466235 [Eh]
	 Singles Energy            =      -0.0000000000000000 [Eh]
	 Same-Spin Energy          =      -0.2323598903225771 [Eh]
	 Opposite-Spin Energy      =      -0.7935867127502257 [Eh]
	 Correlation Energy        =      -1.0259466030728028 [Eh]
	 Total Energy              =    -232.0833418801194341 [Eh]

	 ================> DF-SCS-MP2 Energies <==================
	-----------------------------------------------------------
	 SCS Same-Spin Scale       =       0.3333333333333333 [-]
	 SCS Opposite-Spin Scale   =       1.2000000000000000 [-]
	 SCS Same-Spin Energy      =      -0.0774532967741924 [Eh]
	 SCS Opposite-Spin Energy  =      -0.9523040553002708 [Eh]
	 SCS Correlation Energy    =      -1.0297573520744632 [Eh]
	 SCS Total Energy          =    -232.0871526291210785 [Eh]
	-----------------------------------------------------------

  Dipole Moment: [D]
     X:     0.2919      Y:    -1.6155      Z:     0.0875     Total:     1.6440

*** Psi4 exiting successfully. Buy a developer a beer!
