                               Psi4 1.3.2 release

  ==> Input File <==

--------------------------------------------------------------------------
#psi4
#
memory 32 gb

molecule  {
0 1
  O       -0.0000020     1.2522540    -0.0000130
  C       -0.7242590    -0.9887060     0.2422500
  C        0.7242680    -0.9886970    -0.2422570
  C       -1.1637400     0.4211370    -0.1388030
  C        1.1243433     0.4405496     0.1087283
  H       -1.3424580    -1.7652320    -0.2168500
  H       -0.7591500    -1.1180870     1.3290580
  H        1.3424710    -1.7652260     0.2168300
  H        0.7591600    -1.1180590    -1.3290680
  H       -1.5137280     0.4564660    -1.1799380
  H       -1.9528620     0.8231880     0.5042800
  H        1.5136860     0.4564610     1.1799670
  H        1.9528750     0.8232040    -0.5042320
units angstrom
no_reorient  #important for SAPT in psi4, default
symmetry c1  #important for SAPT in psi4, default
}

set PROPERTIES_ORIGIN ["COM"]
properties('MP2/aug-cc-pvtz', properties = ['dipole'])
--------------------------------------------------------------------------

    Molecular point group: c1
  Charge       = 0
  Multiplicity = 1
  Basis Set: AUG-CC-PVTZ
    Blend: AUG-CC-PVTZ
  Basis Set: (AUG-CC-PVTZ AUX)
    Blend: AUG-CC-PVTZ-JKFIT

    Orbital Energies [Eh]
    ---------------------

    Doubly Occupied:

       1A    -20.548995     2A    -11.272630     3A    -11.270638
       4A    -11.226894     5A    -11.225325     6A     -1.378806
       7A     -1.063149     8A     -0.989753     9A     -0.811680
      10A     -0.803702    11A     -0.684725    12A     -0.677694
      13A     -0.597161    14A     -0.583013    15A     -0.562167
      16A     -0.508275    17A     -0.494188    18A     -0.474211
      19A     -0.464028    20A     -0.403010

  @DF-RHF Final Energy:  -231.05906983846882

   => Energetics <=

    Nuclear Repulsion Energy =            191.4793318810731932
    One-Electron Energy =                -692.9967154963615030
    Two-Electron Energy =                 270.4583137768194661
    Total Energy =                       -231.0590698384688153
  Basis Set: (AUG-CC-PVTZ AUX)
    Blend: AUG-CC-PVTZ-RI
    Molecular point group: c1

    Geometry (in Angstrom), charge = 0, multiplicity = 1:

       Center              X                  Y                   Z               Mass
    ------------   -----------------  -----------------  -----------------  -----------------
         O            0.006557904787     1.204948498148     0.004998843202    15.994914619570
         C           -0.717699095213    -1.036011501852     0.247261843202    12.000000000000
         C            0.730827904787    -1.036002501852    -0.237245156798    12.000000000000
         C           -1.157180095213     0.373831498148    -0.133791156798    12.000000000000
         C            1.130903204787     0.393244098148     0.113740143202    12.000000000000
         H           -1.335898095213    -1.812537501852    -0.211838156798     1.007825032230
         H           -0.752590095213    -1.165392501852     1.334069843202     1.007825032230
         H            1.349030904787    -1.812531501852     0.221841843202     1.007825032230
         H            0.765719904787    -1.165364501852    -1.324056156798     1.007825032230
         H           -1.507168095213     0.409160498148    -1.174926156798     1.007825032230
         H           -1.946302095213     0.775882498148     0.509291843202     1.007825032230
         H            1.520245904787     0.409155498148     1.184978843202     1.007825032230
         H            1.959434904787     0.775898498148    -0.499220156798     1.007825032230

  Basis Set: AUG-CC-PVTZ
    Blend: AUG-CC-PVTZ
  Basis Set: (AUG-CC-PVTZ AUX)
    Blend: AUG-CC-PVTZ-JKFIT
	 Reference Energy          =    -231.0590698384688153 [Eh]
	 Singles Energy            =      -0.0000000000000000 [Eh]
	 Same-Spin Energy          =      -0.2325942145105178 [Eh]
	 Opposite-Spin Energy      =      -0.7951617010043592 [Eh]
	 Correlation Energy        =      -1.0277559155148770 [Eh]
	 Total Energy              =    -232.0868257539837032 [Eh]

	 ================> DF-SCS-MP2 Energies <==================
	-----------------------------------------------------------
	 SCS Same-Spin Scale       =       0.3333333333333333 [-]
	 SCS Opposite-Spin Scale   =       1.2000000000000000 [-]
	 SCS Same-Spin Energy      =      -0.0775314048368393 [Eh]
	 SCS Opposite-Spin Energy  =      -0.9541940412052310 [Eh]
	 SCS Correlation Energy    =      -1.0317254460420702 [Eh]
	 SCS Total Energy          =    -232.0907952845108753 [Eh]
	-----------------------------------------------------------

  Dipole Moment: [D]
     X:    -0.1657      Y:    -1.8224      Z:    -0.0763     Total:     1.8315

*** Psi4 exiting successfully. Buy a developer a beer!
