                               Psi4 1.3.2 release

  ==> Input File <==

--------------------------------------------------------------------------
#psi4
#
memory 32 gb

molecule  {
0 1
  O       -0.0000020     1.2522540    -0.0000130
  C       -0.7242590    -0.9887060     0.2422500
  C        0.7242680    -0.9886970    -0.2422570
  C       -1.1637400     0.4211370    -0.1388030
  C        1.0844642     0.4582160     0.0782090
  H       -1.3424580    -1.7652320    -0.2168500
  H       -0.7591500    -1.1180870     1.3290580
  H        1.3424710    -1.7652260     0.2168300
  H        0.7591600    -1.1180590    -1.3290680
  H       -1.5137280     0.4564660    -1.1799380
  H       -1.9528620     0.8231880     0.5042800
  H        1.5136860     0.4564610     1.1799670
  H        1.9528750     0.8232040    -0.5042320
units angstrom
no_reorient  #important for SAPT in psi4, default
symmetry c1  #important for SAPT in psi4, default
}

set PROPERTIES_ORIGIN ["COM"]
properties('MP2/aug-cc-pvtz', properties = ['dipole'])
--------------------------------------------------------------------------

    Molecular point group: c1
  Charge       = 0
  Multiplicity = 1
  Basis Set: AUG-CC-PVTZ
    Blend: AUG-CC-PVTZ
  Basis Set: (AUG-CC-PVTZ AUX)
    Blend: AUG-CC-PVTZ-JKFIT

    Orbital Energies [Eh]
    ---------------------

    Doubly Occupied:

       1A    -20.553713     2A    -11.275896     3A    -11.272727
       4A    -11.227585     5A    -11.224885     6A     -1.398378
       7A     -1.065587     8A     -0.990961     9A     -0.816104
      10A     -0.799428    11A     -0.688151    12A     -0.684669
      13A     -0.606127    14A     -0.580072    15A     -0.566097
      16A     -0.514148    17A     -0.495415    18A     -0.473106
      19A     -0.461456    20A     -0.394744

  @DF-RHF Final Energy:  -231.05134251849557

   => Energetics <=

    Nuclear Repulsion Energy =            192.2163423345412525
    One-Electron Energy =                -694.3568727355459487
    Two-Electron Energy =                 271.0891878825091226
    Total Energy =                       -231.0513425184955736
  Basis Set: (AUG-CC-PVTZ AUX)
    Blend: AUG-CC-PVTZ-RI
    Molecular point group: c1

    Geometry (in Angstrom), charge = 0, multiplicity = 1:

       Center              X                  Y                   Z               Mass
    ------------   -----------------  -----------------  -----------------  -----------------
         O            0.013199116336     1.202006448309     0.010081333219    15.994914619570
         C           -0.711057883664    -1.038953551691     0.252344333219    12.000000000000
         C            0.737469116336    -1.038944551691    -0.232162666781    12.000000000000
         C           -1.150538883664     0.370889448309    -0.128708666781    12.000000000000
         C            1.097665316336     0.407968448309     0.088303333219    12.000000000000
         H           -1.329256883664    -1.815479551691    -0.206755666781     1.007825032230
         H           -0.745948883664    -1.168334551691     1.339152333219     1.007825032230
         H            1.355672116336    -1.815473551691     0.226924333219     1.007825032230
         H            0.772361116336    -1.168306551691    -1.318973666781     1.007825032230
         H           -1.500526883664     0.406218448309    -1.169843666781     1.007825032230
         H           -1.939660883664     0.772940448309     0.514374333219     1.007825032230
         H            1.526887116336     0.406213448309     1.190061333219     1.007825032230
         H            1.966076116336     0.772956448309    -0.494137666781     1.007825032230

  Basis Set: AUG-CC-PVTZ
    Blend: AUG-CC-PVTZ
  Basis Set: (AUG-CC-PVTZ AUX)
    Blend: AUG-CC-PVTZ-JKFIT
	 Reference Energy          =    -231.0513425184955736 [Eh]
	 Singles Energy            =      -0.0000000000000000 [Eh]
	 Same-Spin Energy          =      -0.2327732172723354 [Eh]
	 Opposite-Spin Energy      =      -0.7949979536926336 [Eh]
	 Correlation Energy        =      -1.0277711709649688 [Eh]
	 Total Energy              =    -232.0791136894605415 [Eh]

	 ================> DF-SCS-MP2 Energies <==================
	-----------------------------------------------------------
	 SCS Same-Spin Scale       =       0.3333333333333333 [-]
	 SCS Opposite-Spin Scale   =       1.2000000000000000 [-]
	 SCS Same-Spin Energy      =      -0.0775910724241118 [Eh]
	 SCS Opposite-Spin Energy  =      -0.9539975444311602 [Eh]
	 SCS Correlation Energy    =      -1.0315886168552719 [Eh]
	 SCS Total Energy          =    -232.0829311353508331 [Eh]
	-----------------------------------------------------------

  Dipole Moment: [D]
     X:    -0.3561      Y:    -1.7641      Z:    -0.1700     Total:     1.8077

*** Psi4 exiting successfully. Buy a developer a beer!
