                               Psi4 1.3.2 release

  ==> Input File <==

--------------------------------------------------------------------------
#psi4
#
memory 32 gb

molecule  {
0 1
  O        0.0463755     1.1922183    -0.0656020
  C       -0.7242590    -0.9887060     0.2422500
  C        0.7242680    -0.9886970    -0.2422570
  C       -1.1637400     0.4211370    -0.1388030
  C        1.1637350     0.4211420     0.1388200
  H       -1.3424580    -1.7652320    -0.2168500
  H       -0.7591500    -1.1180870     1.3290580
  H        1.3424710    -1.7652260     0.2168300
  H        0.7591600    -1.1180590    -1.3290680
  H       -1.5137280     0.4564660    -1.1799380
  H       -1.9528620     0.8231880     0.5042800
  H        1.5136860     0.4564610     1.1799670
  H        1.9528750     0.8232040    -0.5042320
units angstrom
no_reorient  #important for SAPT in psi4, default
symmetry c1  #important for SAPT in psi4, default
}

set PROPERTIES_ORIGIN ["COM"]
properties('MP2/aug-cc-pvtz', properties = ['dipole'])
--------------------------------------------------------------------------

    Molecular point group: c1
  Charge       = 0
  Multiplicity = 1
  Basis Set: AUG-CC-PVTZ
    Blend: AUG-CC-PVTZ
  Basis Set: (AUG-CC-PVTZ AUX)
    Blend: AUG-CC-PVTZ-JKFIT

    Orbital Energies [Eh]
    ---------------------

    Doubly Occupied:

       1A    -20.542083     2A    -11.272833     3A    -11.264112
       4A    -11.225379     5A    -11.222167     6A     -1.381790
       7A     -1.058107     8A     -0.994887     9A     -0.810612
      10A     -0.805128    11A     -0.687688    12A     -0.677044
      13A     -0.600559    14A     -0.588353    15A     -0.563039
      16A     -0.504461    17A     -0.493285    18A     -0.475469
      19A     -0.455971    20A     -0.404562

  @DF-RHF Final Energy:  -231.05964370814127

   => Energetics <=

    Nuclear Repulsion Energy =            192.2737176398516112
    One-Electron Energy =                -694.6116653964002126
    Two-Electron Energy =                 271.2783040484073354
    Total Energy =                       -231.0596437081412660
  Basis Set: (AUG-CC-PVTZ AUX)
    Blend: AUG-CC-PVTZ-RI
    Molecular point group: c1

    Geometry (in Angstrom), charge = 0, multiplicity = 1:

       Center              X                  Y                   Z               Mass
    ------------   -----------------  -----------------  -----------------  -----------------
         O            0.036080749796     1.161471197333    -0.051042366312    15.994914619570
         C           -0.734553750204    -1.019453102667     0.256809633688    12.000000000000
         C            0.713973249796    -1.019444102667    -0.227697366312    12.000000000000
         C           -1.174034750204     0.390389897333    -0.124243366312    12.000000000000
         C            1.153440249796     0.390394897333     0.153379633688    12.000000000000
         H           -1.352752750204    -1.795979102667    -0.202290366312     1.007825032230
         H           -0.769444750204    -1.148834102667     1.343617633688     1.007825032230
         H            1.332176249796    -1.795973102667     0.231389633688     1.007825032230
         H            0.748865249796    -1.148806102667    -1.314508366312     1.007825032230
         H           -1.524022750204     0.425718897333    -1.165378366312     1.007825032230
         H           -1.963156750204     0.792440897333     0.518839633688     1.007825032230
         H            1.503391249796     0.425713897333     1.194526633688     1.007825032230
         H            1.942580249796     0.792456897333    -0.489672366312     1.007825032230

  Basis Set: AUG-CC-PVTZ
    Blend: AUG-CC-PVTZ
  Basis Set: (AUG-CC-PVTZ AUX)
    Blend: AUG-CC-PVTZ-JKFIT
	 Reference Energy          =    -231.0596437081412660 [Eh]
	 Singles Energy            =      -0.0000000000000000 [Eh]
	 Same-Spin Energy          =      -0.2324322213468228 [Eh]
	 Opposite-Spin Energy      =      -0.7941827794852401 [Eh]
	 Correlation Energy        =      -1.0266150008320629 [Eh]
	 Total Energy              =    -232.0862587089733324 [Eh]

	 ================> DF-SCS-MP2 Energies <==================
	-----------------------------------------------------------
	 SCS Same-Spin Scale       =       0.3333333333333333 [-]
	 SCS Opposite-Spin Scale   =       1.2000000000000000 [-]
	 SCS Same-Spin Energy      =      -0.0774774071156076 [Eh]
	 SCS Opposite-Spin Energy  =      -0.9530193353822880 [Eh]
	 SCS Correlation Energy    =      -1.0304967424978957 [Eh]
	 SCS Total Energy          =    -232.0901404506391543 [Eh]
	-----------------------------------------------------------

  Dipole Moment: [D]
     X:    -0.2055      Y:    -1.6849      Z:     0.0778     Total:     1.6991

*** Psi4 exiting successfully. Buy a developer a beer!
