                               Psi4 1.3.2 release

  ==> Input File <==

--------------------------------------------------------------------------
#psi4
#
memory 32 gb

molecule  {
0 1
  O       -0.0000020     1.2522540    -0.0000130
  C       -0.7293734    -0.9680243     0.2262264
  C        0.7242680    -0.9886970    -0.2422570
  C       -1.1637400     0.4211370    -0.1388030
  C        1.1637350     0.4211420     0.1388200
  H       -1.3424580    -1.7652320    -0.2168500
  H       -0.7591500    -1.1180870     1.3290580
  H        1.3424710    -1.7652260     0.2168300
  H        0.7591600    -1.1180590    -1.3290680
  H       -1.5137280     0.4564660    -1.1799380
  H       -1.9528620     0.8231880     0.5042800
  H        1.5136860     0.4564610     1.1799670
  H        1.9528750     0.8232040    -0.5042320
units angstrom
no_reorient  #important for SAPT in psi4, default
symmetry c1  #important for SAPT in psi4, default
}

set PROPERTIES_ORIGIN ["COM"]
properties('MP2/aug-cc-pvtz', properties = ['dipole'])
--------------------------------------------------------------------------

    Molecular point group: c1
  Charge       = 0
  Multiplicity = 1
  Basis Set: AUG-CC-PVTZ
    Blend: AUG-CC-PVTZ
  Basis Set: (AUG-CC-PVTZ AUX)
    Blend: AUG-CC-PVTZ-JKFIT

    Orbital Energies [Eh]
    ---------------------

    Doubly Occupied:

       1A    -20.544663     2A    -11.269612     3A    -11.268742
       4A    -11.227292     5A    -11.226308     6A     -1.362185
       7A     -1.062882     8A     -0.991437     9A     -0.809788
      10A     -0.805304    11A     -0.682805    12A     -0.673268
      13A     -0.589428    14A     -0.587035    15A     -0.555974
      16A     -0.503672    17A     -0.497729    18A     -0.471708
      19A     -0.466223    20A     -0.407946

  @DF-RHF Final Energy:  -231.06022226806999

   => Energetics <=

    Nuclear Repulsion Energy =            191.0637734521728248
    One-Electron Energy =                -692.2399919660158503
    Two-Electron Energy =                 270.1159962457730330
    Total Energy =                       -231.0602222680699924
  Basis Set: (AUG-CC-PVTZ AUX)
    Blend: AUG-CC-PVTZ-RI
    Molecular point group: c1

    Geometry (in Angstrom), charge = 0, multiplicity = 1:

       Center              X                  Y                   Z               Mass
    ------------   -----------------  -----------------  -----------------  -----------------
         O            0.000849581364     1.204736317641     0.002656031349    15.994914619570
         C           -0.728521818636    -1.015541982359     0.228895431349    12.000000000000
         C            0.725119581364    -1.036214682359    -0.239587968651    12.000000000000
         C           -1.162888418636     0.373619317641    -0.136133968651    12.000000000000
         C            1.164586581364     0.373624317641     0.141489031349    12.000000000000
         H           -1.341606418636    -1.812749682359    -0.214180968651     1.007825032230
         H           -0.758298418636    -1.165604682359     1.331727031349     1.007825032230
         H            1.343322581364    -1.812743682359     0.219499031349     1.007825032230
         H            0.760011581364    -1.165576682359    -1.326398968651     1.007825032230
         H           -1.512876418636     0.408948317641    -1.177268968651     1.007825032230
         H           -1.952010418636     0.775670317641     0.506949031349     1.007825032230
         H            1.514537581364     0.408943317641     1.182636031349     1.007825032230
         H            1.953726581364     0.775686317641    -0.501562968651     1.007825032230

  Basis Set: AUG-CC-PVTZ
    Blend: AUG-CC-PVTZ
  Basis Set: (AUG-CC-PVTZ AUX)
    Blend: AUG-CC-PVTZ-JKFIT
	 Reference Energy          =    -231.0602222680699924 [Eh]
	 Singles Energy            =      -0.0000000000000000 [Eh]
	 Same-Spin Energy          =      -0.2327115455289628 [Eh]
	 Opposite-Spin Energy      =      -0.7957602759832065 [Eh]
	 Correlation Energy        =      -1.0284718215121693 [Eh]
	 Total Energy              =    -232.0886940895821624 [Eh]

	 ================> DF-SCS-MP2 Energies <==================
	-----------------------------------------------------------
	 SCS Same-Spin Scale       =       0.3333333333333333 [-]
	 SCS Opposite-Spin Scale   =       1.2000000000000000 [-]
	 SCS Same-Spin Energy      =      -0.0775705151763209 [Eh]
	 SCS Opposite-Spin Energy  =      -0.9549123311798478 [Eh]
	 SCS Correlation Energy    =      -1.0324828463561686 [Eh]
	 SCS Total Energy          =    -232.0927051144261668 [Eh]
	-----------------------------------------------------------

  Dipole Moment: [D]
     X:     0.0013      Y:    -1.8876      Z:    -0.0060     Total:     1.8876

*** Psi4 exiting successfully. Buy a developer a beer!
