                               Psi4 1.3.2 release

  ==> Input File <==

--------------------------------------------------------------------------
#psi4
#
memory 32 gb

molecule  {
0 1
  O       -0.0000020     1.2522540    -0.0000130
  C       -0.7242590    -0.9887060     0.2422500
  C        0.7242680    -0.9886970    -0.2422570
  C       -1.1491599     0.4008096    -0.1370634
  C        1.1637350     0.4211420     0.1388200
  H       -1.3424580    -1.7652320    -0.2168500
  H       -0.7591500    -1.1180870     1.3290580
  H        1.3424710    -1.7652260     0.2168300
  H        0.7591600    -1.1180590    -1.3290680
  H       -1.5137280     0.4564660    -1.1799380
  H       -1.9528620     0.8231880     0.5042800
  H        1.5136860     0.4564610     1.1799670
  H        1.9528750     0.8232040    -0.5042320
units angstrom
no_reorient  #important for SAPT in psi4, default
symmetry c1  #important for SAPT in psi4, default
}

set PROPERTIES_ORIGIN ["COM"]
properties('MP2/aug-cc-pvtz', properties = ['dipole'])
--------------------------------------------------------------------------

    Molecular point group: c1
  Charge       = 0
  Multiplicity = 1
  Basis Set: AUG-CC-PVTZ
    Blend: AUG-CC-PVTZ
  Basis Set: (AUG-CC-PVTZ AUX)
    Blend: AUG-CC-PVTZ-JKFIT

    Orbital Energies [Eh]
    ---------------------

    Doubly Occupied:

       1A    -20.545275     2A    -11.270271     3A    -11.269609
       4A    -11.226857     5A    -11.225691     6A     -1.362645
       7A     -1.064888     8A     -0.989593     9A     -0.809280
      10A     -0.806024    11A     -0.682752    12A     -0.673319
      13A     -0.589521    14A     -0.586096    15A     -0.555696
      16A     -0.503907    17A     -0.496147    18A     -0.475883
      19A     -0.467098    20A     -0.406600

  @DF-RHF Final Energy:  -231.05997084447557

   => Energetics <=

    Nuclear Repulsion Energy =            191.0853815670574818
    One-Electron Energy =                -692.2763989608321253
    Two-Electron Energy =                 270.1310465492990716
    Total Energy =                       -231.0599708444755720
  Basis Set: (AUG-CC-PVTZ AUX)
    Blend: AUG-CC-PVTZ-RI
    Molecular point group: c1

    Geometry (in Angstrom), charge = 0, multiplicity = 1:

       Center              X                  Y                   Z               Mass
    ------------   -----------------  -----------------  -----------------  -----------------
         O           -0.002430215343     1.211565712200    -0.000302138946    15.994914619570
         C           -0.726687215343    -1.029394287800     0.241960861054    12.000000000000
         C            0.721839784657    -1.029385287800    -0.242546138946    12.000000000000
         C           -1.151588115343     0.360121312200    -0.137352538946    12.000000000000
         C            1.161306784657     0.380453712200     0.138530861054    12.000000000000
         H           -1.344886215343    -1.805920287800    -0.217139138946     1.007825032230
         H           -0.761578215343    -1.158775287800     1.328768861054     1.007825032230
         H            1.340042784657    -1.805914287800     0.216540861054     1.007825032230
         H            0.756731784657    -1.158747287800    -1.329357138946     1.007825032230
         H           -1.516156215343     0.415777712200    -1.180227138946     1.007825032230
         H           -1.955290215343     0.782499712200     0.503990861054     1.007825032230
         H            1.511257784657     0.415772712200     1.179677861054     1.007825032230
         H            1.950446784657     0.782515712200    -0.504521138946     1.007825032230

  Basis Set: AUG-CC-PVTZ
    Blend: AUG-CC-PVTZ
  Basis Set: (AUG-CC-PVTZ AUX)
    Blend: AUG-CC-PVTZ-JKFIT
	 Reference Energy          =    -231.0599708444755720 [Eh]
	 Singles Energy            =      -0.0000000000000000 [Eh]
	 Same-Spin Energy          =      -0.2328022016737449 [Eh]
	 Opposite-Spin Energy      =      -0.7959013218793043 [Eh]
	 Correlation Energy        =      -1.0287035235530491 [Eh]
	 Total Energy              =    -232.0886743680286202 [Eh]

	 ================> DF-SCS-MP2 Energies <==================
	-----------------------------------------------------------
	 SCS Same-Spin Scale       =       0.3333333333333333 [-]
	 SCS Opposite-Spin Scale   =       1.2000000000000000 [-]
	 SCS Same-Spin Energy      =      -0.0776007338912483 [Eh]
	 SCS Opposite-Spin Energy  =      -0.9550815862551651 [Eh]
	 SCS Correlation Energy    =      -1.0326823201464135 [Eh]
	 SCS Total Energy          =    -232.0926531646219928 [Eh]
	-----------------------------------------------------------

  Dipole Moment: [D]
     X:     0.0244      Y:    -1.9090      Z:     0.0024     Total:     1.9091

*** Psi4 exiting successfully. Buy a developer a beer!
