                               Psi4 1.4a3.dev225

  ==> Input File <==

--------------------------------------------------------------------------
#psi4
#
memory 32 gb

molecule  {
0 1
  O        0.0000050    -1.2522320    -0.0000130
  C        0.7242410     0.9886740     0.2423340
  C       -0.7242550     0.9886620    -0.2423410
  C        1.1637670    -0.4210850    -0.1388640
  C       -1.1637580    -0.4210950     0.1388810
  H        1.3425610     1.7653610    -0.2163320
  H        0.7589520     1.1177070     1.3292070
  H       -1.3425830     1.7653500     0.2163130
  H       -0.7589690     1.1176750    -1.3292170
  H        1.5136340    -0.4563640    -1.1800500
  H        1.9674308    -0.8305550     0.5158031
  H       -1.5135900    -0.4563680     1.1800790
  H       -1.9530190    -0.8232310    -0.5040080
units angstrom
no_reorient  #important for SAPT in psi4, default
symmetry c1  #important for SAPT in psi4, default
}

set PROPERTIES_ORIGIN ["COM"]
properties('MP2/aug-cc-pvtz', properties = ['dipole'])
--------------------------------------------------------------------------

    Molecular point group: c1
  Charge       = 0
  Multiplicity = 1
  Basis Set: AUG-CC-PVTZ
    Blend: AUG-CC-PVTZ
  Basis Set: (AUG-CC-PVTZ AUX)
    Blend: AUG-CC-PVTZ-JKFIT

    Orbital Energies [Eh]
    ---------------------

    Doubly Occupied:

       1A    -20.544925     2A    -11.272132     3A    -11.269857
       4A    -11.226824     5A    -11.226204     6A     -1.361552
       7A     -1.061586     8A     -0.988149     9A     -0.808057
      10A     -0.806903    11A     -0.682002    12A     -0.670864
      13A     -0.589289    14A     -0.586996    15A     -0.557243
      16A     -0.503514    17A     -0.493199    18A     -0.476422
      19A     -0.464020    20A     -0.407693

  @DF-RHF Final Energy:  -231.06052798808506

   => Energetics <=

    Nuclear Repulsion Energy =            190.6771011211687892
    One-Electron Energy =                -691.4803899831516674
    Two-Electron Energy =                 269.7427608738978506
    Total Energy =                       -231.0605279880850276
  Basis Set: (AUG-CC-PVTZ AUX)
    Blend: AUG-CC-PVTZ-RI
    Molecular point group: c1

    Geometry (in Angstrom), charge = 0, multiplicity = 1:

       Center              X                  Y                   Z               Mass
    ------------   -----------------  -----------------  -----------------  -----------------
         O           -0.000196916296    -1.208060893741    -0.000176750626    15.994914619570
         C            0.724039083704     1.032845106259     0.242170249374    12.000000000000
         C           -0.724456916296     1.032833106259    -0.242504750626    12.000000000000
         C            1.163565083704    -0.376913893741    -0.139027750626    12.000000000000
         C           -1.163959916296    -0.376923893741     0.138717249374    12.000000000000
         H            1.342359083704     1.809532106259    -0.216495750626     1.007825032230
         H            0.758750083704     1.161878106259     1.329043249374     1.007825032230
         H           -1.342784916296     1.809521106259     0.216149249374     1.007825032230
         H           -0.759170916296     1.161846106259    -1.329380750626     1.007825032230
         H            1.513432083704    -0.412192893741    -1.180213750626     1.007825032230
         H            1.967228883704    -0.786383893741     0.515639349374     1.007825032230
         H           -1.513791916296    -0.412196893741     1.179915249374     1.007825032230
         H           -1.953220916296    -0.779059893741    -0.504171750626     1.007825032230

  Basis Set: AUG-CC-PVTZ
    Blend: AUG-CC-PVTZ
  Basis Set: (AUG-CC-PVTZ AUX)
    Blend: AUG-CC-PVTZ-JKFIT
	 Reference Energy          =    -231.0605279880850560 [Eh]
	 Singles Energy            =      -0.0000000000000000 [Eh]
	 Same-Spin Energy          =      -0.2325922157257469 [Eh]
	 Opposite-Spin Energy      =      -0.7957900058787279 [Eh]
	 Correlation Energy        =      -1.0283822216044749 [Eh]
	 Total Energy              =    -232.0889102096895442 [Eh]

	 ================> DF-SCS-MP2 Energies <==================
	-----------------------------------------------------------
	 SCS Same-Spin Scale       =       0.3333333333333333 [-]
	 SCS Opposite-Spin Scale   =       1.2000000000000000 [-]
	 SCS Same-Spin Energy      =      -0.0775307385752490 [Eh]
	 SCS Opposite-Spin Energy  =      -0.9549480070544735 [Eh]
	 SCS Correlation Energy    =      -1.0324787456297224 [Eh]
	 SCS Total Energy          =    -232.0930067337147875 [Eh]
	-----------------------------------------------------------

  Dipole Moment: [D]
     X:    -0.0157      Y:     1.8854      Z:    -0.0050     Total:     1.8855

*** Psi4 exiting successfully. Buy a developer a beer!
