                               Psi4 1.3.2 release

  ==> Input File <==

--------------------------------------------------------------------------
#psi4
#
memory 32 gb

molecule  {
0 1
  O        0.0673665     1.1607726    -0.0985503
  C       -0.7242590    -0.9887060     0.2422500
  C        0.7242680    -0.9886970    -0.2422570
  C       -1.1637400     0.4211370    -0.1388030
  C        1.1637350     0.4211420     0.1388200
  H       -1.3424580    -1.7652320    -0.2168500
  H       -0.7591500    -1.1180870     1.3290580
  H        1.3424710    -1.7652260     0.2168300
  H        0.7591600    -1.1180590    -1.3290680
  H       -1.5137280     0.4564660    -1.1799380
  H       -1.9528620     0.8231880     0.5042800
  H        1.5136860     0.4564610     1.1799670
  H        1.9528750     0.8232040    -0.5042320
units angstrom
no_reorient  #important for SAPT in psi4, default
symmetry c1  #important for SAPT in psi4, default
}

set PROPERTIES_ORIGIN ["COM"]
properties('MP2/aug-cc-pvtz', properties = ['dipole'])
--------------------------------------------------------------------------

    Molecular point group: c1
  Charge       = 0
  Multiplicity = 1
  Basis Set: AUG-CC-PVTZ
    Blend: AUG-CC-PVTZ
  Basis Set: (AUG-CC-PVTZ AUX)
    Blend: AUG-CC-PVTZ-JKFIT

    Orbital Energies [Eh]
    ---------------------

    Doubly Occupied:

       1A    -20.541022     2A    -11.274478     3A    -11.261627
       4A    -11.224843     5A    -11.220021     6A     -1.392668
       7A     -1.056770     8A     -0.997797     9A     -0.811995
      10A     -0.803682    11A     -0.690716    12A     -0.680048
      13A     -0.607519    14A     -0.589211    15A     -0.563572
      16A     -0.505158    17A     -0.492777    18A     -0.474857
      19A     -0.451105    20A     -0.402829

  @DF-RHF Final Energy:  -231.05556176534122

   => Energetics <=

    Nuclear Repulsion Energy =            193.0314479523201214
    One-Electron Energy =                -696.0886349333856060
    Two-Electron Energy =                 272.0016252157242320
    Total Energy =                       -231.0555617653412241
  Basis Set: (AUG-CC-PVTZ AUX)
    Blend: AUG-CC-PVTZ-RI
    Molecular point group: c1

    Geometry (in Angstrom), charge = 0, multiplicity = 1:

       Center              X                  Y                   Z               Mass
    ------------   -----------------  -----------------  -----------------  -----------------
         O            0.052412287790     1.137005633790    -0.076676991308    15.994914619570
         C           -0.739213212210    -1.012472966210     0.264123308692    12.000000000000
         C            0.709313787790    -1.012463966210    -0.220383691308    12.000000000000
         C           -1.178694212210     0.397370033790    -0.116929691308    12.000000000000
         C            1.148780787790     0.397375033790     0.160693308692    12.000000000000
         H           -1.357412212210    -1.788998966210    -0.194976691308     1.007825032230
         H           -0.774104212210    -1.141853966210     1.350931308692     1.007825032230
         H            1.327516787790    -1.788992966210     0.238703308692     1.007825032230
         H            0.744205787790    -1.141825966210    -1.307194691308     1.007825032230
         H           -1.528682212210     0.432699033790    -1.158064691308     1.007825032230
         H           -1.967816212210     0.799421033790     0.526153308692     1.007825032230
         H            1.498731787790     0.432694033790     1.201840308692     1.007825032230
         H            1.937920787790     0.799437033790    -0.482358691308     1.007825032230

  Basis Set: AUG-CC-PVTZ
    Blend: AUG-CC-PVTZ
  Basis Set: (AUG-CC-PVTZ AUX)
    Blend: AUG-CC-PVTZ-JKFIT
	 Reference Energy          =    -231.0555617653412241 [Eh]
	 Singles Energy            =      -0.0000000000000000 [Eh]
	 Same-Spin Energy          =      -0.2324993292904718 [Eh]
	 Opposite-Spin Energy      =      -0.7937338821358776 [Eh]
	 Correlation Energy        =      -1.0262332114263493 [Eh]
	 Total Energy              =    -232.0817949767675827 [Eh]

	 ================> DF-SCS-MP2 Energies <==================
	-----------------------------------------------------------
	 SCS Same-Spin Scale       =       0.3333333333333333 [-]
	 SCS Opposite-Spin Scale   =       1.2000000000000000 [-]
	 SCS Same-Spin Energy      =      -0.0774997764301573 [Eh]
	 SCS Opposite-Spin Energy  =      -0.9524806585630531 [Eh]
	 SCS Correlation Energy    =      -1.0299804349932105 [Eh]
	 SCS Total Energy          =    -232.0855422003344302 [Eh]
	-----------------------------------------------------------

  Dipole Moment: [D]
     X:    -0.3065      Y:    -1.5769      Z:     0.1130     Total:     1.6103

*** Psi4 exiting successfully. Buy a developer a beer!
