                               Psi4 1.3.2 release

  ==> Input File <==

--------------------------------------------------------------------------
#psi4
#
memory 32 gb

molecule  {
0 1
  O       -0.0000020     1.2522540    -0.0000130
  C       -0.7242590    -0.9887060     0.2422500
  C        0.7242680    -0.9886970    -0.2422570
  C       -1.1033377     0.3414080    -0.1315961
  C        1.1637350     0.4211420     0.1388200
  H       -1.3424580    -1.7652320    -0.2168500
  H       -0.7591500    -1.1180870     1.3290580
  H        1.3424710    -1.7652260     0.2168300
  H        0.7591600    -1.1180590    -1.3290680
  H       -1.5137280     0.4564660    -1.1799380
  H       -1.9528620     0.8231880     0.5042800
  H        1.5136860     0.4564610     1.1799670
  H        1.9528750     0.8232040    -0.5042320
units angstrom
no_reorient  #important for SAPT in psi4, default
symmetry c1  #important for SAPT in psi4, default
}

set PROPERTIES_ORIGIN ["COM"]
properties('MP2/aug-cc-pvtz', properties = ['dipole'])
--------------------------------------------------------------------------

    Molecular point group: c1
  Charge       = 0
  Multiplicity = 1
  Basis Set: AUG-CC-PVTZ
    Blend: AUG-CC-PVTZ
  Basis Set: (AUG-CC-PVTZ AUX)
    Blend: AUG-CC-PVTZ-JKFIT

    Orbital Energies [Eh]
    ---------------------

    Doubly Occupied:

       1A    -20.547683     2A    -11.273118     3A    -11.269815
       4A    -11.228472     5A    -11.223949     6A     -1.366995
       7A     -1.077652     8A     -0.991572     9A     -0.813853
      10A     -0.798898    11A     -0.685330    12A     -0.679252
      13A     -0.591959    14A     -0.581835    15A     -0.550700
      16A     -0.512038    17A     -0.498681    18A     -0.478327
      19A     -0.466770    20A     -0.400602

  @DF-RHF Final Energy:  -231.04750877639830

   => Energetics <=

    Nuclear Repulsion Energy =            192.0703500989018266
    One-Electron Energy =                -694.1607182098531439
    Two-Electron Energy =                 271.0428593345529862
    Total Energy =                       -231.0475087763983311
  Basis Set: (AUG-CC-PVTZ AUX)
    Blend: AUG-CC-PVTZ-RI
    Molecular point group: c1

    Geometry (in Angstrom), charge = 0, multiplicity = 1:

       Center              X                  Y                   Z               Mass
    ------------   -----------------  -----------------  -----------------  -----------------
         O           -0.010061152948     1.221458076670    -0.001212628297    15.994914619570
         C           -0.734318152948    -1.019501923330     0.241050371703    12.000000000000
         C            0.714208847052    -1.019492923330    -0.243456628297    12.000000000000
         C           -1.113396852948     0.310612076670    -0.132795728297    12.000000000000
         C            1.153675847052     0.390346076670     0.137620371703    12.000000000000
         H           -1.352517152948    -1.796027923330    -0.218049628297     1.007825032230
         H           -0.769209152948    -1.148882923330     1.327858371703     1.007825032230
         H            1.332411847052    -1.796021923330     0.215630371703     1.007825032230
         H            0.749100847052    -1.148854923330    -1.330267628297     1.007825032230
         H           -1.523787152948     0.425670076670    -1.181137628297     1.007825032230
         H           -1.962921152948     0.792392076670     0.503080371703     1.007825032230
         H            1.503626847052     0.425665076670     1.178767371703     1.007825032230
         H            1.942815847052     0.792408076670    -0.505431628297     1.007825032230

  Basis Set: AUG-CC-PVTZ
    Blend: AUG-CC-PVTZ
  Basis Set: (AUG-CC-PVTZ AUX)
    Blend: AUG-CC-PVTZ-JKFIT
	 Reference Energy          =    -231.0475087763983026 [Eh]
	 Singles Energy            =      -0.0000000000000000 [Eh]
	 Same-Spin Energy          =      -0.2338005943718954 [Eh]
	 Opposite-Spin Energy      =      -0.7972454116544783 [Eh]
	 Correlation Energy        =      -1.0310460060263738 [Eh]
	 Total Energy              =    -232.0785547824246748 [Eh]

	 ================> DF-SCS-MP2 Energies <==================
	-----------------------------------------------------------
	 SCS Same-Spin Scale       =       0.3333333333333333 [-]
	 SCS Opposite-Spin Scale   =       1.2000000000000000 [-]
	 SCS Same-Spin Energy      =      -0.0779335314572985 [Eh]
	 SCS Opposite-Spin Energy  =      -0.9566944939853739 [Eh]
	 SCS Correlation Energy    =      -1.0346280254426723 [Eh]
	 SCS Total Energy          =    -232.0821368018409885 [Eh]
	-----------------------------------------------------------

  Dipole Moment: [D]
     X:     0.1168      Y:    -1.9986      Z:     0.0083     Total:     2.0020

*** Psi4 exiting successfully. Buy a developer a beer!
