                               Psi4 1.3.2 release

  ==> Input File <==

--------------------------------------------------------------------------
#psi4
#
memory 32 gb

molecule  {
0 1
  O       -0.0000020     1.2522540    -0.0000130
  C       -0.7242590    -0.9887060     0.2422500
  C        0.7242680    -0.9886970    -0.2422570
  C       -1.1637400     0.4211370    -0.1388030
  C        1.1637350     0.4211420     0.1388200
  H       -1.3424580    -1.7652320    -0.2168500
  H       -0.7591500    -1.1180870     1.3290580
  H        1.3424710    -1.7652260     0.2168300
  H        0.7591600    -1.1180590    -1.3290680
  H       -1.5137280     0.4564660    -1.1799380
  H       -1.8086633     0.7497200     0.3867675
  H        1.5136860     0.4564610     1.1799670
  H        1.9528750     0.8232040    -0.5042320
units angstrom
no_reorient  #important for SAPT in psi4, default
symmetry c1  #important for SAPT in psi4, default
}

set PROPERTIES_ORIGIN ["COM"]
properties('MP2/aug-cc-pvtz', properties = ['dipole'])
--------------------------------------------------------------------------

    Molecular point group: c1
  Charge       = 0
  Multiplicity = 1
  Basis Set: AUG-CC-PVTZ
    Blend: AUG-CC-PVTZ
  Basis Set: (AUG-CC-PVTZ AUX)
    Blend: AUG-CC-PVTZ-JKFIT

    Orbital Energies [Eh]
    ---------------------

    Doubly Occupied:

       1A    -20.542210     2A    -11.268292     3A    -11.244581
       4A    -11.225395     5A    -11.224743     6A     -1.360248
       7A     -1.060921     8A     -1.002891     9A     -0.830313
      10A     -0.806596    11A     -0.690612    12A     -0.674006
      13A     -0.601768    14A     -0.587391    15A     -0.557727
      16A     -0.503090    17A     -0.497618    18A     -0.478184
      19A     -0.464714    20A     -0.409400

  @DF-RHF Final Energy:  -231.02796907331091

   => Energetics <=

    Nuclear Repulsion Energy =            191.8615570283076011
    One-Electron Energy =                -693.7176490151598500
    Two-Electron Energy =                 270.8281229135412786
    Total Energy =                       -231.0279690733109419
  Basis Set: (AUG-CC-PVTZ AUX)
    Blend: AUG-CC-PVTZ-RI
    Molecular point group: c1

    Geometry (in Angstrom), charge = 0, multiplicity = 1:

       Center              X                  Y                   Z               Mass
    ------------   -----------------  -----------------  -----------------  -----------------
         O           -0.002018958577     1.209208068992     0.001631139482    15.994914619570
         C           -0.726275958577    -1.031751931008     0.243894139482    12.000000000000
         C            0.722251041423    -1.031742931008    -0.240612860518    12.000000000000
         C           -1.165756958577     0.378091068992    -0.137158860518    12.000000000000
         C            1.161718041423     0.378096068992     0.140464139482    12.000000000000
         H           -1.344474958577    -1.808277931008    -0.215205860518     1.007825032230
         H           -0.761166958577    -1.161132931008     1.330702139482     1.007825032230
         H            1.340454041423    -1.808271931008     0.218474139482     1.007825032230
         H            0.757143041423    -1.161104931008    -1.327423860518     1.007825032230
         H           -1.515744958577     0.413420068992    -1.178293860518     1.007825032230
         H           -1.810680258577     0.706674068992     0.388411639482     1.007825032230
         H            1.511669041423     0.413415068992     1.181611139482     1.007825032230
         H            1.950858041423     0.780158068992    -0.502587860518     1.007825032230

  Basis Set: AUG-CC-PVTZ
    Blend: AUG-CC-PVTZ
  Basis Set: (AUG-CC-PVTZ AUX)
    Blend: AUG-CC-PVTZ-JKFIT
	 Reference Energy          =    -231.0279690733109135 [Eh]
	 Singles Energy            =      -0.0000000000000000 [Eh]
	 Same-Spin Energy          =      -0.2325483576897292 [Eh]
	 Opposite-Spin Energy      =      -0.7949055217104994 [Eh]
	 Correlation Energy        =      -1.0274538794002286 [Eh]
	 Total Energy              =    -232.0554229527111545 [Eh]

	 ================> DF-SCS-MP2 Energies <==================
	-----------------------------------------------------------
	 SCS Same-Spin Scale       =       0.3333333333333333 [-]
	 SCS Opposite-Spin Scale   =       1.2000000000000000 [-]
	 SCS Same-Spin Energy      =      -0.0775161192299097 [Eh]
	 SCS Opposite-Spin Energy  =      -0.9538866260525993 [Eh]
	 SCS Correlation Energy    =      -1.0314027452825090 [Eh]
	 SCS Total Energy          =    -232.0593718185934335 [Eh]
	-----------------------------------------------------------

  Dipole Moment: [D]
     X:    -0.1070      Y:    -1.8555      Z:     0.0262     Total:     1.8587

*** Psi4 exiting successfully. Buy a developer a beer!
