                               Psi4 1.3.2 release

  ==> Input File <==

--------------------------------------------------------------------------
#psi4
#
memory 32 gb

molecule  {
0 1
  O       -0.0000020     1.2522540    -0.0000130
  C       -0.6843703    -1.1125759     0.3351247
  C        0.7242680    -0.9886970    -0.2422570
  C       -1.1637400     0.4211370    -0.1388030
  C        1.1637350     0.4211420     0.1388200
  H       -1.3424580    -1.7652320    -0.2168500
  H       -0.7591500    -1.1180870     1.3290580
  H        1.3424710    -1.7652260     0.2168300
  H        0.7591600    -1.1180590    -1.3290680
  H       -1.5137280     0.4564660    -1.1799380
  H       -1.9528620     0.8231880     0.5042800
  H        1.5136860     0.4564610     1.1799670
  H        1.9528750     0.8232040    -0.5042320
units angstrom
no_reorient  #important for SAPT in psi4, default
symmetry c1  #important for SAPT in psi4, default
}

set PROPERTIES_ORIGIN ["COM"]
properties('MP2/aug-cc-pvtz', properties = ['dipole'])
--------------------------------------------------------------------------

    Molecular point group: c1
  Charge       = 0
  Multiplicity = 1
  Basis Set: AUG-CC-PVTZ
    Blend: AUG-CC-PVTZ
  Basis Set: (AUG-CC-PVTZ AUX)
    Blend: AUG-CC-PVTZ-JKFIT

    Orbital Energies [Eh]
    ---------------------

    Doubly Occupied:

       1A    -20.544717     2A    -11.274192     3A    -11.270331
       4A    -11.227653     5A    -11.225069     6A     -1.357804
       7A     -1.056629     8A     -0.977051     9A     -0.822274
      10A     -0.802915    11A     -0.681289    12A     -0.660754
      13A     -0.604920    14A     -0.585350    15A     -0.564800
      16A     -0.503393    17A     -0.500912    18A     -0.480812
      19A     -0.432663    20A     -0.405566

  @DF-RHF Final Energy:  -231.03885371315471

   => Energetics <=

    Nuclear Repulsion Energy =            189.1369880101381113
    One-Electron Energy =                -688.3934928949043979
    Two-Electron Energy =                 268.2176511716115783
    Total Energy =                       -231.0388537131547082
  Basis Set: (AUG-CC-PVTZ AUX)
    Blend: AUG-CC-PVTZ-RI
    Molecular point group: c1

    Geometry (in Angstrom), charge = 0, multiplicity = 1:

       Center              X                  Y                   Z               Mass
    ------------   -----------------  -----------------  -----------------  -----------------
         O           -0.006644948540     1.228809021272    -0.015479198575    15.994914619570
         C           -0.691013248540    -1.136020878728     0.319658501425    12.000000000000
         C            0.717625051460    -1.012141978728    -0.257723198575    12.000000000000
         C           -1.170382948540     0.397692021272    -0.154269198575    12.000000000000
         C            1.157092051460     0.397697021272     0.123353801425    12.000000000000
         H           -1.349100948540    -1.788676978728    -0.232316198575     1.007825032230
         H           -0.765792948540    -1.141531978728     1.313591801425     1.007825032230
         H            1.335828051460    -1.788670978728     0.201363801425     1.007825032230
         H            0.752517051460    -1.141503978728    -1.344534198575     1.007825032230
         H           -1.520370948540     0.433021021272    -1.195404198575     1.007825032230
         H           -1.959504948540     0.799743021272     0.488813801425     1.007825032230
         H            1.507043051460     0.433016021272     1.164500801425     1.007825032230
         H            1.946232051460     0.799759021272    -0.519698198575     1.007825032230

  Basis Set: AUG-CC-PVTZ
    Blend: AUG-CC-PVTZ
  Basis Set: (AUG-CC-PVTZ AUX)
    Blend: AUG-CC-PVTZ-JKFIT
	 Reference Energy          =    -231.0388537131547082 [Eh]
	 Singles Energy            =      -0.0000000000000000 [Eh]
	 Same-Spin Energy          =      -0.2327868856121653 [Eh]
	 Opposite-Spin Energy      =      -0.7969324657287689 [Eh]
	 Correlation Energy        =      -1.0297193513409342 [Eh]
	 Total Energy              =    -232.0685730644956379 [Eh]

	 ================> DF-SCS-MP2 Energies <==================
	-----------------------------------------------------------
	 SCS Same-Spin Scale       =       0.3333333333333333 [-]
	 SCS Opposite-Spin Scale   =       1.2000000000000000 [-]
	 SCS Same-Spin Energy      =      -0.0775956285373884 [Eh]
	 SCS Opposite-Spin Energy  =      -0.9563189588745226 [Eh]
	 SCS Correlation Energy    =      -1.0339145874119109 [Eh]
	 SCS Total Energy          =    -232.0727683005666222 [Eh]
	-----------------------------------------------------------

  Dipole Moment: [D]
     X:     0.0094      Y:    -1.8093      Z:     0.0057     Total:     1.8094

*** Psi4 exiting successfully. Buy a developer a beer!
