                               Psi4 1.3.2 release

  ==> Input File <==

--------------------------------------------------------------------------
#psi4
#
memory 32 gb

molecule  {
0 1
  O       -0.0000020     1.2522540    -0.0000130
  C       -0.7242590    -0.9887060     0.2422500
  C        0.7242680    -0.9886970    -0.2422570
  C       -1.1637400     0.4211370    -0.1388030
  C        1.1637350     0.4211420     0.1388200
  H       -1.3424580    -1.7652320    -0.2168500
  H       -0.7591500    -1.1180870     1.3290580
  H        1.3424710    -1.7652260     0.2168300
  H        0.7591600    -1.1180590    -1.3290680
  H       -1.5137280     0.4564660    -1.1799380
  H       -2.0249613     0.8599220     0.5630363
  H        1.5136860     0.4564610     1.1799670
  H        1.9528750     0.8232040    -0.5042320
units angstrom
no_reorient  #important for SAPT in psi4, default
symmetry c1  #important for SAPT in psi4, default
}

set PROPERTIES_ORIGIN ["COM"]
properties('MP2/aug-cc-pvtz', properties = ['dipole'])
--------------------------------------------------------------------------

    Molecular point group: c1
  Charge       = 0
  Multiplicity = 1
  Basis Set: AUG-CC-PVTZ
    Blend: AUG-CC-PVTZ
  Basis Set: (AUG-CC-PVTZ AUX)
    Blend: AUG-CC-PVTZ-JKFIT

    Orbital Energies [Eh]
    ---------------------

    Doubly Occupied:

       1A    -20.546482     2A    -11.281746     3A    -11.270744
       4A    -11.227706     5A    -11.227062     6A     -1.362674
       7A     -1.062376     8A     -0.985753     9A     -0.808718
      10A     -0.802199    11A     -0.681569    12A     -0.668803
      13A     -0.590026    14A     -0.582419    15A     -0.556984
      16A     -0.504256    17A     -0.491857    18A     -0.475593
      19A     -0.462882    20A     -0.406713

  @DF-RHF Final Energy:  -231.05434509907775

   => Energetics <=

    Nuclear Repulsion Energy =            190.3220470170930128
    One-Electron Energy =                -690.7596625262899579
    Two-Electron Energy =                 269.3832704101191666
    Total Energy =                       -231.0543450990777501
  Basis Set: (AUG-CC-PVTZ AUX)
    Blend: AUG-CC-PVTZ-RI
    Molecular point group: c1

    Geometry (in Angstrom), charge = 0, multiplicity = 1:

       Center              X                  Y                   Z               Mass
    ------------   -----------------  -----------------  -----------------  -----------------
         O            0.001006271188     1.207666740035    -0.000834225988    15.994914619570
         C           -0.723250728812    -1.033293259965     0.241428774012    12.000000000000
         C            0.725276271188    -1.033284259965    -0.243078225988    12.000000000000
         C           -1.162731728812     0.376549740035    -0.139624225988    12.000000000000
         C            1.164743271188     0.376554740035     0.137998774012    12.000000000000
         H           -1.341449728812    -1.809819259965    -0.217671225988     1.007825032230
         H           -0.758141728812    -1.162674259965     1.328236774012     1.007825032230
         H            1.343479271188    -1.809813259965     0.216008774012     1.007825032230
         H            0.760168271188    -1.162646259965    -1.329889225988     1.007825032230
         H           -1.512719728812     0.411878740035    -1.180759225988     1.007825032230
         H           -2.023953028812     0.815334740035     0.562215074012     1.007825032230
         H            1.514694271188     0.411873740035     1.179145774012     1.007825032230
         H            1.953883271188     0.778616740035    -0.505053225988     1.007825032230

  Basis Set: AUG-CC-PVTZ
    Blend: AUG-CC-PVTZ
  Basis Set: (AUG-CC-PVTZ AUX)
    Blend: AUG-CC-PVTZ-JKFIT
	 Reference Energy          =    -231.0543450990777501 [Eh]
	 Singles Energy            =      -0.0000000000000000 [Eh]
	 Same-Spin Energy          =      -0.2326671161263376 [Eh]
	 Opposite-Spin Energy      =      -0.7964534325029253 [Eh]
	 Correlation Energy        =      -1.0291205486292629 [Eh]
	 Total Energy              =    -232.0834656477070155 [Eh]

	 ================> DF-SCS-MP2 Energies <==================
	-----------------------------------------------------------
	 SCS Same-Spin Scale       =       0.3333333333333333 [-]
	 SCS Opposite-Spin Scale   =       1.2000000000000000 [-]
	 SCS Same-Spin Energy      =      -0.0775557053754459 [Eh]
	 SCS Opposite-Spin Energy  =      -0.9557441190035103 [Eh]
	 SCS Correlation Energy    =      -1.0332998243789562 [Eh]
	 SCS Total Energy          =    -232.0876449234567076 [Eh]
	-----------------------------------------------------------

  Dipole Moment: [D]
     X:     0.0879      Y:    -1.9076      Z:    -0.0295     Total:     1.9099

*** Psi4 exiting successfully. Buy a developer a beer!
