                               Psi4 1.3.2 release

  ==> Input File <==

--------------------------------------------------------------------------
#psi4
#
memory 32 gb

molecule  {
0 1
  O       -0.0000020     1.2522540    -0.0000130
  C       -0.7242590    -0.9887060     0.2422500
  C        0.7242680    -0.9886970    -0.2422570
  C       -1.1637400     0.4211370    -0.1388030
  C        1.1637350     0.4211420     0.1388200
  H       -1.3424580    -1.7652320    -0.2168500
  H       -0.7591500    -1.1180870     1.3290580
  H        1.3336589    -1.7510163     0.2511446
  H        0.7591600    -1.1180590    -1.3290680
  H       -1.5137280     0.4564660    -1.1799380
  H       -1.9528620     0.8231880     0.5042800
  H        1.5136860     0.4564610     1.1799670
  H        1.9528750     0.8232040    -0.5042320
units angstrom
no_reorient  #important for SAPT in psi4, default
symmetry c1  #important for SAPT in psi4, default
}

set PROPERTIES_ORIGIN ["COM"]
properties('MP2/aug-cc-pvtz', properties = ['dipole'])
--------------------------------------------------------------------------

    Molecular point group: c1
  Charge       = 0
  Multiplicity = 1
  Basis Set: AUG-CC-PVTZ
    Blend: AUG-CC-PVTZ
  Basis Set: (AUG-CC-PVTZ AUX)
    Blend: AUG-CC-PVTZ-JKFIT

    Orbital Energies [Eh]
    ---------------------

    Doubly Occupied:

       1A    -20.544340     2A    -11.269479     3A    -11.269425
       4A    -11.226555     5A    -11.225897     6A     -1.361174
       7A     -1.061656     8A     -0.988934     9A     -0.808629
      10A     -0.806773    11A     -0.683148    12A     -0.670617
      13A     -0.589694    14A     -0.588316    15A     -0.558028
      16A     -0.502489    17A     -0.492447    18A     -0.477597
      19A     -0.464147    20A     -0.407775

  @DF-RHF Final Energy:  -231.06096056280205

   => Energetics <=

    Nuclear Repulsion Energy =            190.8002115794066924
    One-Electron Energy =                -691.7281068714981984
    Two-Electron Energy =                 269.8669347292894827
    Total Energy =                       -231.0609605628020518
  Basis Set: (AUG-CC-PVTZ AUX)
    Blend: AUG-CC-PVTZ-RI
    Molecular point group: c1

    Geometry (in Angstrom), charge = 0, multiplicity = 1:

       Center              X                  Y                   Z               Mass
    ------------   -----------------  -----------------  -----------------  -----------------
         O            0.000121111264     1.207981773844    -0.000492374661    15.994914619570
         C           -0.724135888736    -1.032978226156     0.241770625339    12.000000000000
         C            0.724391111264    -1.032969226156    -0.242736374661    12.000000000000
         C           -1.163616888736     0.376864773844    -0.139282374661    12.000000000000
         C            1.163858111264     0.376869773844     0.138340625339    12.000000000000
         H           -1.342334888736    -1.809504226156    -0.217329374661     1.007825032230
         H           -0.759026888736    -1.162359226156     1.328578625339     1.007825032230
         H            1.333782011264    -1.795288526156     0.250665225339     1.007825032230
         H            0.759283111264    -1.162331226156    -1.329547374661     1.007825032230
         H           -1.513604888736     0.412193773844    -1.180417374661     1.007825032230
         H           -1.952738888736     0.778915773844     0.503800625339     1.007825032230
         H            1.513809111264     0.412188773844     1.179487625339     1.007825032230
         H            1.952998111264     0.778931773844    -0.504711374661     1.007825032230

  Basis Set: AUG-CC-PVTZ
    Blend: AUG-CC-PVTZ
  Basis Set: (AUG-CC-PVTZ AUX)
    Blend: AUG-CC-PVTZ-JKFIT
	 Reference Energy          =    -231.0609605628020518 [Eh]
	 Singles Energy            =      -0.0000000000000000 [Eh]
	 Same-Spin Energy          =      -0.2326042482771006 [Eh]
	 Opposite-Spin Energy      =      -0.7957123510153028 [Eh]
	 Correlation Energy        =      -1.0283165992924035 [Eh]
	 Total Energy              =    -232.0892771620944472 [Eh]

	 ================> DF-SCS-MP2 Energies <==================
	-----------------------------------------------------------
	 SCS Same-Spin Scale       =       0.3333333333333333 [-]
	 SCS Opposite-Spin Scale   =       1.2000000000000000 [-]
	 SCS Same-Spin Energy      =      -0.0775347494257002 [Eh]
	 SCS Opposite-Spin Energy  =      -0.9548548212183633 [Eh]
	 SCS Correlation Energy    =      -1.0323895706440636 [Eh]
	 SCS Total Energy          =    -232.0933501334461084 [Eh]
	-----------------------------------------------------------

  Dipole Moment: [D]
     X:    -0.0027      Y:    -1.8771      Z:     0.0081     Total:     1.8771

*** Psi4 exiting successfully. Buy a developer a beer!
