                               Psi4 1.3.2 release

  ==> Input File <==

--------------------------------------------------------------------------
#psi4
#
memory 32 gb

molecule  {
0 1
  O       -0.0000020     1.2522540    -0.0000130
  C       -0.7242590    -0.9887060     0.2422500
  C        0.7242680    -0.9886970    -0.2422570
  C       -1.1779656     0.4417175    -0.1405004
  C        1.1637350     0.4211420     0.1388200
  H       -1.3424580    -1.7652320    -0.2168500
  H       -0.7591500    -1.1180870     1.3290580
  H        1.3424710    -1.7652260     0.2168300
  H        0.7591600    -1.1180590    -1.3290680
  H       -1.5137280     0.4564660    -1.1799380
  H       -1.9528620     0.8231880     0.5042800
  H        1.5136860     0.4564610     1.1799670
  H        1.9528750     0.8232040    -0.5042320
units angstrom
no_reorient  #important for SAPT in psi4, default
symmetry c1  #important for SAPT in psi4, default
}

set PROPERTIES_ORIGIN ["COM"]
properties('MP2/aug-cc-pvtz', properties = ['dipole'])
--------------------------------------------------------------------------

    Molecular point group: c1
  Charge       = 0
  Multiplicity = 1
  Basis Set: AUG-CC-PVTZ
    Blend: AUG-CC-PVTZ
  Basis Set: (AUG-CC-PVTZ AUX)
    Blend: AUG-CC-PVTZ-JKFIT

    Orbital Energies [Eh]
    ---------------------

    Doubly Occupied:

       1A    -20.543951     2A    -11.269756     3A    -11.269215
       4A    -11.226910     5A    -11.225817     6A     -1.360130
       7A     -1.058340     8A     -0.988320     9A     -0.810933
      10A     -0.806382    11A     -0.682108    12A     -0.669432
      13A     -0.591539    14A     -0.588198    15A     -0.558831
      16A     -0.503159    17A     -0.491181    18A     -0.477357
      19A     -0.460339    20A     -0.408858

  @DF-RHF Final Energy:  -231.06085173968853

   => Energetics <=

    Nuclear Repulsion Energy =            190.4649069185055055
    One-Electron Energy =                -691.0700059308967411
    Two-Electron Energy =                 269.5442472727027052
    Total Energy =                       -231.0608517396885304
  Basis Set: (AUG-CC-PVTZ AUX)
    Blend: AUG-CC-PVTZ-RI
    Molecular point group: c1

    Geometry (in Angstrom), charge = 0, multiplicity = 1:

       Center              X                  Y                   Z               Mass
    ------------   -----------------  -----------------  -----------------  -----------------
         O            0.002366902634     1.204753170845     0.000270237163    15.994914619570
         C           -0.721890097366    -1.036206829155     0.242533237163    12.000000000000
         C            0.726636902634    -1.036197829155    -0.241973762837    12.000000000000
         C           -1.175596697366     0.394216670845    -0.140217162837    12.000000000000
         C            1.166103902634     0.373641170845     0.139103237163    12.000000000000
         H           -1.340089097366    -1.812732829155    -0.216566762837     1.007825032230
         H           -0.756781097366    -1.165587829155     1.329341237163     1.007825032230
         H            1.344839902634    -1.812726829155     0.217113237163     1.007825032230
         H            0.761528902634    -1.165559829155    -1.328784762837     1.007825032230
         H           -1.511359097366     0.408965170845    -1.179654762837     1.007825032230
         H           -1.950493097366     0.775687170845     0.504563237163     1.007825032230
         H            1.516054902634     0.408960170845     1.180250237163     1.007825032230
         H            1.955243902634     0.775703170845    -0.503948762837     1.007825032230

  Basis Set: AUG-CC-PVTZ
    Blend: AUG-CC-PVTZ
  Basis Set: (AUG-CC-PVTZ AUX)
    Blend: AUG-CC-PVTZ-JKFIT
	 Reference Energy          =    -231.0608517396885304 [Eh]
	 Singles Energy            =      -0.0000000000000000 [Eh]
	 Same-Spin Energy          =      -0.2323996062877127 [Eh]
	 Opposite-Spin Energy      =      -0.7954777956794027 [Eh]
	 Correlation Energy        =      -1.0278774019671153 [Eh]
	 Total Energy              =    -232.0887291416556479 [Eh]

	 ================> DF-SCS-MP2 Energies <==================
	-----------------------------------------------------------
	 SCS Same-Spin Scale       =       0.3333333333333333 [-]
	 SCS Opposite-Spin Scale   =       1.2000000000000000 [-]
	 SCS Same-Spin Energy      =      -0.0774665354292376 [Eh]
	 SCS Opposite-Spin Energy  =      -0.9545733548152832 [Eh]
	 SCS Correlation Energy    =      -1.0320398902445207 [Eh]
	 SCS Total Energy          =    -232.0928916299330638 [Eh]
	-----------------------------------------------------------

  Dipole Moment: [D]
     X:    -0.0213      Y:    -1.8533      Z:    -0.0024     Total:     1.8534

*** Psi4 exiting successfully. Buy a developer a beer!
