                               Psi4 1.4a3.dev225

  ==> Input File <==

--------------------------------------------------------------------------
#psi4
#
memory 32 gb

molecule  {
0 1
  O        0.0000050    -1.2522320    -0.0000130
  C        0.7242410     0.9886740     0.2423340
  C       -0.7242550     0.9886620    -0.2423410
  C        1.1232689    -0.4500083    -0.1340321
  C       -1.1637580    -0.4210950     0.1388810
  H        1.3425610     1.7653610    -0.2163320
  H        0.7589520     1.1177070     1.3292070
  H       -1.3425830     1.7653500     0.2163130
  H       -0.7589690     1.1176750    -1.3292170
  H        1.5136340    -0.4563640    -1.1800500
  H        1.9530090    -0.8232070     0.5040550
  H       -1.5135900    -0.4563680     1.1800790
  H       -1.9530190    -0.8232310    -0.5040080
units angstrom
no_reorient  #important for SAPT in psi4, default
symmetry c1  #important for SAPT in psi4, default
}

set PROPERTIES_ORIGIN ["COM"]
properties('MP2/aug-cc-pvtz', properties = ['dipole'])
--------------------------------------------------------------------------

    Molecular point group: c1
  Charge       = 0
  Multiplicity = 1
  Basis Set: AUG-CC-PVTZ
    Blend: AUG-CC-PVTZ
  Basis Set: (AUG-CC-PVTZ AUX)
    Blend: AUG-CC-PVTZ-JKFIT

    Orbital Energies [Eh]
    ---------------------

    Doubly Occupied:

       1A    -20.549000     2A    -11.272692     3A    -11.270167
       4A    -11.226587     5A    -11.225404     6A     -1.379799
       7A     -1.061652     8A     -0.988894     9A     -0.810803
      10A     -0.804767    11A     -0.685406    12A     -0.676396
      13A     -0.598041    14A     -0.583763    15A     -0.564018
      16A     -0.508362    17A     -0.491303    18A     -0.475485
      19A     -0.459904    20A     -0.405276

  @DF-RHF Final Energy:  -231.05975859885211

   => Energetics <=

    Nuclear Repulsion Energy =            191.4010822759774442
    One-Electron Energy =                -692.8462452972494248
    Two-Electron Energy =                 270.3854044224198674
    Total Energy =                       -231.0597585988521132
  Basis Set: (AUG-CC-PVTZ AUX)
    Blend: AUG-CC-PVTZ-RI
    Molecular point group: c1

    Geometry (in Angstrom), charge = 0, multiplicity = 1:

       Center              X                  Y                   Z               Mass
    ------------   -----------------  -----------------  -----------------  -----------------
         O            0.006749088599    -1.203346963456    -0.000817110910    15.994914619570
         C            0.730985088599     1.037559036544     0.241529889090    12.000000000000
         C           -0.717510911401     1.037547036544    -0.243145110910    12.000000000000
         C            1.130012988599    -0.401123263456    -0.134836210910    12.000000000000
         C           -1.157013911401    -0.372209963456     0.138076889090    12.000000000000
         H            1.349305088599     1.814246036544    -0.217136110910     1.007825032230
         H            0.765696088599     1.166592036544     1.328402889090     1.007825032230
         H           -1.335838911401     1.814235036544     0.215508889090     1.007825032230
         H           -0.752224911401     1.166560036544    -1.330021110910     1.007825032230
         H            1.520378088599    -0.407478963456    -1.180854110910     1.007825032230
         H            1.959753088599    -0.774321963456     0.503250889090     1.007825032230
         H           -1.506845911401    -0.407482963456     1.179274889090     1.007825032230
         H           -1.946274911401    -0.774345963456    -0.504812110910     1.007825032230

  Basis Set: AUG-CC-PVTZ
    Blend: AUG-CC-PVTZ
  Basis Set: (AUG-CC-PVTZ AUX)
    Blend: AUG-CC-PVTZ-JKFIT
	 Reference Energy          =    -231.0597585988521132 [Eh]
	 Singles Energy            =      -0.0000000000000000 [Eh]
	 Same-Spin Energy          =      -0.2325249374088290 [Eh]
	 Opposite-Spin Energy      =      -0.7950206867142671 [Eh]
	 Correlation Energy        =      -1.0275456241230960 [Eh]
	 Total Energy              =    -232.0873042229752059 [Eh]

	 ================> DF-SCS-MP2 Energies <==================
	-----------------------------------------------------------
	 SCS Same-Spin Scale       =       0.3333333333333333 [-]
	 SCS Opposite-Spin Scale   =       1.2000000000000000 [-]
	 SCS Same-Spin Energy      =      -0.0775083124696097 [Eh]
	 SCS Opposite-Spin Energy  =      -0.9540248240571204 [Eh]
	 SCS Correlation Energy    =      -1.0315331365267302 [Eh]
	 SCS Total Energy          =    -232.0912917353788316 [Eh]
	-----------------------------------------------------------

  Dipole Moment: [D]
     X:    -0.1661      Y:     1.8092      Z:     0.0336     Total:     1.8171

*** Psi4 exiting successfully. Buy a developer a beer!
