                               Psi4 1.3.2 release

  ==> Input File <==

--------------------------------------------------------------------------
#psi4
#
memory 32 gb

molecule  {
0 1
  O       -0.0000020     1.2522540    -0.0000130
  C       -0.7420545    -0.9060420     0.1773191
  C        0.7242680    -0.9886970    -0.2422570
  C       -1.1637400     0.4211370    -0.1388030
  C        1.1637350     0.4211420     0.1388200
  H       -1.3424580    -1.7652320    -0.2168500
  H       -0.7591500    -1.1180870     1.3290580
  H        1.3424710    -1.7652260     0.2168300
  H        0.7591600    -1.1180590    -1.3290680
  H       -1.5137280     0.4564660    -1.1799380
  H       -1.9528620     0.8231880     0.5042800
  H        1.5136860     0.4564610     1.1799670
  H        1.9528750     0.8232040    -0.5042320
units angstrom
no_reorient  #important for SAPT in psi4, default
symmetry c1  #important for SAPT in psi4, default
}

set PROPERTIES_ORIGIN ["COM"]
properties('MP2/aug-cc-pvtz', properties = ['dipole'])
--------------------------------------------------------------------------

    Molecular point group: c1
  Charge       = 0
  Multiplicity = 1
  Basis Set: AUG-CC-PVTZ
    Blend: AUG-CC-PVTZ
  Basis Set: (AUG-CC-PVTZ AUX)
    Blend: AUG-CC-PVTZ-JKFIT

    Orbital Energies [Eh]
    ---------------------

    Doubly Occupied:

       1A    -20.545080     2A    -11.269610     3A    -11.265775
       4A    -11.230814     5A    -11.227264     6A     -1.365204
       7A     -1.068779     8A     -0.999582     9A     -0.814202
      10A     -0.797815    11A     -0.685185    12A     -0.678855
      13A     -0.592014    14A     -0.583691    15A     -0.552726
      16A     -0.519214    17A     -0.496892    18A     -0.469617
      19A     -0.454520    20A     -0.407578

  @DF-RHF Final Energy:  -231.04821697715050

   => Energetics <=

    Nuclear Repulsion Energy =            191.9794657925814647
    One-Electron Energy =                -694.0065311870544065
    Two-Electron Energy =                 270.9788484173224674
    Total Energy =                       -231.0482169771505028
  Basis Set: (AUG-CC-PVTZ AUX)
    Blend: AUG-CC-PVTZ-RI
    Molecular point group: c1

    Geometry (in Angstrom), charge = 0, multiplicity = 1:

       Center              X                  Y                   Z               Mass
    ------------   -----------------  -----------------  -----------------  -----------------
         O            0.002961411063     1.194414179815     0.010800741876    15.994914619570
         C           -0.739091088937    -0.963881820185     0.188132841876    12.000000000000
         C            0.727231411063    -1.046536820185    -0.231443258124    12.000000000000
         C           -1.160776588937     0.363297179815    -0.127989258124    12.000000000000
         C            1.166698411063     0.363302179815     0.149633741876    12.000000000000
         H           -1.339494588937    -1.823071820185    -0.206036258124     1.007825032230
         H           -0.756186588937    -1.175926820185     1.339871741876     1.007825032230
         H            1.345434411063    -1.823065820185     0.227643741876     1.007825032230
         H            0.762123411063    -1.175898820185    -1.318254258124     1.007825032230
         H           -1.510764588937     0.398626179815    -1.169124258124     1.007825032230
         H           -1.949898588937     0.765348179815     0.515093741876     1.007825032230
         H            1.516649411063     0.398621179815     1.190780741876     1.007825032230
         H            1.955838411063     0.765364179815    -0.493418258124     1.007825032230

  Basis Set: AUG-CC-PVTZ
    Blend: AUG-CC-PVTZ
  Basis Set: (AUG-CC-PVTZ AUX)
    Blend: AUG-CC-PVTZ-JKFIT
	 Reference Energy          =    -231.0482169771505028 [Eh]
	 Singles Energy            =      -0.0000000000000000 [Eh]
	 Same-Spin Energy          =      -0.2334347452141677 [Eh]
	 Opposite-Spin Energy      =      -0.7966824467071754 [Eh]
	 Correlation Energy        =      -1.0301171919213430 [Eh]
	 Total Energy              =    -232.0783341690718373 [Eh]

	 ================> DF-SCS-MP2 Energies <==================
	-----------------------------------------------------------
	 SCS Same-Spin Scale       =       0.3333333333333333 [-]
	 SCS Opposite-Spin Scale   =       1.2000000000000000 [-]
	 SCS Same-Spin Energy      =      -0.0778115817380559 [Eh]
	 SCS Opposite-Spin Energy  =      -0.9560189360486104 [Eh]
	 SCS Correlation Energy    =      -1.0338305177866662 [Eh]
	 SCS Total Energy          =    -232.0820474949371715 [Eh]
	-----------------------------------------------------------

  Dipole Moment: [D]
     X:     0.0101      Y:    -1.8993      Z:    -0.0340     Total:     1.8997

*** Psi4 exiting successfully. Buy a developer a beer!
