                               Psi4 1.4a3.dev225

  ==> Input File <==

--------------------------------------------------------------------------
#psi4
#
memory 32 gb

molecule  {
0 1
  N        0.0678190     0.9536280     0.3022870
  N        2.3787710     0.9561460     0.2207080
  C       -1.1991060     0.3426720     0.1363540
  C        1.2435610     0.2442270     0.0818760
  C        0.1402100     2.4122570     0.3330790
  C       -1.5868590    -0.6993050     0.9921800
  C       -2.0897480     0.7954790    -0.8469150
  C        1.2497210    -1.1235430    -0.2722420
  C       -2.8402720    -1.2929990     0.8487880
  C       -3.3529590     0.2138150    -0.9676140
  C       -3.7300960    -0.8357430    -0.1274420
  C        2.4727450    -1.7522840    -0.4525030
  C        3.5662561     0.3076900     0.0377966
  C        3.6581100    -1.0291840    -0.2852360
  H        0.8914220     2.7227450     1.0594170
  H       -0.8398030     2.7868350     0.6320060
  H        0.4165240     2.8365740    -0.6404330
  H       -0.9028320    -1.0219250     1.7735780
  H       -1.7862700     1.5949720    -1.5186410
  H        0.3236690    -1.6661200    -0.4241870
  H       -3.1324200    -2.0992380     1.5176810
  H       -4.0389250     0.5738560    -1.7308950
  H       -4.7117870    -1.2913710    -0.2288330
  H        2.5003580    -2.8034100    -0.7313100
  H        4.4376410     0.9347650     0.1641390
  H        4.6312890    -1.4915970    -0.4182900
units angstrom
no_reorient  #important for SAPT in psi4, default
symmetry c1  #important for SAPT in psi4, default
}

set PROPERTIES_ORIGIN ["COM"]
properties('MP2/aug-cc-pvtz', properties = ['dipole'])
--------------------------------------------------------------------------

    Molecular point group: c1
  Charge       = 0
  Multiplicity = 1
  Basis Set: AUG-CC-PVTZ
    Blend: AUG-CC-PVTZ
  Basis Set: (AUG-CC-PVTZ AUX)
    Blend: AUG-CC-PVTZ-JKFIT

    Orbital Energies [Eh]
    ---------------------

    Doubly Occupied:

       1A    -15.578770     2A    -15.548917     3A    -11.316713
       4A    -11.280201     5A    -11.271883     6A    -11.255676
       7A    -11.249303     8A    -11.243720     9A    -11.243411
      10A    -11.239238    11A    -11.238248    12A    -11.237821
      13A    -11.228473    14A    -11.222559    15A     -1.293085
      16A     -1.216418    17A     -1.143727    18A     -1.078549
      19A     -1.029067    20A     -1.020464    21A     -1.005323
      22A     -0.927301    23A     -0.859073    24A     -0.844363
      25A     -0.833297    26A     -0.791319    27A     -0.730479
      28A     -0.693487    29A     -0.668487    30A     -0.658183
      31A     -0.647765    32A     -0.628678    33A     -0.616371
      34A     -0.602376    35A     -0.591220    36A     -0.584402
      37A     -0.568277    38A     -0.538675    39A     -0.533838
      40A     -0.527544    41A     -0.510956    42A     -0.504752
      43A     -0.501053    44A     -0.430027    45A     -0.413866
      46A     -0.374751    47A     -0.344249    48A     -0.339671
      49A     -0.289839

  @DF-RHF Final Energy:  -570.48314956575973

   => Energetics <=

    Nuclear Repulsion Energy =            819.4626684143312332
    One-Electron Energy =               -2398.8999045213436148
    Two-Electron Energy =                1008.9540865412525363
    Total Energy =                       -570.4831495657597316
  Basis Set: (AUG-CC-PVTZ AUX)
    Blend: AUG-CC-PVTZ-RI
    Molecular point group: c1

    Geometry (in Angstrom), charge = 0, multiplicity = 1:

       Center              X                  Y                   Z               Mass
    ------------   -----------------  -----------------  -----------------  -----------------
         N            0.054727738728     0.960014760617     0.299511562181    14.003074004430
         N            2.365679738728     0.962532760617     0.217932562181    14.003074004430
         C           -1.212197261272     0.349058760617     0.133578562181    12.000000000000
         C            1.230469738728     0.250613760617     0.079100562181    12.000000000000
         C            0.127118738728     2.418643760617     0.330303562181    12.000000000000
         C           -1.599950261272    -0.692918239383     0.989404562181    12.000000000000
         C           -2.102839261272     0.801865760617    -0.849690437819    12.000000000000
         C            1.236629738728    -1.117156239383    -0.275017437819    12.000000000000
         C           -2.853363261272    -1.286612239383     0.846012562181    12.000000000000
         C           -3.366050261272     0.220201760617    -0.970389437819    12.000000000000
         C           -3.743187261272    -0.829356239383    -0.130217437819    12.000000000000
         C            2.459653738728    -1.745897239383    -0.455278437819    12.000000000000
         C            3.553164838728     0.314076760617     0.035021162181    12.000000000000
         C            3.645018738728    -1.022797239383    -0.288011437819    12.000000000000
         H            0.878330738728     2.729131760617     1.056641562181     1.007825032230
         H           -0.852894261272     2.793221760617     0.629230562181     1.007825032230
         H            0.403432738728     2.842960760617    -0.643208437819     1.007825032230
         H           -0.915923261272    -1.015538239383     1.770802562181     1.007825032230
         H           -1.799361261272     1.601358760617    -1.521416437819     1.007825032230
         H            0.310577738728    -1.659733239383    -0.426962437819     1.007825032230
         H           -3.145511261272    -2.092851239383     1.514905562181     1.007825032230
         H           -4.052016261272     0.580242760617    -1.733670437819     1.007825032230
         H           -4.724878261272    -1.284984239383    -0.231608437819     1.007825032230
         H            2.487266738728    -2.797023239383    -0.734085437819     1.007825032230
         H            4.424549738728     0.941151760617     0.161363562181     1.007825032230
         H            4.618197738728    -1.485210239383    -0.421065437819     1.007825032230

  Basis Set: AUG-CC-PVTZ
    Blend: AUG-CC-PVTZ
  Basis Set: (AUG-CC-PVTZ AUX)
    Blend: AUG-CC-PVTZ-JKFIT
	 Reference Energy          =    -570.4831495657597316 [Eh]
	 Singles Energy            =      -0.0000000000000000 [Eh]
	 Same-Spin Energy          =      -0.6371692927088795 [Eh]
	 Opposite-Spin Energy      =      -1.9743277121154954 [Eh]
	 Correlation Energy        =      -2.6114970048243746 [Eh]
	 Total Energy              =    -573.0946465705841320 [Eh]

	 ================> DF-SCS-MP2 Energies <==================
	-----------------------------------------------------------
	 SCS Same-Spin Scale       =       0.3333333333333333 [-]
	 SCS Opposite-Spin Scale   =       1.2000000000000000 [-]
	 SCS Same-Spin Energy      =      -0.2123897642362931 [Eh]
	 SCS Opposite-Spin Energy  =      -2.3691932545385943 [Eh]
	 SCS Correlation Energy    =      -2.5815830187748876 [Eh]
	 SCS Total Energy          =    -573.0647325845345676 [Eh]
	-----------------------------------------------------------

  Dipole Moment: [D]
     X:    -1.1783      Y:    -0.9259      Z:    -0.4466     Total:     1.5637

*** Psi4 exiting successfully. Buy a developer a beer!
