                               Psi4 1.3.2 release

  ==> Input File <==

--------------------------------------------------------------------------
#psi4
#
memory 32 gb

molecule  {
0 1
  N       -0.0032642     0.8301181     0.2725551
  N        2.3787710     0.9561460     0.2207080
  C       -1.1991060     0.3426720     0.1363540
  C        1.2435610     0.2442270     0.0818760
  C        0.1402100     2.4122570     0.3330790
  C       -1.5868590    -0.6993050     0.9921800
  C       -2.0897480     0.7954790    -0.8469150
  C        1.2497210    -1.1235430    -0.2722420
  C       -2.8402720    -1.2929990     0.8487880
  C       -3.3529590     0.2138150    -0.9676140
  C       -3.7300960    -0.8357430    -0.1274420
  C        2.4727450    -1.7522840    -0.4525030
  C        3.5488610     0.3171890     0.0404760
  C        3.6581100    -1.0291840    -0.2852360
  H        0.8914220     2.7227450     1.0594170
  H       -0.8398030     2.7868350     0.6320060
  H        0.4165240     2.8365740    -0.6404330
  H       -0.9028320    -1.0219250     1.7735780
  H       -1.7862700     1.5949720    -1.5186410
  H        0.3236690    -1.6661200    -0.4241870
  H       -3.1324200    -2.0992380     1.5176810
  H       -4.0389250     0.5738560    -1.7308950
  H       -4.7117870    -1.2913710    -0.2288330
  H        2.5003580    -2.8034100    -0.7313100
  H        4.4376410     0.9347650     0.1641390
  H        4.6312890    -1.4915970    -0.4182900
units angstrom
no_reorient  #important for SAPT in psi4, default
symmetry c1  #important for SAPT in psi4, default
}

set PROPERTIES_ORIGIN ["COM"]
properties('MP2/aug-cc-pvtz', properties = ['dipole'])
--------------------------------------------------------------------------

    Molecular point group: c1
  Charge       = 0
  Multiplicity = 1
  Basis Set: AUG-CC-PVTZ
    Blend: AUG-CC-PVTZ
  Basis Set: (AUG-CC-PVTZ AUX)
    Blend: AUG-CC-PVTZ-JKFIT

    Orbital Energies [Eh]
    ---------------------

    Doubly Occupied:

       1A    -15.579570     2A    -15.553620     3A    -11.321935
       4A    -11.274857     5A    -11.271407     6A    -11.262918
       7A    -11.254317     8A    -11.240515     9A    -11.239282
      10A    -11.233241    11A    -11.232650    12A    -11.230088
      13A    -11.225817    14A    -11.224139    15A     -1.303730
      16A     -1.232440    17A     -1.136859    18A     -1.079798
      19A     -1.034147    20A     -1.017660    21A     -0.991760
      22A     -0.932222    23A     -0.867816    24A     -0.849748
      25A     -0.833300    26A     -0.789338    27A     -0.737595
      28A     -0.688413    29A     -0.670045    30A     -0.663173
      31A     -0.651159    32A     -0.623749    33A     -0.614040
      34A     -0.600882    35A     -0.587121    36A     -0.577258
      37A     -0.571334    38A     -0.541355    39A     -0.536757
      40A     -0.525802    41A     -0.514250    42A     -0.507243
      43A     -0.491036    44A     -0.434164    45A     -0.414631
      46A     -0.378883    47A     -0.340707    48A     -0.335223
      49A     -0.283377

  @DF-RHF Final Energy:  -570.45750129387068

   => Energetics <=

    Nuclear Repulsion Energy =            821.1202020935896826
    One-Electron Energy =               -2402.1526607939731548
    Two-Electron Energy =                1010.5749574065126808
    Total Energy =                       -570.4575012938706777
  Basis Set: (AUG-CC-PVTZ AUX)
    Blend: AUG-CC-PVTZ-RI
    Molecular point group: c1

    Geometry (in Angstrom), charge = 0, multiplicity = 1:

       Center              X                  Y                   Z               Mass
    ------------   -----------------  -----------------  -----------------  -----------------
         N           -0.009814862719     0.845280144947     0.271866490508    14.003074004430
         N            2.372220337281     0.971308044947     0.220019390508    14.003074004430
         C           -1.205656662719     0.357834044947     0.135665390508    12.000000000000
         C            1.237010337281     0.259389044947     0.081187390508    12.000000000000
         C            0.133659337281     2.427419044947     0.332390390508    12.000000000000
         C           -1.593409662719    -0.684142955053     0.991491390508    12.000000000000
         C           -2.096298662719     0.810641044947    -0.847603609492    12.000000000000
         C            1.243170337281    -1.108380955053    -0.272930609492    12.000000000000
         C           -2.846822662719    -1.277836955053     0.848099390508    12.000000000000
         C           -3.359509662719     0.228977044947    -0.968302609492    12.000000000000
         C           -3.736646662719    -0.820580955053    -0.128130609492    12.000000000000
         C            2.466194337281    -1.737121955053    -0.453191609492    12.000000000000
         C            3.542310337281     0.332351044947     0.039787390508    12.000000000000
         C            3.651559337281    -1.014021955053    -0.285924609492    12.000000000000
         H            0.884871337281     2.737907044947     1.058728390508     1.007825032230
         H           -0.846353662719     2.801997044947     0.631317390508     1.007825032230
         H            0.409973337281     2.851736044947    -0.641121609492     1.007825032230
         H           -0.909382662719    -1.006762955053     1.772889390508     1.007825032230
         H           -1.792820662719     1.610134044947    -1.519329609492     1.007825032230
         H            0.317118337281    -1.650957955053    -0.424875609492     1.007825032230
         H           -3.138970662719    -2.084075955053     1.516992390508     1.007825032230
         H           -4.045475662719     0.589018044947    -1.731583609492     1.007825032230
         H           -4.718337662719    -1.276208955053    -0.229521609492     1.007825032230
         H            2.493807337281    -2.788247955053    -0.731998609492     1.007825032230
         H            4.431090337281     0.949927044947     0.163450390508     1.007825032230
         H            4.624738337281    -1.476434955053    -0.418978609492     1.007825032230

  Basis Set: AUG-CC-PVTZ
    Blend: AUG-CC-PVTZ
  Basis Set: (AUG-CC-PVTZ AUX)
    Blend: AUG-CC-PVTZ-JKFIT
	 Reference Energy          =    -570.4575012938706777 [Eh]
	 Singles Energy            =      -0.0000000000000000 [Eh]
	 Same-Spin Energy          =      -0.6387861663696768 [Eh]
	 Opposite-Spin Energy      =      -1.9766720490982292 [Eh]
	 Correlation Energy        =      -2.6154582154679060 [Eh]
	 Total Energy              =    -573.0729595093386024 [Eh]

	 ================> DF-SCS-MP2 Energies <==================
	-----------------------------------------------------------
	 SCS Same-Spin Scale       =       0.3333333333333333 [-]
	 SCS Opposite-Spin Scale   =       1.2000000000000000 [-]
	 SCS Same-Spin Energy      =      -0.2129287221232256 [Eh]
	 SCS Opposite-Spin Energy  =      -2.3720064589178751 [Eh]
	 SCS Correlation Energy    =      -2.5849351810411005 [Eh]
	 SCS Total Energy          =    -573.0424364749118240 [Eh]
	-----------------------------------------------------------

  Dipole Moment: [D]
     X:    -0.7474      Y:    -0.5722      Z:    -0.4012     Total:     1.0232

*** Psi4 exiting successfully. Buy a developer a beer!
