                               Psi4 1.3.2 release

  ==> Input File <==

--------------------------------------------------------------------------
#psi4
#
memory 32 gb

molecule  {
0 1
  N        0.0678190     0.9536280     0.3022870
  N        2.3787710     0.9561460     0.2207080
  C       -1.1991060     0.3426720     0.1363540
  C        1.2435610     0.2442270     0.0818760
  C        0.1402100     2.4122570     0.3330790
  C       -1.5868590    -0.6993050     0.9921800
  C       -2.0897480     0.7954790    -0.8469150
  C        1.2497210    -1.1235430    -0.2722420
  C       -2.8402720    -1.2929990     0.8487880
  C       -3.3529590     0.2138150    -0.9676140
  C       -3.7300960    -0.8357430    -0.1274420
  C        2.4727450    -1.7522840    -0.4525030
  C        3.4618855     0.3646841     0.0538731
  C        3.6581100    -1.0291840    -0.2852360
  H        0.8914220     2.7227450     1.0594170
  H       -0.8398030     2.7868350     0.6320060
  H        0.4165240     2.8365740    -0.6404330
  H       -0.9028320    -1.0219250     1.7735780
  H       -1.7862700     1.5949720    -1.5186410
  H        0.3236690    -1.6661200    -0.4241870
  H       -3.1324200    -2.0992380     1.5176810
  H       -4.0389250     0.5738560    -1.7308950
  H       -4.7117870    -1.2913710    -0.2288330
  H        2.5003580    -2.8034100    -0.7313100
  H        4.4376410     0.9347650     0.1641390
  H        4.6312890    -1.4915970    -0.4182900
units angstrom
no_reorient  #important for SAPT in psi4, default
symmetry c1  #important for SAPT in psi4, default
}

set PROPERTIES_ORIGIN ["COM"]
properties('MP2/aug-cc-pvtz', properties = ['dipole'])
--------------------------------------------------------------------------

    Molecular point group: c1
  Charge       = 0
  Multiplicity = 1
  Basis Set: AUG-CC-PVTZ
    Blend: AUG-CC-PVTZ
  Basis Set: (AUG-CC-PVTZ AUX)
    Blend: AUG-CC-PVTZ-JKFIT

    Orbital Energies [Eh]
    ---------------------

    Doubly Occupied:

       1A    -15.580875     2A    -15.547936     3A    -11.319639
       4A    -11.280758     5A    -11.274648     6A    -11.251769
       7A    -11.251650     8A    -11.243988     9A    -11.243577
      10A    -11.239876    11A    -11.238629    12A    -11.238232
      13A    -11.223850    14A    -11.222985    15A     -1.308474
      16A     -1.241666    17A     -1.145330    18A     -1.082277
      19A     -1.026701    20A     -1.021154    21A     -1.001696
      22A     -0.924242    23A     -0.868404    24A     -0.837892
      25A     -0.831093    26A     -0.796039    27A     -0.730169
      28A     -0.693667    29A     -0.674309    30A     -0.657211
      31A     -0.649210    32A     -0.631459    33A     -0.608738
      34A     -0.604464    35A     -0.591075    36A     -0.581789
      37A     -0.570015    38A     -0.545954    39A     -0.540369
      40A     -0.530483    41A     -0.512999    42A     -0.506547
      43A     -0.501307    44A     -0.430381    45A     -0.406093
      46A     -0.390538    47A     -0.343966    48A     -0.337971
      49A     -0.281724

  @DF-RHF Final Energy:  -570.47343399841134

   => Energetics <=

    Nuclear Repulsion Energy =            821.4305499022656250
    One-Electron Energy =               -2402.6803264021682480
    Two-Electron Energy =                1010.7763425014911718
    Total Energy =                       -570.4734339984113376
  Basis Set: (AUG-CC-PVTZ AUX)
    Blend: AUG-CC-PVTZ-RI
    Molecular point group: c1

    Geometry (in Angstrom), charge = 0, multiplicity = 1:

       Center              X                  Y                   Z               Mass
    ------------   -----------------  -----------------  -----------------  -----------------
         N            0.061530817874     0.956299774087     0.298463664575    14.003074004430
         N            2.372482817874     0.958817774087     0.216884664575    14.003074004430
         C           -1.205394182126     0.345343774087     0.132530664575    12.000000000000
         C            1.237272817874     0.246898774087     0.078052664575    12.000000000000
         C            0.133921817874     2.414928774087     0.329255664575    12.000000000000
         C           -1.593147182126    -0.696633225913     0.988356664575    12.000000000000
         C           -2.096036182126     0.798150774087    -0.850738335425    12.000000000000
         C            1.243432817874    -1.120871225913    -0.276065335425    12.000000000000
         C           -2.846560182126    -1.290327225913     0.844964664575    12.000000000000
         C           -3.359247182126     0.216486774087    -0.971437335425    12.000000000000
         C           -3.736384182126    -0.833071225913    -0.131265335425    12.000000000000
         C            2.466456817874    -1.749612225913    -0.456326335425    12.000000000000
         C            3.455597317874     0.367355874087     0.050049764575    12.000000000000
         C            3.651821817874    -1.026512225913    -0.289059335425    12.000000000000
         H            0.885133817874     2.725416774087     1.055593664575     1.007825032230
         H           -0.846091182126     2.789506774087     0.628182664575     1.007825032230
         H            0.410235817874     2.839245774087    -0.644256335425     1.007825032230
         H           -0.909120182126    -1.019253225913     1.769754664575     1.007825032230
         H           -1.792558182126     1.597643774087    -1.522464335425     1.007825032230
         H            0.317380817874    -1.663448225913    -0.428010335425     1.007825032230
         H           -3.138708182126    -2.096566225913     1.513857664575     1.007825032230
         H           -4.045213182126     0.576527774087    -1.734718335425     1.007825032230
         H           -4.718075182126    -1.288699225913    -0.232656335425     1.007825032230
         H            2.494069817874    -2.800738225913    -0.735133335425     1.007825032230
         H            4.431352817874     0.937436774087     0.160315664575     1.007825032230
         H            4.625000817874    -1.488925225913    -0.422113335425     1.007825032230

  Basis Set: AUG-CC-PVTZ
    Blend: AUG-CC-PVTZ
  Basis Set: (AUG-CC-PVTZ AUX)
    Blend: AUG-CC-PVTZ-JKFIT
	 Reference Energy          =    -570.4734339984113376 [Eh]
	 Singles Energy            =      -0.0000000000000000 [Eh]
	 Same-Spin Energy          =      -0.6365583297724005 [Eh]
	 Opposite-Spin Energy      =      -1.9725322124125595 [Eh]
	 Correlation Energy        =      -2.6090905421849602 [Eh]
	 Total Energy              =    -573.0825245405962960 [Eh]

	 ================> DF-SCS-MP2 Energies <==================
	-----------------------------------------------------------
	 SCS Same-Spin Scale       =       0.3333333333333333 [-]
	 SCS Opposite-Spin Scale   =       1.2000000000000000 [-]
	 SCS Same-Spin Energy      =      -0.2121861099241335 [Eh]
	 SCS Opposite-Spin Energy  =      -2.3670386548950715 [Eh]
	 SCS Correlation Energy    =      -2.5792247648192048 [Eh]
	 SCS Total Energy          =    -573.0526587632305109 [Eh]
	-----------------------------------------------------------

  Dipole Moment: [D]
     X:    -1.3314      Y:    -0.7454      Z:    -0.3917     Total:     1.5754

*** Psi4 exiting successfully. Buy a developer a beer!
