                               Psi4 1.3.2 release

  ==> Input File <==

--------------------------------------------------------------------------
#psi4
#
memory 32 gb

molecule  {
0 1
  N        0.1223938     1.0319169     0.3200538
  N        2.3787710     0.9561460     0.2207080
  C       -1.1991060     0.3426720     0.1363540
  C        1.2435610     0.2442270     0.0818760
  C        0.1402100     2.4122570     0.3330790
  C       -1.5868590    -0.6993050     0.9921800
  C       -2.0897480     0.7954790    -0.8469150
  C        1.2497210    -1.1235430    -0.2722420
  C       -2.8402720    -1.2929990     0.8487880
  C       -3.3529590     0.2138150    -0.9676140
  C       -3.7300960    -0.8357430    -0.1274420
  C        2.4727450    -1.7522840    -0.4525030
  C        3.5488610     0.3171890     0.0404760
  C        3.6581100    -1.0291840    -0.2852360
  H        0.8914220     2.7227450     1.0594170
  H       -0.8398030     2.7868350     0.6320060
  H        0.4165240     2.8365740    -0.6404330
  H       -0.9028320    -1.0219250     1.7735780
  H       -1.7862700     1.5949720    -1.5186410
  H        0.3236690    -1.6661200    -0.4241870
  H       -3.1324200    -2.0992380     1.5176810
  H       -4.0389250     0.5738560    -1.7308950
  H       -4.7117870    -1.2913710    -0.2288330
  H        2.5003580    -2.8034100    -0.7313100
  H        4.4376410     0.9347650     0.1641390
  H        4.6312890    -1.4915970    -0.4182900
units angstrom
no_reorient  #important for SAPT in psi4, default
symmetry c1  #important for SAPT in psi4, default
}

set PROPERTIES_ORIGIN ["COM"]
properties('MP2/aug-cc-pvtz', properties = ['dipole'])
--------------------------------------------------------------------------

    Molecular point group: c1
  Charge       = 0
  Multiplicity = 1
  Basis Set: AUG-CC-PVTZ
    Blend: AUG-CC-PVTZ
  Basis Set: (AUG-CC-PVTZ AUX)
    Blend: AUG-CC-PVTZ-JKFIT

    Orbital Energies [Eh]
    ---------------------

    Doubly Occupied:

       1A    -15.578526     2A    -15.546622     3A    -11.316381
       4A    -11.285418     5A    -11.271451     6A    -11.255999
       7A    -11.245802     8A    -11.245575     9A    -11.242551
      10A    -11.242127    11A    -11.241221    12A    -11.241109
      13A    -11.229418    14A    -11.222499    15A     -1.295309
      16A     -1.216207    17A     -1.148928    18A     -1.079134
      19A     -1.028528    20A     -1.020918    21A     -1.013139
      22A     -0.923909    23A     -0.859044    24A     -0.838495
      25A     -0.832607    26A     -0.793095    27A     -0.726265
      28A     -0.697274    29A     -0.670245    30A     -0.655961
      31A     -0.647619    32A     -0.633069    33A     -0.616418
      34A     -0.605498    35A     -0.596575    36A     -0.590504
      37A     -0.566769    38A     -0.538021    39A     -0.533802
      40A     -0.528684    41A     -0.509098    42A     -0.503643
      43A     -0.496593    44A     -0.424422    45A     -0.412834
      46A     -0.376700    47A     -0.345936    48A     -0.341519
      49A     -0.289995

  @DF-RHF Final Energy:  -570.47237241732614

   => Energetics <=

    Nuclear Repulsion Energy =            819.0597770070492061
    One-Electron Energy =               -2398.0213772912557033
    Two-Electron Energy =                1008.4892278668803556
    Total Energy =                       -570.4723724173261417
  Basis Set: (AUG-CC-PVTZ AUX)
    Blend: AUG-CC-PVTZ-RI
    Molecular point group: c1

    Geometry (in Angstrom), charge = 0, multiplicity = 1:

       Center              X                  Y                   Z               Mass
    ------------   -----------------  -----------------  -----------------  -----------------
         N            0.106285300178     1.031729663103     0.315752329909    14.003074004430
         N            2.362662500178     0.955958763103     0.216406529909    14.003074004430
         C           -1.215214499822     0.342484763103     0.132052529909    12.000000000000
         C            1.227452500178     0.244039763103     0.077574529909    12.000000000000
         C            0.124101500178     2.412069763103     0.328777529909    12.000000000000
         C           -1.602967499822    -0.699492236897     0.987878529909    12.000000000000
         C           -2.105856499822     0.795291763103    -0.851216470091    12.000000000000
         C            1.233612500178    -1.123730236897    -0.276543470091    12.000000000000
         C           -2.856380499822    -1.293186236897     0.844486529909    12.000000000000
         C           -3.369067499822     0.213627763103    -0.971915470091    12.000000000000
         C           -3.746204499822    -0.835930236897    -0.131743470091    12.000000000000
         C            2.456636500178    -1.752471236897    -0.456804470091    12.000000000000
         C            3.532752500178     0.317001763103     0.036174529909    12.000000000000
         C            3.642001500178    -1.029371236897    -0.289537470091    12.000000000000
         H            0.875313500178     2.722557763103     1.055115529909     1.007825032230
         H           -0.855911499822     2.786647763103     0.627704529909     1.007825032230
         H            0.400415500178     2.836386763103    -0.644734470091     1.007825032230
         H           -0.918940499822    -1.022112236897     1.769276529909     1.007825032230
         H           -1.802378499822     1.594784763103    -1.522942470091     1.007825032230
         H            0.307560500178    -1.666307236897    -0.428488470091     1.007825032230
         H           -3.148528499822    -2.099425236897     1.513379529909     1.007825032230
         H           -4.055033499822     0.573668763103    -1.735196470091     1.007825032230
         H           -4.727895499822    -1.291558236897    -0.233134470091     1.007825032230
         H            2.484249500178    -2.803597236897    -0.735611470091     1.007825032230
         H            4.421532500178     0.934577763103     0.159837529909     1.007825032230
         H            4.615180500178    -1.491784236897    -0.422591470091     1.007825032230

  Basis Set: AUG-CC-PVTZ
    Blend: AUG-CC-PVTZ
  Basis Set: (AUG-CC-PVTZ AUX)
    Blend: AUG-CC-PVTZ-JKFIT
	 Reference Energy          =    -570.4723724173261417 [Eh]
	 Singles Energy            =      -0.0000000000000000 [Eh]
	 Same-Spin Energy          =      -0.6373363845064689 [Eh]
	 Opposite-Spin Energy      =      -1.9745307421373377 [Eh]
	 Correlation Energy        =      -2.6118671266438067 [Eh]
	 Total Energy              =    -573.0842395439699430 [Eh]

	 ================> DF-SCS-MP2 Energies <==================
	-----------------------------------------------------------
	 SCS Same-Spin Scale       =       0.3333333333333333 [-]
	 SCS Opposite-Spin Scale   =       1.2000000000000000 [-]
	 SCS Same-Spin Energy      =      -0.2124454615021563 [Eh]
	 SCS Opposite-Spin Energy  =      -2.3694368905648053 [Eh]
	 SCS Correlation Energy    =      -2.5818823520669616 [Eh]
	 SCS Total Energy          =    -573.0542547693930828 [Eh]
	-----------------------------------------------------------

  Dipole Moment: [D]
     X:    -1.4442      Y:    -1.1296      Z:    -0.4547     Total:     1.8890

*** Psi4 exiting successfully. Buy a developer a beer!
