                               Psi4 1.3.2 release

  ==> Input File <==

--------------------------------------------------------------------------
#psi4
#
memory 32 gb

molecule  {
0 1
  N        0.0678190     0.9536280     0.3022870
  N        2.3787710     0.9561460     0.2207080
  C       -1.1260066     0.2191241     0.0993476
  C        1.2435610     0.2442270     0.0818760
  C        0.1402100     2.4122570     0.3330790
  C       -1.5868590    -0.6993050     0.9921800
  C       -2.0897480     0.7954790    -0.8469150
  C        1.2497210    -1.1235430    -0.2722420
  C       -2.8402720    -1.2929990     0.8487880
  C       -3.3529590     0.2138150    -0.9676140
  C       -3.7300960    -0.8357430    -0.1274420
  C        2.4727450    -1.7522840    -0.4525030
  C        3.5488610     0.3171890     0.0404760
  C        3.6581100    -1.0291840    -0.2852360
  H        0.8914220     2.7227450     1.0594170
  H       -0.8398030     2.7868350     0.6320060
  H        0.4165240     2.8365740    -0.6404330
  H       -0.9028320    -1.0219250     1.7735780
  H       -1.7862700     1.5949720    -1.5186410
  H        0.3236690    -1.6661200    -0.4241870
  H       -3.1324200    -2.0992380     1.5176810
  H       -4.0389250     0.5738560    -1.7308950
  H       -4.7117870    -1.2913710    -0.2288330
  H        2.5003580    -2.8034100    -0.7313100
  H        4.4376410     0.9347650     0.1641390
  H        4.6312890    -1.4915970    -0.4182900
units angstrom
no_reorient  #important for SAPT in psi4, default
symmetry c1  #important for SAPT in psi4, default
}

set PROPERTIES_ORIGIN ["COM"]
properties('MP2/aug-cc-pvtz', properties = ['dipole'])
--------------------------------------------------------------------------

    Molecular point group: c1
  Charge       = 0
  Multiplicity = 1
  Basis Set: AUG-CC-PVTZ
    Blend: AUG-CC-PVTZ
  Basis Set: (AUG-CC-PVTZ AUX)
    Blend: AUG-CC-PVTZ-JKFIT

    Orbital Energies [Eh]
    ---------------------

    Doubly Occupied:

       1A    -15.579217     2A    -15.547560     3A    -11.314073
       4A    -11.281050     5A    -11.271820     6A    -11.254621
       7A    -11.253303     8A    -11.246102     9A    -11.243387
      10A    -11.242457    11A    -11.239345    12A    -11.234383
      13A    -11.226425    14A    -11.222027    15A     -1.295324
      16A     -1.219119    17A     -1.143052    18A     -1.078834
      19A     -1.026170    20A     -1.023227    21A     -1.002503
      22A     -0.929334    23A     -0.858899    24A     -0.840612
      25A     -0.833098    26A     -0.790833    27A     -0.726013
      28A     -0.694821    29A     -0.670632    30A     -0.657006
      31A     -0.645944    32A     -0.629596    33A     -0.615698
      34A     -0.598837    35A     -0.592959    36A     -0.584936
      37A     -0.569217    38A     -0.538973    39A     -0.535420
      40A     -0.528505    41A     -0.511725    42A     -0.504754
      43A     -0.495497    44A     -0.429152    45A     -0.412859
      46A     -0.376622    47A     -0.348877    48A     -0.332469
      49A     -0.288265

  @DF-RHF Final Energy:  -570.47007174554619

   => Energetics <=

    Nuclear Repulsion Energy =            820.1603719323564974
    One-Electron Energy =               -2400.2897913740112017
    Two-Electron Energy =                1009.6593476961083979
    Total Energy =                       -570.4700717455461927
  Basis Set: (AUG-CC-PVTZ AUX)
    Blend: AUG-CC-PVTZ-RI
    Molecular point group: c1

    Geometry (in Angstrom), charge = 0, multiplicity = 1:

       Center              X                  Y                   Z               Mass
    ------------   -----------------  -----------------  -----------------  -----------------
         N            0.051096823876     0.967448690221     0.301749062951    14.003074004430
         N            2.362048823876     0.969966690221     0.220170062951    14.003074004430
         C           -1.142728776124     0.232944790221     0.098809662951    12.000000000000
         C            1.226838823876     0.258047690221     0.081338062951    12.000000000000
         C            0.123487823876     2.426077690221     0.332541062951    12.000000000000
         C           -1.603581176124    -0.685484309779     0.991642062951    12.000000000000
         C           -2.106470176124     0.809299690221    -0.847452937049    12.000000000000
         C            1.232998823876    -1.109722309779    -0.272779937049    12.000000000000
         C           -2.856994176124    -1.279178309779     0.848250062951    12.000000000000
         C           -3.369681176124     0.227635690221    -0.968151937049    12.000000000000
         C           -3.746818176124    -0.821922309779    -0.127979937049    12.000000000000
         C            2.456022823876    -1.738463309779    -0.453040937049    12.000000000000
         C            3.532138823876     0.331009690221     0.039938062951    12.000000000000
         C            3.641387823876    -1.015363309779    -0.285773937049    12.000000000000
         H            0.874699823876     2.736565690221     1.058879062951     1.007825032230
         H           -0.856525176124     2.800655690221     0.631468062951     1.007825032230
         H            0.399801823876     2.850394690221    -0.640970937049     1.007825032230
         H           -0.919554176124    -1.008104309779     1.773040062951     1.007825032230
         H           -1.802992176124     1.608792690221    -1.519178937049     1.007825032230
         H            0.306946823876    -1.652299309779    -0.424724937049     1.007825032230
         H           -3.149142176124    -2.085417309779     1.517143062951     1.007825032230
         H           -4.055647176124     0.587676690221    -1.731432937049     1.007825032230
         H           -4.728509176124    -1.277550309779    -0.229370937049     1.007825032230
         H            2.483635823876    -2.789589309779    -0.731847937049     1.007825032230
         H            4.420918823876     0.948585690221     0.163601062951     1.007825032230
         H            4.614566823876    -1.477776309779    -0.418827937049     1.007825032230

  Basis Set: AUG-CC-PVTZ
    Blend: AUG-CC-PVTZ
  Basis Set: (AUG-CC-PVTZ AUX)
    Blend: AUG-CC-PVTZ-JKFIT
	 Reference Energy          =    -570.4700717455461927 [Eh]
	 Singles Energy            =      -0.0000000000000000 [Eh]
	 Same-Spin Energy          =      -0.6377982515796456 [Eh]
	 Opposite-Spin Energy      =      -1.9758251181927511 [Eh]
	 Correlation Energy        =      -2.6136233697723967 [Eh]
	 Total Energy              =    -573.0836951153186192 [Eh]

	 ================> DF-SCS-MP2 Energies <==================
	-----------------------------------------------------------
	 SCS Same-Spin Scale       =       0.3333333333333333 [-]
	 SCS Opposite-Spin Scale   =       1.2000000000000000 [-]
	 SCS Same-Spin Energy      =      -0.2125994171932152 [Eh]
	 SCS Opposite-Spin Energy  =      -2.3709901418313013 [Eh]
	 SCS Correlation Energy    =      -2.5835895590245164 [Eh]
	 SCS Total Energy          =    -573.0536613045707099 [Eh]
	-----------------------------------------------------------

  Dipole Moment: [D]
     X:    -1.2413      Y:    -0.8330      Z:    -0.4066     Total:     1.5493

*** Psi4 exiting successfully. Buy a developer a beer!
