                               Psi4 1.3.2 release

  ==> Input File <==

--------------------------------------------------------------------------
#psi4
#
memory 32 gb

molecule  {
0 1
  N        0.0809417     0.9734927     0.3070160
  N        2.3787710     0.9561460     0.2207080
  C       -1.1991060     0.3426720     0.1363540
  C        1.2435610     0.2442270     0.0818760
  C        0.1402100     2.4122570     0.3330790
  C       -1.5868590    -0.6993050     0.9921800
  C       -2.0897480     0.7954790    -0.8469150
  C        1.2497210    -1.1235430    -0.2722420
  C       -2.8402720    -1.2929990     0.8487880
  C       -3.3529590     0.2138150    -0.9676140
  C       -3.7300960    -0.8357430    -0.1274420
  C        2.4727450    -1.7522840    -0.4525030
  C        3.5488610     0.3171890     0.0404760
  C        3.6581100    -1.0291840    -0.2852360
  H        0.8914220     2.7227450     1.0594170
  H       -0.8398030     2.7868350     0.6320060
  H        0.4165240     2.8365740    -0.6404330
  H       -0.9028320    -1.0219250     1.7735780
  H       -1.7862700     1.5949720    -1.5186410
  H        0.3236690    -1.6661200    -0.4241870
  H       -3.1324200    -2.0992380     1.5176810
  H       -4.0389250     0.5738560    -1.7308950
  H       -4.7117870    -1.2913710    -0.2288330
  H        2.5003580    -2.8034100    -0.7313100
  H        4.4376410     0.9347650     0.1641390
  H        4.6312890    -1.4915970    -0.4182900
units angstrom
no_reorient  #important for SAPT in psi4, default
symmetry c1  #important for SAPT in psi4, default
}

set PROPERTIES_ORIGIN ["COM"]
properties('MP2/aug-cc-pvtz', properties = ['dipole'])
--------------------------------------------------------------------------

    Molecular point group: c1
  Charge       = 0
  Multiplicity = 1
  Basis Set: AUG-CC-PVTZ
    Blend: AUG-CC-PVTZ
  Basis Set: (AUG-CC-PVTZ AUX)
    Blend: AUG-CC-PVTZ-JKFIT

    Orbital Energies [Eh]
    ---------------------

    Doubly Occupied:

       1A    -15.578949     2A    -15.548306     3A    -11.316787
       4A    -11.281662     5A    -11.272246     6A    -11.255266
       7A    -11.247487     8A    -11.244247     9A    -11.244033
      10A    -11.240196    11A    -11.239119    12A    -11.238957
      13A    -11.227912    14A    -11.222662    15A     -1.294437
      16A     -1.218936    17A     -1.145208    18A     -1.079124
      19A     -1.028172    20A     -1.020771    21A     -1.007024
      22A     -0.926010    23A     -0.859797    24A     -0.841962
      25A     -0.833192    26A     -0.792357    27A     -0.729229
      28A     -0.694378    29A     -0.669494    30A     -0.657299
      31A     -0.647653    32A     -0.630237    33A     -0.615156
      34A     -0.603287    35A     -0.592097    36A     -0.585959
      37A     -0.567856    38A     -0.538602    39A     -0.534937
      40A     -0.528370    41A     -0.510424    42A     -0.504162
      43A     -0.501906    44A     -0.428568    45A     -0.413389
      46A     -0.377151    47A     -0.344612    48A     -0.339929
      49A     -0.289012

  @DF-RHF Final Energy:  -570.48346879185351

   => Energetics <=

    Nuclear Repulsion Energy =            819.5763814538520364
    One-Electron Energy =               -2399.1026394142054414
    Two-Electron Energy =                1009.0427891684998940
    Total Energy =                       -570.4834687918535110
  Basis Set: (AUG-CC-PVTZ AUX)
    Blend: AUG-CC-PVTZ-RI
    Molecular point group: c1

    Geometry (in Angstrom), charge = 0, multiplicity = 1:

       Center              X                  Y                   Z               Mass
    ------------   -----------------  -----------------  -----------------  -----------------
         N            0.067986142445     0.977749342414     0.303706215027    14.003074004430
         N            2.365815442445     0.960402642414     0.217398215027    14.003074004430
         C           -1.212061557555     0.346928642414     0.133044215027    12.000000000000
         C            1.230605442445     0.248483642414     0.078566215027    12.000000000000
         C            0.127254442445     2.416513642414     0.329769215027    12.000000000000
         C           -1.599814557555    -0.695048357586     0.988870215027    12.000000000000
         C           -2.102703557555     0.799735642414    -0.850224784973    12.000000000000
         C            1.236765442445    -1.119286357586    -0.275551784973    12.000000000000
         C           -2.853227557555    -1.288742357586     0.845478215027    12.000000000000
         C           -3.365914557555     0.218071642414    -0.970923784973    12.000000000000
         C           -3.743051557555    -0.831486357586    -0.130751784973    12.000000000000
         C            2.459789442445    -1.748027357586    -0.455812784973    12.000000000000
         C            3.535905442445     0.321445642414     0.037166215027    12.000000000000
         C            3.645154442445    -1.024927357586    -0.288545784973    12.000000000000
         H            0.878466442445     2.727001642414     1.056107215027     1.007825032230
         H           -0.852758557555     2.791091642414     0.628696215027     1.007825032230
         H            0.403568442445     2.840830642414    -0.643742784973     1.007825032230
         H           -0.915787557555    -1.017668357586     1.770268215027     1.007825032230
         H           -1.799225557555     1.599228642414    -1.521950784973     1.007825032230
         H            0.310713442445    -1.661863357586    -0.427496784973     1.007825032230
         H           -3.145375557555    -2.094981357586     1.514371215027     1.007825032230
         H           -4.051880557555     0.578112642414    -1.734204784973     1.007825032230
         H           -4.724742557555    -1.287114357586    -0.232142784973     1.007825032230
         H            2.487402442445    -2.799153357586    -0.734619784973     1.007825032230
         H            4.424685442445     0.939021642414     0.160829215027     1.007825032230
         H            4.618333442445    -1.487340357586    -0.421599784973     1.007825032230

  Basis Set: AUG-CC-PVTZ
    Blend: AUG-CC-PVTZ
  Basis Set: (AUG-CC-PVTZ AUX)
    Blend: AUG-CC-PVTZ-JKFIT
	 Reference Energy          =    -570.4834687918535110 [Eh]
	 Singles Energy            =      -0.0000000000000000 [Eh]
	 Same-Spin Energy          =      -0.6370630442051428 [Eh]
	 Opposite-Spin Energy      =      -1.9738929123586337 [Eh]
	 Correlation Energy        =      -2.6109559565637763 [Eh]
	 Total Energy              =    -573.0944247484172820 [Eh]

	 ================> DF-SCS-MP2 Energies <==================
	-----------------------------------------------------------
	 SCS Same-Spin Scale       =       0.3333333333333333 [-]
	 SCS Opposite-Spin Scale   =       1.2000000000000000 [-]
	 SCS Same-Spin Energy      =      -0.2123543480683809 [Eh]
	 SCS Opposite-Spin Energy  =      -2.3686714948303602 [Eh]
	 SCS Correlation Energy    =      -2.5810258428987414 [Eh]
	 SCS Total Energy          =    -573.0644946347522364 [Eh]
	-----------------------------------------------------------

  Dipole Moment: [D]
     X:    -1.2653      Y:    -0.9572      Z:    -0.4436     Total:     1.6475

*** Psi4 exiting successfully. Buy a developer a beer!
