                               Psi4 1.4a3.dev225

  ==> Input File <==

--------------------------------------------------------------------------
#psi4
#
memory 32 gb

molecule  {
0 1
  N        0.0678190     0.9536280     0.3022870
  N        2.3787710     0.9561460     0.2207080
  C       -1.1991060     0.3426720     0.1363540
  C        1.2435610     0.2442270     0.0818760
  C        0.1392189     2.3922860     0.3326574
  C       -1.5868590    -0.6993050     0.9921800
  C       -2.0897480     0.7954790    -0.8469150
  C        1.2497210    -1.1235430    -0.2722420
  C       -2.8402720    -1.2929990     0.8487880
  C       -3.3529590     0.2138150    -0.9676140
  C       -3.7300960    -0.8357430    -0.1274420
  C        2.4727450    -1.7522840    -0.4525030
  C        3.5488610     0.3171890     0.0404760
  C        3.6581100    -1.0291840    -0.2852360
  H        0.8914220     2.7227450     1.0594170
  H       -0.8398030     2.7868350     0.6320060
  H        0.4165240     2.8365740    -0.6404330
  H       -0.9028320    -1.0219250     1.7735780
  H       -1.7862700     1.5949720    -1.5186410
  H        0.3236690    -1.6661200    -0.4241870
  H       -3.1324200    -2.0992380     1.5176810
  H       -4.0389250     0.5738560    -1.7308950
  H       -4.7117870    -1.2913710    -0.2288330
  H        2.5003580    -2.8034100    -0.7313100
  H        4.4376410     0.9347650     0.1641390
  H        4.6312890    -1.4915970    -0.4182900
units angstrom
no_reorient  #important for SAPT in psi4, default
symmetry c1  #important for SAPT in psi4, default
}

set PROPERTIES_ORIGIN ["COM"]
properties('MP2/aug-cc-pvtz', properties = ['dipole'])
--------------------------------------------------------------------------

    Molecular point group: c1
  Charge       = 0
  Multiplicity = 1
  Basis Set: AUG-CC-PVTZ
    Blend: AUG-CC-PVTZ
  Basis Set: (AUG-CC-PVTZ AUX)
    Blend: AUG-CC-PVTZ-JKFIT

    Orbital Energies [Eh]
    ---------------------

    Doubly Occupied:

       1A    -15.579510     2A    -15.549373     3A    -11.317535
       4A    -11.280639     5A    -11.272815     6A    -11.255366
       7A    -11.249320     8A    -11.243955     9A    -11.243653
      10A    -11.239630    11A    -11.238593    12A    -11.238242
      13A    -11.227984    14A    -11.223224    15A     -1.297405
      16A     -1.221920    17A     -1.144759    18A     -1.079556
      19A     -1.029051    20A     -1.020891    21A     -1.006042
      22A     -0.925691    23A     -0.860991    24A     -0.843325
      25A     -0.833559    26A     -0.792259    27A     -0.731142
      28A     -0.694475    29A     -0.670533    30A     -0.658636
      31A     -0.648592    32A     -0.630363    33A     -0.614981
      34A     -0.603028    35A     -0.592144    36A     -0.584904
      37A     -0.568764    38A     -0.535593    39A     -0.534016
      40A     -0.528602    41A     -0.511527    42A     -0.504755
      43A     -0.501571    44A     -0.428726    45A     -0.413708
      46A     -0.377634    47A     -0.344402    48A     -0.339705
      49A     -0.288922

  @DF-RHF Final Energy:  -570.48373087555990

   => Energetics <=

    Nuclear Repulsion Energy =            820.2297683921652833
    One-Electron Energy =               -2400.3829818304766377
    Two-Electron Energy =                1009.6694825627515684
    Total Energy =                       -570.4837308755598997
  Basis Set: (AUG-CC-PVTZ AUX)
    Blend: AUG-CC-PVTZ-RI
    Molecular point group: c1

    Geometry (in Angstrom), charge = 0, multiplicity = 1:

       Center              X                  Y                   Z               Mass
    ------------   -----------------  -----------------  -----------------  -----------------
         N            0.055926187082     0.960697345989     0.299364394376    14.003074004430
         N            2.366878187082     0.963215345989     0.217785394376    14.003074004430
         C           -1.210998812918     0.349741345989     0.133431394376    12.000000000000
         C            1.231668187082     0.251296345989     0.078953394376    12.000000000000
         C            0.127326087082     2.399355345989     0.329734794376    12.000000000000
         C           -1.598751812918    -0.692235654011     0.989257394376    12.000000000000
         C           -2.101640812918     0.802548345989    -0.849837605624    12.000000000000
         C            1.237828187082    -1.116473654011    -0.275164605624    12.000000000000
         C           -2.852164812918    -1.285929654011     0.845865394376    12.000000000000
         C           -3.364851812918     0.220884345989    -0.970536605624    12.000000000000
         C           -3.741988812918    -0.828673654011    -0.130364605624    12.000000000000
         C            2.460852187082    -1.745214654011    -0.455425605624    12.000000000000
         C            3.536968187082     0.324258345989     0.037553394376    12.000000000000
         C            3.646217187082    -1.022114654011    -0.288158605624    12.000000000000
         H            0.879529187082     2.729814345989     1.056494394376     1.007825032230
         H           -0.851695812918     2.793904345989     0.629083394376     1.007825032230
         H            0.404631187082     2.843643345989    -0.643355605624     1.007825032230
         H           -0.914724812918    -1.014855654011     1.770655394376     1.007825032230
         H           -1.798162812918     1.602041345989    -1.521563605624     1.007825032230
         H            0.311776187082    -1.659050654011    -0.427109605624     1.007825032230
         H           -3.144312812918    -2.092168654011     1.514758394376     1.007825032230
         H           -4.050817812918     0.580925345989    -1.733817605624     1.007825032230
         H           -4.723679812918    -1.284301654011    -0.231755605624     1.007825032230
         H            2.488465187082    -2.796340654011    -0.734232605624     1.007825032230
         H            4.425748187082     0.941834345989     0.161216394376     1.007825032230
         H            4.619396187082    -1.484527654011    -0.421212605624     1.007825032230

  Basis Set: AUG-CC-PVTZ
    Blend: AUG-CC-PVTZ
  Basis Set: (AUG-CC-PVTZ AUX)
    Blend: AUG-CC-PVTZ-JKFIT
	 Reference Energy          =    -570.4837308755598997 [Eh]
	 Singles Energy            =      -0.0000000000000000 [Eh]
	 Same-Spin Energy          =      -0.6372622445372267 [Eh]
	 Opposite-Spin Energy      =      -1.9739906102643403 [Eh]
	 Correlation Energy        =      -2.6112528548015668 [Eh]
	 Total Energy              =    -573.0949837303614913 [Eh]

	 ================> DF-SCS-MP2 Energies <==================
	-----------------------------------------------------------
	 SCS Same-Spin Scale       =       0.3333333333333333 [-]
	 SCS Opposite-Spin Scale   =       1.2000000000000000 [-]
	 SCS Same-Spin Energy      =      -0.2124207481790756 [Eh]
	 SCS Opposite-Spin Energy  =      -2.3687887323172081 [Eh]
	 SCS Correlation Energy    =      -2.5812094804962835 [Eh]
	 SCS Total Energy          =    -573.0649403560561268 [Eh]
	-----------------------------------------------------------

  Dipole Moment: [D]
     X:    -1.1949      Y:    -0.9648      Z:    -0.4389     Total:     1.5972

*** Psi4 exiting successfully. Buy a developer a beer!
