                               Psi4 1.3.2 release

  ==> Input File <==

--------------------------------------------------------------------------
#psi4
#
memory 32 gb

molecule  {
0 1
  N        0.0323311     1.0404189     0.1874610
  N        2.3787710     0.9561460     0.2207080
  C       -1.1991060     0.3426720     0.1363540
  C        1.2435610     0.2442270     0.0818760
  C        0.1402100     2.4122570     0.3330790
  C       -1.5868590    -0.6993050     0.9921800
  C       -2.0897480     0.7954790    -0.8469150
  C        1.2497210    -1.1235430    -0.2722420
  C       -2.8402720    -1.2929990     0.8487880
  C       -3.3529590     0.2138150    -0.9676140
  C       -3.7300960    -0.8357430    -0.1274420
  C        2.4727450    -1.7522840    -0.4525030
  C        3.5488610     0.3171890     0.0404760
  C        3.6581100    -1.0291840    -0.2852360
  H        0.8914220     2.7227450     1.0594170
  H       -0.8398030     2.7868350     0.6320060
  H        0.4165240     2.8365740    -0.6404330
  H       -0.9028320    -1.0219250     1.7735780
  H       -1.7862700     1.5949720    -1.5186410
  H        0.3236690    -1.6661200    -0.4241870
  H       -3.1324200    -2.0992380     1.5176810
  H       -4.0389250     0.5738560    -1.7308950
  H       -4.7117870    -1.2913710    -0.2288330
  H        2.5003580    -2.8034100    -0.7313100
  H        4.4376410     0.9347650     0.1641390
  H        4.6312890    -1.4915970    -0.4182900
units angstrom
no_reorient  #important for SAPT in psi4, default
symmetry c1  #important for SAPT in psi4, default
}

set PROPERTIES_ORIGIN ["COM"]
properties('MP2/aug-cc-pvtz', properties = ['dipole'])
--------------------------------------------------------------------------

    Molecular point group: c1
  Charge       = 0
  Multiplicity = 1
  Basis Set: AUG-CC-PVTZ
    Blend: AUG-CC-PVTZ
  Basis Set: (AUG-CC-PVTZ AUX)
    Blend: AUG-CC-PVTZ-JKFIT

    Orbital Energies [Eh]
    ---------------------

    Doubly Occupied:

       1A    -15.573562     2A    -15.553886     3A    -11.321400
       4A    -11.279174     5A    -11.274781     6A    -11.258001
       7A    -11.243790     8A    -11.241416     9A    -11.240887
      10A    -11.239399    11A    -11.237139    12A    -11.234963
      13A    -11.232980    14A    -11.227675    15A     -1.291148
      16A     -1.225523    17A     -1.143761    18A     -1.082267
      19A     -1.028883    20A     -1.019141    21A     -1.011774
      22A     -0.920711    23A     -0.858978    24A     -0.845570
      25A     -0.831002    26A     -0.791330    27A     -0.727162
      28A     -0.695613    29A     -0.669991    30A     -0.657505
      31A     -0.648614    32A     -0.633852    33A     -0.618091
      34A     -0.601878    35A     -0.597248    36A     -0.586987
      37A     -0.572532    38A     -0.537300    39A     -0.533836
      40A     -0.527493    41A     -0.508879    42A     -0.503301
      43A     -0.497291    44A     -0.417463    45A     -0.416684
      46A     -0.379632    47A     -0.344154    48A     -0.339593
      49A     -0.289428

  @DF-RHF Final Energy:  -570.47151150074046

   => Energetics <=

    Nuclear Repulsion Energy =            819.4444545714029573
    One-Electron Energy =               -2398.8045970124726409
    Two-Electron Energy =                1008.8886309403292216
    Total Energy =                       -570.4715115007404620
  Basis Set: (AUG-CC-PVTZ AUX)
    Blend: AUG-CC-PVTZ-RI
    Molecular point group: c1

    Geometry (in Angstrom), charge = 0, multiplicity = 1:

       Center              X                  Y                   Z               Mass
    ------------   -----------------  -----------------  -----------------  -----------------
         N            0.023072976721     1.039584981387     0.193244843884    14.003074004430
         N            2.369512876721     0.955312081387     0.226491843884    14.003074004430
         C           -1.208364123279     0.341838081387     0.142137843884    12.000000000000
         C            1.234302876721     0.243393081387     0.087659843884    12.000000000000
         C            0.130951876721     2.411423081387     0.338862843884    12.000000000000
         C           -1.596117123279    -0.700138918613     0.997963843884    12.000000000000
         C           -2.099006123279     0.794645081387    -0.841131156116    12.000000000000
         C            1.240462876721    -1.124376918613    -0.266458156116    12.000000000000
         C           -2.849530123279    -1.293832918613     0.854571843884    12.000000000000
         C           -3.362217123279     0.212981081387    -0.961830156116    12.000000000000
         C           -3.739354123279    -0.836576918613    -0.121658156116    12.000000000000
         C            2.463486876721    -1.753117918613    -0.446719156116    12.000000000000
         C            3.539602876721     0.316355081387     0.046259843884    12.000000000000
         C            3.648851876721    -1.030017918613    -0.279452156116    12.000000000000
         H            0.882163876721     2.721911081387     1.065200843884     1.007825032230
         H           -0.849061123279     2.786001081387     0.637789843884     1.007825032230
         H            0.407265876721     2.835740081387    -0.634649156116     1.007825032230
         H           -0.912090123279    -1.022758918613     1.779361843884     1.007825032230
         H           -1.795528123279     1.594138081387    -1.512857156116     1.007825032230
         H            0.314410876721    -1.666953918613    -0.418403156116     1.007825032230
         H           -3.141678123279    -2.100071918613     1.523464843884     1.007825032230
         H           -4.048183123279     0.573022081387    -1.725111156116     1.007825032230
         H           -4.721045123279    -1.292204918613    -0.223049156116     1.007825032230
         H            2.491099876721    -2.804243918613    -0.725526156116     1.007825032230
         H            4.428382876721     0.933931081387     0.169922843884     1.007825032230
         H            4.622030876721    -1.492430918613    -0.412506156116     1.007825032230

  Basis Set: AUG-CC-PVTZ
    Blend: AUG-CC-PVTZ
  Basis Set: (AUG-CC-PVTZ AUX)
    Blend: AUG-CC-PVTZ-JKFIT
	 Reference Energy          =    -570.4715115007404620 [Eh]
	 Singles Energy            =      -0.0000000000000000 [Eh]
	 Same-Spin Energy          =      -0.6379252360686982 [Eh]
	 Opposite-Spin Energy      =      -1.9748827958062589 [Eh]
	 Correlation Energy        =      -2.6128080318749571 [Eh]
	 Total Energy              =    -573.0843195326153818 [Eh]

	 ================> DF-SCS-MP2 Energies <==================
	-----------------------------------------------------------
	 SCS Same-Spin Scale       =       0.3333333333333333 [-]
	 SCS Opposite-Spin Scale   =       1.2000000000000000 [-]
	 SCS Same-Spin Energy      =      -0.2126417453562327 [Eh]
	 SCS Opposite-Spin Energy  =      -2.3698593549675104 [Eh]
	 SCS Correlation Energy    =      -2.5825011003237432 [Eh]
	 SCS Total Energy          =    -573.0540126010641870 [Eh]
	-----------------------------------------------------------

  Dipole Moment: [D]
     X:    -0.8726      Y:    -1.2104      Z:    -0.3350     Total:     1.5292

*** Psi4 exiting successfully. Buy a developer a beer!
