                               Psi4 1.3.2 release

  ==> Input File <==

--------------------------------------------------------------------------
#psi4
#
memory 32 gb

molecule  {
0 1
  N        0.0678190     0.9536280     0.3022870
  N        2.3787710     0.9561460     0.2207080
  C       -1.0201994     0.4289471     0.1597859
  C        1.2435610     0.2442270     0.0818760
  C        0.1402100     2.4122570     0.3330790
  C       -1.5868590    -0.6993050     0.9921800
  C       -2.0897480     0.7954790    -0.8469150
  C        1.2497210    -1.1235430    -0.2722420
  C       -2.8402720    -1.2929990     0.8487880
  C       -3.3529590     0.2138150    -0.9676140
  C       -3.7300960    -0.8357430    -0.1274420
  C        2.4727450    -1.7522840    -0.4525030
  C        3.5488610     0.3171890     0.0404760
  C        3.6581100    -1.0291840    -0.2852360
  H        0.8914220     2.7227450     1.0594170
  H       -0.8398030     2.7868350     0.6320060
  H        0.4165240     2.8365740    -0.6404330
  H       -0.9028320    -1.0219250     1.7735780
  H       -1.7862700     1.5949720    -1.5186410
  H        0.3236690    -1.6661200    -0.4241870
  H       -3.1324200    -2.0992380     1.5176810
  H       -4.0389250     0.5738560    -1.7308950
  H       -4.7117870    -1.2913710    -0.2288330
  H        2.5003580    -2.8034100    -0.7313100
  H        4.4376410     0.9347650     0.1641390
  H        4.6312890    -1.4915970    -0.4182900
units angstrom
no_reorient  #important for SAPT in psi4, default
symmetry c1  #important for SAPT in psi4, default
}

set PROPERTIES_ORIGIN ["COM"]
properties('MP2/aug-cc-pvtz', properties = ['dipole'])
--------------------------------------------------------------------------

    Molecular point group: c1
  Charge       = 0
  Multiplicity = 1
  Basis Set: AUG-CC-PVTZ
    Blend: AUG-CC-PVTZ
  Basis Set: (AUG-CC-PVTZ AUX)
    Blend: AUG-CC-PVTZ-JKFIT

    Orbital Energies [Eh]
    ---------------------

    Doubly Occupied:

       1A    -15.589128     2A    -15.561354     3A    -11.328157
       4A    -11.288303     5A    -11.280366     6A    -11.262424
       7A    -11.261352     8A    -11.237189     9A    -11.236580
      10A    -11.235740    11A    -11.235099    12A    -11.234505
      13A    -11.233213    14A    -11.226681    15A     -1.350183
      16A     -1.246988    17A     -1.120882    18A     -1.088458
      19A     -1.039336    20A     -1.006326    21A     -0.996646
      22A     -0.941664    23A     -0.882102    24A     -0.856086
      25A     -0.814643    26A     -0.788076    27A     -0.742743
      28A     -0.694271    29A     -0.679029    30A     -0.669178
      31A     -0.662736    32A     -0.636857    33A     -0.623509
      34A     -0.600897    35A     -0.584575    36A     -0.579268
      37A     -0.568967    38A     -0.550817    39A     -0.545588
      40A     -0.533795    41A     -0.515414    42A     -0.499953
      43A     -0.475808    44A     -0.424575    45A     -0.420393
      46A     -0.384558    47A     -0.336296    48A     -0.329935
      49A     -0.274994

  @DF-RHF Final Energy:  -570.41830400633012

   => Energetics <=

    Nuclear Repulsion Energy =            821.0277327208556244
    One-Electron Energy =               -2401.5407981557427775
    Two-Electron Energy =                1010.0947614285571490
    Total Energy =                       -570.4183040063301178
  Basis Set: (AUG-CC-PVTZ AUX)
    Blend: AUG-CC-PVTZ-RI
    Molecular point group: c1

    Geometry (in Angstrom), charge = 0, multiplicity = 1:

       Center              X                  Y                   Z               Mass
    ------------   -----------------  -----------------  -----------------  -----------------
         N            0.044200104342     0.953772018097     0.297809576751    14.003074004430
         N            2.355152104342     0.956290018097     0.216230576751    14.003074004430
         C           -1.043818295658     0.429091118097     0.155308476751    12.000000000000
         C            1.219942104342     0.244371018097     0.077398576751    12.000000000000
         C            0.116591104342     2.412401018097     0.328601576751    12.000000000000
         C           -1.610477895658    -0.699160981903     0.987702576751    12.000000000000
         C           -2.113366895658     0.795623018097    -0.851392423249    12.000000000000
         C            1.226102104342    -1.123398981903    -0.276719423249    12.000000000000
         C           -2.863890895658    -1.292854981903     0.844310576751    12.000000000000
         C           -3.376577895658     0.213959018097    -0.972091423249    12.000000000000
         C           -3.753714895658    -0.835598981903    -0.131919423249    12.000000000000
         C            2.449126104342    -1.752139981903    -0.456980423249    12.000000000000
         C            3.525242104342     0.317333018097     0.035998576751    12.000000000000
         C            3.634491104342    -1.029039981903    -0.289713423249    12.000000000000
         H            0.867803104342     2.722889018097     1.054939576751     1.007825032230
         H           -0.863421895658     2.786979018097     0.627528576751     1.007825032230
         H            0.392905104342     2.836718018097    -0.644910423249     1.007825032230
         H           -0.926450895658    -1.021780981903     1.769100576751     1.007825032230
         H           -1.809888895658     1.595116018097    -1.523118423249     1.007825032230
         H            0.300050104342    -1.665975981903    -0.428664423249     1.007825032230
         H           -3.156038895658    -2.099093981903     1.513203576751     1.007825032230
         H           -4.062543895658     0.574000018097    -1.735372423249     1.007825032230
         H           -4.735405895658    -1.291226981903    -0.233310423249     1.007825032230
         H            2.476739104342    -2.803265981903    -0.735787423249     1.007825032230
         H            4.414022104342     0.934909018097     0.159661576751     1.007825032230
         H            4.607670104342    -1.491452981903    -0.422767423249     1.007825032230

  Basis Set: AUG-CC-PVTZ
    Blend: AUG-CC-PVTZ
  Basis Set: (AUG-CC-PVTZ AUX)
    Blend: AUG-CC-PVTZ-JKFIT
	 Reference Energy          =    -570.4183040063301178 [Eh]
	 Singles Energy            =      -0.0000000000000000 [Eh]
	 Same-Spin Energy          =      -0.6417863312723042 [Eh]
	 Opposite-Spin Energy      =      -1.9805735100097963 [Eh]
	 Correlation Energy        =      -2.6223598412821003 [Eh]
	 Total Energy              =    -573.0406638476122225 [Eh]

	 ================> DF-SCS-MP2 Energies <==================
	-----------------------------------------------------------
	 SCS Same-Spin Scale       =       0.3333333333333333 [-]
	 SCS Opposite-Spin Scale   =       1.2000000000000000 [-]
	 SCS Same-Spin Energy      =      -0.2139287770907681 [Eh]
	 SCS Opposite-Spin Energy  =      -2.3766882120117554 [Eh]
	 SCS Correlation Energy    =      -2.5906169891025232 [Eh]
	 SCS Total Energy          =    -573.0089209954326179 [Eh]
	-----------------------------------------------------------

  Dipole Moment: [D]
     X:     0.3891      Y:    -0.5873      Z:    -0.3908     Total:     0.8056

*** Psi4 exiting successfully. Buy a developer a beer!
