                               Psi4 1.4a3.dev225

  ==> Input File <==

--------------------------------------------------------------------------
#psi4
#
memory 32 gb

molecule  {
0 1
  N        0.0678190     0.9536280     0.3022870
  N        2.3787710     0.9561460     0.2207080
  C       -1.2169967     0.3340445     0.1340108
  C        1.2435610     0.2442270     0.0818760
  C        0.1402100     2.4122570     0.3330790
  C       -1.5868590    -0.6993050     0.9921800
  C       -2.0897480     0.7954790    -0.8469150
  C        1.2497210    -1.1235430    -0.2722420
  C       -2.8402720    -1.2929990     0.8487880
  C       -3.3529590     0.2138150    -0.9676140
  C       -3.7300960    -0.8357430    -0.1274420
  C        2.4727450    -1.7522840    -0.4525030
  C        3.5488610     0.3171890     0.0404760
  C        3.6581100    -1.0291840    -0.2852360
  H        0.8914220     2.7227450     1.0594170
  H       -0.8398030     2.7868350     0.6320060
  H        0.4165240     2.8365740    -0.6404330
  H       -0.9028320    -1.0219250     1.7735780
  H       -1.7862700     1.5949720    -1.5186410
  H        0.3236690    -1.6661200    -0.4241870
  H       -3.1324200    -2.0992380     1.5176810
  H       -4.0389250     0.5738560    -1.7308950
  H       -4.7117870    -1.2913710    -0.2288330
  H        2.5003580    -2.8034100    -0.7313100
  H        4.4376410     0.9347650     0.1641390
  H        4.6312890    -1.4915970    -0.4182900
units angstrom
no_reorient  #important for SAPT in psi4, default
symmetry c1  #important for SAPT in psi4, default
}

set PROPERTIES_ORIGIN ["COM"]
properties('MP2/aug-cc-pvtz', properties = ['dipole'])
--------------------------------------------------------------------------

    Molecular point group: c1
  Charge       = 0
  Multiplicity = 1
  Basis Set: AUG-CC-PVTZ
    Blend: AUG-CC-PVTZ
  Basis Set: (AUG-CC-PVTZ AUX)
    Blend: AUG-CC-PVTZ-JKFIT

    Orbital Energies [Eh]
    ---------------------

    Doubly Occupied:

       1A    -15.578080     2A    -15.547979     3A    -11.316254
       4A    -11.279734     5A    -11.271930     6A    -11.254479
       7A    -11.248749     8A    -11.244457     9A    -11.244127
      10A    -11.239340    11A    -11.238982    12A    -11.237889
      13A    -11.226742    14A    -11.221967    15A     -1.291533
      16A     -1.218024    17A     -1.146147    18A     -1.078424
      19A     -1.028491    20A     -1.022081    21A     -1.005391
      22A     -0.925118    23A     -0.858772    24A     -0.842386
      25A     -0.834729    26A     -0.792334    27A     -0.729271
      28A     -0.693633    29A     -0.668246    30A     -0.656852
      31A     -0.647518    32A     -0.629363    33A     -0.614208
      34A     -0.603304    35A     -0.592141    36A     -0.583688
      37A     -0.567403    38A     -0.538077    39A     -0.534581
      40A     -0.527491    41A     -0.511584    42A     -0.505234
      43A     -0.503154    44A     -0.429121    45A     -0.412671
      46A     -0.376737    47A     -0.345088    48A     -0.340794
      49A     -0.288608

  @DF-RHF Final Energy:  -570.48409733251322

   => Energetics <=

    Nuclear Repulsion Energy =            819.6983493953467814
    One-Electron Energy =               -2399.3790778529000818
    Two-Electron Energy =                1009.1966311250401986
    Total Energy =                       -570.4840973325132154
  Basis Set: (AUG-CC-PVTZ AUX)
    Blend: AUG-CC-PVTZ-RI
    Molecular point group: c1

    Geometry (in Angstrom), charge = 0, multiplicity = 1:

       Center              X                  Y                   Z               Mass
    ------------   -----------------  -----------------  -----------------  -----------------
         N            0.057027735951     0.959957954548     0.299489648010    14.003074004430
         N            2.367979735951     0.962475954548     0.217910648010    14.003074004430
         C           -1.227787964049     0.340374454548     0.131213448010    12.000000000000
         C            1.232769735951     0.250556954548     0.079078648010    12.000000000000
         C            0.129418735951     2.418586954548     0.330281648010    12.000000000000
         C           -1.597650264049    -0.692975045452     0.989382648010    12.000000000000
         C           -2.100539264049     0.801808954548    -0.849712351990    12.000000000000
         C            1.238929735951    -1.117213045452    -0.275039351990    12.000000000000
         C           -2.851063264049    -1.286669045452     0.845990648010    12.000000000000
         C           -3.363750264049     0.220144954548    -0.970411351990    12.000000000000
         C           -3.740887264049    -0.829413045452    -0.130239351990    12.000000000000
         C            2.461953735951    -1.745954045452    -0.455300351990    12.000000000000
         C            3.538069735951     0.323518954548     0.037678648010    12.000000000000
         C            3.647318735951    -1.022854045452    -0.288033351990    12.000000000000
         H            0.880630735951     2.729074954548     1.056619648010     1.007825032230
         H           -0.850594264049     2.793164954548     0.629208648010     1.007825032230
         H            0.405732735951     2.842903954548    -0.643230351990     1.007825032230
         H           -0.913623264049    -1.015595045452     1.770780648010     1.007825032230
         H           -1.797061264049     1.601301954548    -1.521438351990     1.007825032230
         H            0.312877735951    -1.659790045452    -0.426984351990     1.007825032230
         H           -3.143211264049    -2.092908045452     1.514883648010     1.007825032230
         H           -4.049716264049     0.580185954548    -1.733692351990     1.007825032230
         H           -4.722578264049    -1.285041045452    -0.231630351990     1.007825032230
         H            2.489566735951    -2.797080045452    -0.734107351990     1.007825032230
         H            4.426849735951     0.941094954548     0.161341648010     1.007825032230
         H            4.620497735951    -1.485267045452    -0.421087351990     1.007825032230

  Basis Set: AUG-CC-PVTZ
    Blend: AUG-CC-PVTZ
  Basis Set: (AUG-CC-PVTZ AUX)
    Blend: AUG-CC-PVTZ-JKFIT
	 Reference Energy          =    -570.4840973325132154 [Eh]
	 Singles Energy            =      -0.0000000000000000 [Eh]
	 Same-Spin Energy          =      -0.6369039788471765 [Eh]
	 Opposite-Spin Energy      =      -1.9736889696471531 [Eh]
	 Correlation Energy        =      -2.6105929484943298 [Eh]
	 Total Energy              =    -573.0946902810075017 [Eh]

	 ================> DF-SCS-MP2 Energies <==================
	-----------------------------------------------------------
	 SCS Same-Spin Scale       =       0.3333333333333333 [-]
	 SCS Opposite-Spin Scale   =       1.2000000000000000 [-]
	 SCS Same-Spin Energy      =      -0.2123013262823922 [Eh]
	 SCS Opposite-Spin Energy  =      -2.3684267635765837 [Eh]
	 SCS Correlation Energy    =      -2.5807280898589759 [Eh]
	 SCS Total Energy          =    -573.0648254223722233 [Eh]
	-----------------------------------------------------------

  Dipole Moment: [D]
     X:    -1.3299      Y:    -0.9237      Z:    -0.4423     Total:     1.6786

*** Psi4 exiting successfully. Buy a developer a beer!
