                               Psi4 1.3.2 release

  ==> Input File <==

--------------------------------------------------------------------------
#psi4
#
memory 32 gb

molecule  {
0 1
  N        0.0678190     0.9536280     0.3022870
  N        2.3787710     0.9561460     0.2207080
  C       -1.1991060     0.3426720     0.1363540
  C        1.0744814     0.3462437     0.1135726
  C        0.1402100     2.4122570     0.3330790
  C       -1.5868590    -0.6993050     0.9921800
  C       -2.0897480     0.7954790    -0.8469150
  C        1.2497210    -1.1235430    -0.2722420
  C       -2.8402720    -1.2929990     0.8487880
  C       -3.3529590     0.2138150    -0.9676140
  C       -3.7300960    -0.8357430    -0.1274420
  C        2.4727450    -1.7522840    -0.4525030
  C        3.5488610     0.3171890     0.0404760
  C        3.6581100    -1.0291840    -0.2852360
  H        0.8914220     2.7227450     1.0594170
  H       -0.8398030     2.7868350     0.6320060
  H        0.4165240     2.8365740    -0.6404330
  H       -0.9028320    -1.0219250     1.7735780
  H       -1.7862700     1.5949720    -1.5186410
  H        0.3236690    -1.6661200    -0.4241870
  H       -3.1324200    -2.0992380     1.5176810
  H       -4.0389250     0.5738560    -1.7308950
  H       -4.7117870    -1.2913710    -0.2288330
  H        2.5003580    -2.8034100    -0.7313100
  H        4.4376410     0.9347650     0.1641390
  H        4.6312890    -1.4915970    -0.4182900
units angstrom
no_reorient  #important for SAPT in psi4, default
symmetry c1  #important for SAPT in psi4, default
}

set PROPERTIES_ORIGIN ["COM"]
properties('MP2/aug-cc-pvtz', properties = ['dipole'])
--------------------------------------------------------------------------

    Molecular point group: c1
  Charge       = 0
  Multiplicity = 1
  Basis Set: AUG-CC-PVTZ
    Blend: AUG-CC-PVTZ
  Basis Set: (AUG-CC-PVTZ AUX)
    Blend: AUG-CC-PVTZ-JKFIT

    Orbital Energies [Eh]
    ---------------------

    Doubly Occupied:

       1A    -15.610892     2A    -15.528495     3A    -11.322162
       4A    -11.297581     5A    -11.269039     6A    -11.258394
       7A    -11.256405     8A    -11.255010     9A    -11.254703
      10A    -11.253245    11A    -11.251514    12A    -11.240391
      13A    -11.220638    14A    -11.197558    15A     -1.366779
      16A     -1.190860    17A     -1.161305    18A     -1.055348
      19A     -1.038805    20A     -1.033307    21A     -1.007513
      22A     -0.948912    23A     -0.879115    24A     -0.849164
      25A     -0.816522    26A     -0.788767    27A     -0.746781
      28A     -0.703465    29A     -0.683484    30A     -0.675579
      31A     -0.654803    32A     -0.633939    33A     -0.619499
      34A     -0.606375    35A     -0.599648    36A     -0.579262
      37A     -0.566801    38A     -0.545478    39A     -0.532793
      40A     -0.531200    41A     -0.517359    42A     -0.511103
      43A     -0.500199    44A     -0.455165    45A     -0.369224
      46A     -0.361234    47A     -0.354204    48A     -0.349741
      49A     -0.265949

  @DF-RHF Final Energy:  -570.42041931560857

   => Energetics <=

    Nuclear Repulsion Energy =            820.9313145187139753
    One-Electron Energy =               -2401.2720467468179777
    Two-Electron Energy =                1009.9203129124955467
    Total Energy =                       -570.4204193156085694
  Basis Set: (AUG-CC-PVTZ AUX)
    Blend: AUG-CC-PVTZ-RI
    Molecular point group: c1

    Geometry (in Angstrom), charge = 0, multiplicity = 1:

       Center              X                  Y                   Z               Mass
    ------------   -----------------  -----------------  -----------------  -----------------
         N            0.066882523148     0.952745949926     0.297270867496    14.003074004430
         N            2.377834523148     0.955263949926     0.215691867496    14.003074004430
         C           -1.200042476852     0.341789949926     0.131337867496    12.000000000000
         C            1.073544923148     0.345361649926     0.108556467496    12.000000000000
         C            0.139273523148     2.411374949926     0.328062867496    12.000000000000
         C           -1.587795476852    -0.700187050074     0.987163867496    12.000000000000
         C           -2.090684476852     0.794596949926    -0.851931132504    12.000000000000
         C            1.248784523148    -1.124425050074    -0.277258132504    12.000000000000
         C           -2.841208476852    -1.293881050074     0.843771867496    12.000000000000
         C           -3.353895476852     0.212932949926    -0.972630132504    12.000000000000
         C           -3.731032476852    -0.836625050074    -0.132458132504    12.000000000000
         C            2.471808523148    -1.753166050074    -0.457519132504    12.000000000000
         C            3.547924523148     0.316306949926     0.035459867496    12.000000000000
         C            3.657173523148    -1.030066050074    -0.290252132504    12.000000000000
         H            0.890485523148     2.721862949926     1.054400867496     1.007825032230
         H           -0.840739476852     2.785952949926     0.626989867496     1.007825032230
         H            0.415587523148     2.835691949926    -0.645449132504     1.007825032230
         H           -0.903768476852    -1.022807050074     1.768561867496     1.007825032230
         H           -1.787206476852     1.594089949926    -1.523657132504     1.007825032230
         H            0.322732523148    -1.667002050074    -0.429203132504     1.007825032230
         H           -3.133356476852    -2.100120050074     1.512664867496     1.007825032230
         H           -4.039861476852     0.572973949926    -1.735911132504     1.007825032230
         H           -4.712723476852    -1.292253050074    -0.233849132504     1.007825032230
         H            2.499421523148    -2.804292050074    -0.736326132504     1.007825032230
         H            4.436704523148     0.933882949926     0.159122867496     1.007825032230
         H            4.630352523148    -1.492479050074    -0.423306132504     1.007825032230

  Basis Set: AUG-CC-PVTZ
    Blend: AUG-CC-PVTZ
  Basis Set: (AUG-CC-PVTZ AUX)
    Blend: AUG-CC-PVTZ-JKFIT
	 Reference Energy          =    -570.4204193156085694 [Eh]
	 Singles Energy            =      -0.0000000000000000 [Eh]
	 Same-Spin Energy          =      -0.6383635992970378 [Eh]
	 Opposite-Spin Energy      =      -1.9772515589088564 [Eh]
	 Correlation Energy        =      -2.6156151582058942 [Eh]
	 Total Energy              =    -573.0360344738144249 [Eh]

	 ================> DF-SCS-MP2 Energies <==================
	-----------------------------------------------------------
	 SCS Same-Spin Scale       =       0.3333333333333333 [-]
	 SCS Opposite-Spin Scale   =       1.2000000000000000 [-]
	 SCS Same-Spin Energy      =      -0.2127878664323459 [Eh]
	 SCS Opposite-Spin Energy  =      -2.3727018706906278 [Eh]
	 SCS Correlation Energy    =      -2.5854897371229737 [Eh]
	 SCS Total Energy          =    -573.0059090527315675 [Eh]
	-----------------------------------------------------------

  Dipole Moment: [D]
     X:    -3.4393      Y:    -0.0575      Z:    -0.1502     Total:     3.4431

*** Psi4 exiting successfully. Buy a developer a beer!
