                               Psi4 1.3.2 release

  ==> Input File <==

--------------------------------------------------------------------------
#psi4
#
memory 32 gb

molecule  {
0 1
  N        0.1771227     0.9539601     0.4092020
  N        2.3787710     0.9561460     0.2207080
  C       -1.1991060     0.3426720     0.1363540
  C        1.2435610     0.2442270     0.0818760
  C        0.1402100     2.4122570     0.3330790
  C       -1.5868590    -0.6993050     0.9921800
  C       -2.0897480     0.7954790    -0.8469150
  C        1.2497210    -1.1235430    -0.2722420
  C       -2.8402720    -1.2929990     0.8487880
  C       -3.3529590     0.2138150    -0.9676140
  C       -3.7300960    -0.8357430    -0.1274420
  C        2.4727450    -1.7522840    -0.4525030
  C        3.5488610     0.3171890     0.0404760
  C        3.6581100    -1.0291840    -0.2852360
  H        0.8914220     2.7227450     1.0594170
  H       -0.8398030     2.7868350     0.6320060
  H        0.4165240     2.8365740    -0.6404330
  H       -0.9028320    -1.0219250     1.7735780
  H       -1.7862700     1.5949720    -1.5186410
  H        0.3236690    -1.6661200    -0.4241870
  H       -3.1324200    -2.0992380     1.5176810
  H       -4.0389250     0.5738560    -1.7308950
  H       -4.7117870    -1.2913710    -0.2288330
  H        2.5003580    -2.8034100    -0.7313100
  H        4.4376410     0.9347650     0.1641390
  H        4.6312890    -1.4915970    -0.4182900
units angstrom
no_reorient  #important for SAPT in psi4, default
symmetry c1  #important for SAPT in psi4, default
}

set PROPERTIES_ORIGIN ["COM"]
properties('MP2/aug-cc-pvtz', properties = ['dipole'])
--------------------------------------------------------------------------

    Molecular point group: c1
  Charge       = 0
  Multiplicity = 1
  Basis Set: AUG-CC-PVTZ
    Blend: AUG-CC-PVTZ
  Basis Set: (AUG-CC-PVTZ AUX)
    Blend: AUG-CC-PVTZ-JKFIT

    Orbital Energies [Eh]
    ---------------------

    Doubly Occupied:

       1A    -15.585236     2A    -15.540536     3A    -11.308877
       4A    -11.287924     5A    -11.268533     6A    -11.252658
       7A    -11.250782     8A    -11.248356     9A    -11.247134
      10A    -11.246048    11A    -11.242961    12A    -11.241935
      13A    -11.223410    14A    -11.217047    15A     -1.301794
      16A     -1.208465    17A     -1.150336    18A     -1.075570
      19A     -1.027901    20A     -1.022535    21A     -1.006405
      22A     -0.930638    23A     -0.859369    24A     -0.836142
      25A     -0.833573    26A     -0.792927    27A     -0.726743
      28A     -0.695307    29A     -0.669974    30A     -0.655200
      31A     -0.647102    32A     -0.630003    33A     -0.612597
      34A     -0.605791    35A     -0.593035    36A     -0.588370
      37A     -0.560307    38A     -0.544168    39A     -0.533369
      40A     -0.523888    41A     -0.510603    42A     -0.505806
      43A     -0.493826    44A     -0.437792    45A     -0.408798
      46A     -0.373928    47A     -0.346903    48A     -0.342037
      49A     -0.288914

  @DF-RHF Final Energy:  -570.46742835745408

   => Energetics <=

    Nuclear Repulsion Energy =            819.1594037907284473
    One-Electron Energy =               -2398.2505570902571890
    Two-Electron Energy =                1008.6237249420746593
    Total Energy =                       -570.4674283574540823
  Basis Set: (AUG-CC-PVTZ AUX)
    Blend: AUG-CC-PVTZ-RI
    Molecular point group: c1

    Geometry (in Angstrom), charge = 0, multiplicity = 1:

       Center              X                  Y                   Z               Mass
    ------------   -----------------  -----------------  -----------------  -----------------
         N            0.156851393902     0.959702436990     0.398119712343    14.003074004430
         N            2.358499693902     0.961888336990     0.209625712343    14.003074004430
         C           -1.219377306098     0.348414336990     0.125271712343    12.000000000000
         C            1.223289693902     0.249969336990     0.070793712343    12.000000000000
         C            0.119938693902     2.417999336990     0.321996712343    12.000000000000
         C           -1.607130306098    -0.693562663010     0.981097712343    12.000000000000
         C           -2.110019306098     0.801221336990    -0.857997287657    12.000000000000
         C            1.229449693902    -1.117800663010    -0.283324287657    12.000000000000
         C           -2.860543306098    -1.287256663010     0.837705712343    12.000000000000
         C           -3.373230306098     0.219557336990    -0.978696287657    12.000000000000
         C           -3.750367306098    -0.830000663010    -0.138524287657    12.000000000000
         C            2.452473693902    -1.746541663010    -0.463585287657    12.000000000000
         C            3.528589693902     0.322931336990     0.029393712343    12.000000000000
         C            3.637838693902    -1.023441663010    -0.296318287657    12.000000000000
         H            0.871150693902     2.728487336990     1.048334712343     1.007825032230
         H           -0.860074306098     2.792577336990     0.620923712343     1.007825032230
         H            0.396252693902     2.842316336990    -0.651515287657     1.007825032230
         H           -0.923103306098    -1.016182663010     1.762495712343     1.007825032230
         H           -1.806541306098     1.600714336990    -1.529723287657     1.007825032230
         H            0.303397693902    -1.660377663010    -0.435269287657     1.007825032230
         H           -3.152691306098    -2.093495663010     1.506598712343     1.007825032230
         H           -4.059196306098     0.579598336990    -1.741977287657     1.007825032230
         H           -4.732058306098    -1.285628663010    -0.239915287657     1.007825032230
         H            2.480086693902    -2.797667663010    -0.742392287657     1.007825032230
         H            4.417369693902     0.940507336990     0.153056712343     1.007825032230
         H            4.611017693902    -1.485854663010    -0.429372287657     1.007825032230

  Basis Set: AUG-CC-PVTZ
    Blend: AUG-CC-PVTZ
  Basis Set: (AUG-CC-PVTZ AUX)
    Blend: AUG-CC-PVTZ-JKFIT
	 Reference Energy          =    -570.4674283574540823 [Eh]
	 Singles Energy            =      -0.0000000000000000 [Eh]
	 Same-Spin Energy          =      -0.6369966889192167 [Eh]
	 Opposite-Spin Energy      =      -1.9749894795492562 [Eh]
	 Correlation Energy        =      -2.6119861684684729 [Eh]
	 Total Energy              =    -573.0794145259225161 [Eh]

	 ================> DF-SCS-MP2 Energies <==================
	-----------------------------------------------------------
	 SCS Same-Spin Scale       =       0.3333333333333333 [-]
	 SCS Opposite-Spin Scale   =       1.2000000000000000 [-]
	 SCS Same-Spin Energy      =      -0.2123322296397389 [Eh]
	 SCS Opposite-Spin Energy  =      -2.3699873754591074 [Eh]
	 SCS Correlation Energy    =      -2.5823196050988462 [Eh]
	 SCS Total Energy          =    -573.0497479625529422 [Eh]
	-----------------------------------------------------------

  Dipole Moment: [D]
     X:    -1.8294      Y:    -0.8326      Z:    -0.5358     Total:     2.0802

*** Psi4 exiting successfully. Buy a developer a beer!
