                               Psi4 1.3.2 release

  ==> Input File <==

--------------------------------------------------------------------------
#psi4
#
memory 32 gb

molecule  {
0 1
  N        0.0678190     0.9536280     0.3022870
  N        2.3787710     0.9561460     0.2207080
  C       -1.1285362     0.2124762     0.1431385
  C        1.2435610     0.2442270     0.0818760
  C        0.1402100     2.4122570     0.3330790
  C       -1.5868590    -0.6993050     0.9921800
  C       -2.0897480     0.7954790    -0.8469150
  C        1.2497210    -1.1235430    -0.2722420
  C       -2.8402720    -1.2929990     0.8487880
  C       -3.3529590     0.2138150    -0.9676140
  C       -3.7300960    -0.8357430    -0.1274420
  C        2.4727450    -1.7522840    -0.4525030
  C        3.5488610     0.3171890     0.0404760
  C        3.6581100    -1.0291840    -0.2852360
  H        0.8914220     2.7227450     1.0594170
  H       -0.8398030     2.7868350     0.6320060
  H        0.4165240     2.8365740    -0.6404330
  H       -0.9028320    -1.0219250     1.7735780
  H       -1.7862700     1.5949720    -1.5186410
  H        0.3236690    -1.6661200    -0.4241870
  H       -3.1324200    -2.0992380     1.5176810
  H       -4.0389250     0.5738560    -1.7308950
  H       -4.7117870    -1.2913710    -0.2288330
  H        2.5003580    -2.8034100    -0.7313100
  H        4.4376410     0.9347650     0.1641390
  H        4.6312890    -1.4915970    -0.4182900
units angstrom
no_reorient  #important for SAPT in psi4, default
symmetry c1  #important for SAPT in psi4, default
}

set PROPERTIES_ORIGIN ["COM"]
properties('MP2/aug-cc-pvtz', properties = ['dipole'])
--------------------------------------------------------------------------

    Molecular point group: c1
  Charge       = 0
  Multiplicity = 1
  Basis Set: AUG-CC-PVTZ
    Blend: AUG-CC-PVTZ
  Basis Set: (AUG-CC-PVTZ AUX)
    Blend: AUG-CC-PVTZ-JKFIT

    Orbital Energies [Eh]
    ---------------------

    Doubly Occupied:

       1A    -15.579169     2A    -15.547434     3A    -11.314131
       4A    -11.280154     5A    -11.271764     6A    -11.254552
       7A    -11.253633     8A    -11.247815     9A    -11.243854
      10A    -11.242227    11A    -11.239344    12A    -11.230271
      13A    -11.226386    14A    -11.221910    15A     -1.295137
      16A     -1.219139    17A     -1.144094    18A     -1.078784
      19A     -1.031040    20A     -1.022149    21A     -1.000474
      22A     -0.929393    23A     -0.858825    24A     -0.840224
      25A     -0.835278    26A     -0.790047    27A     -0.726363
      28A     -0.695322    29A     -0.670542    30A     -0.657856
      31A     -0.645744    32A     -0.629217    33A     -0.616007
      34A     -0.599449    35A     -0.591952    36A     -0.585251
      37A     -0.569232    38A     -0.539069    39A     -0.535356
      40A     -0.528433    41A     -0.514366    42A     -0.505386
      43A     -0.491952    44A     -0.428227    45A     -0.412747
      46A     -0.376520    47A     -0.353592    48A     -0.329631
      49A     -0.288124

  @DF-RHF Final Energy:  -570.46541278424888

   => Energetics <=

    Nuclear Repulsion Energy =            820.2225805938509211
    One-Electron Energy =               -2400.4008559848853110
    Two-Electron Energy =                1009.7128626067853929
    Total Energy =                       -570.4654127842488833
  Basis Set: (AUG-CC-PVTZ AUX)
    Blend: AUG-CC-PVTZ-RI
    Molecular point group: c1

    Geometry (in Angstrom), charge = 0, multiplicity = 1:

       Center              X                  Y                   Z               Mass
    ------------   -----------------  -----------------  -----------------  -----------------
         N            0.051261708135     0.967882013301     0.298894686732    14.003074004430
         N            2.362213708135     0.970400013301     0.217315686732    14.003074004430
         C           -1.145093491865     0.226730213301     0.139746186732    12.000000000000
         C            1.227003708135     0.258481013301     0.078483686732    12.000000000000
         C            0.123652708135     2.426511013301     0.329686686732    12.000000000000
         C           -1.603416291865    -0.685050986699     0.988787686732    12.000000000000
         C           -2.106305291865     0.809733013301    -0.850307313268    12.000000000000
         C            1.233163708135    -1.109288986699    -0.275634313268    12.000000000000
         C           -2.856829291865    -1.278744986699     0.845395686732    12.000000000000
         C           -3.369516291865     0.228069013301    -0.971006313268    12.000000000000
         C           -3.746653291865    -0.821488986699    -0.130834313268    12.000000000000
         C            2.456187708135    -1.738029986699    -0.455895313268    12.000000000000
         C            3.532303708135     0.331443013301     0.037083686732    12.000000000000
         C            3.641552708135    -1.014929986699    -0.288628313268    12.000000000000
         H            0.874864708135     2.736999013301     1.056024686732     1.007825032230
         H           -0.856360291865     2.801089013301     0.628613686732     1.007825032230
         H            0.399966708135     2.850828013301    -0.643825313268     1.007825032230
         H           -0.919389291865    -1.007670986699     1.770185686732     1.007825032230
         H           -1.802827291865     1.609226013301    -1.522033313268     1.007825032230
         H            0.307111708135    -1.651865986699    -0.427579313268     1.007825032230
         H           -3.148977291865    -2.084983986699     1.514288686732     1.007825032230
         H           -4.055482291865     0.588110013301    -1.734287313268     1.007825032230
         H           -4.728344291865    -1.277116986699    -0.232225313268     1.007825032230
         H            2.483800708135    -2.789155986699    -0.734702313268     1.007825032230
         H            4.421083708135     0.949019013301     0.160746686732     1.007825032230
         H            4.614731708135    -1.477342986699    -0.421682313268     1.007825032230

  Basis Set: AUG-CC-PVTZ
    Blend: AUG-CC-PVTZ
  Basis Set: (AUG-CC-PVTZ AUX)
    Blend: AUG-CC-PVTZ-JKFIT
	 Reference Energy          =    -570.4654127842488833 [Eh]
	 Singles Energy            =      -0.0000000000000000 [Eh]
	 Same-Spin Energy          =      -0.6374510663647942 [Eh]
	 Opposite-Spin Energy      =      -1.9756448175464183 [Eh]
	 Correlation Energy        =      -2.6130958839112126 [Eh]
	 Total Energy              =    -573.0785086681601115 [Eh]

	 ================> DF-SCS-MP2 Energies <==================
	-----------------------------------------------------------
	 SCS Same-Spin Scale       =       0.3333333333333333 [-]
	 SCS Opposite-Spin Scale   =       1.2000000000000000 [-]
	 SCS Same-Spin Energy      =      -0.2124836887882647 [Eh]
	 SCS Opposite-Spin Energy  =      -2.3707737810557017 [Eh]
	 SCS Correlation Energy    =      -2.5832574698439665 [Eh]
	 SCS Total Energy          =    -573.0486702540928263 [Eh]
	-----------------------------------------------------------

  Dipole Moment: [D]
     X:    -1.2463      Y:    -0.8328      Z:    -0.3894     Total:     1.5487

*** Psi4 exiting successfully. Buy a developer a beer!
