                               Psi4 1.3.2 release

  ==> Input File <==

--------------------------------------------------------------------------
#psi4
#
memory 32 gb

molecule  {
0 1
  N        0.0765786     0.9231610     0.3402200
  N        2.3787710     0.9561460     0.2207080
  C       -1.1991060     0.3426720     0.1363540
  C        1.2435610     0.2442270     0.0818760
  C        0.1402100     2.4122570     0.3330790
  C       -1.5868590    -0.6993050     0.9921800
  C       -2.0897480     0.7954790    -0.8469150
  C        1.2497210    -1.1235430    -0.2722420
  C       -2.8402720    -1.2929990     0.8487880
  C       -3.3529590     0.2138150    -0.9676140
  C       -3.7300960    -0.8357430    -0.1274420
  C        2.4727450    -1.7522840    -0.4525030
  C        3.5488610     0.3171890     0.0404760
  C        3.6581100    -1.0291840    -0.2852360
  H        0.8914220     2.7227450     1.0594170
  H       -0.8398030     2.7868350     0.6320060
  H        0.4165240     2.8365740    -0.6404330
  H       -0.9028320    -1.0219250     1.7735780
  H       -1.7862700     1.5949720    -1.5186410
  H        0.3236690    -1.6661200    -0.4241870
  H       -3.1324200    -2.0992380     1.5176810
  H       -4.0389250     0.5738560    -1.7308950
  H       -4.7117870    -1.2913710    -0.2288330
  H        2.5003580    -2.8034100    -0.7313100
  H        4.4376410     0.9347650     0.1641390
  H        4.6312890    -1.4915970    -0.4182900
units angstrom
no_reorient  #important for SAPT in psi4, default
symmetry c1  #important for SAPT in psi4, default
}

set PROPERTIES_ORIGIN ["COM"]
properties('MP2/aug-cc-pvtz', properties = ['dipole'])
--------------------------------------------------------------------------

    Molecular point group: c1
  Charge       = 0
  Multiplicity = 1
  Basis Set: AUG-CC-PVTZ
    Blend: AUG-CC-PVTZ
  Basis Set: (AUG-CC-PVTZ AUX)
    Blend: AUG-CC-PVTZ-JKFIT

    Orbital Energies [Eh]
    ---------------------

    Doubly Occupied:

       1A    -15.580853     2A    -15.547861     3A    -11.315702
       4A    -11.280443     5A    -11.272030     6A    -11.254254
       7A    -11.252434     8A    -11.244347     9A    -11.243155
      10A    -11.240653    11A    -11.238569    12A    -11.237228
      13A    -11.225997    14A    -11.221674    15A     -1.295864
      16A     -1.219092    17A     -1.143988    18A     -1.078383
      19A     -1.028561    20A     -1.020941    21A     -1.002105
      22A     -0.928208    23A     -0.860786    24A     -0.842808
      25A     -0.833785    26A     -0.792036    27A     -0.731037
      28A     -0.692781    29A     -0.669046    30A     -0.658228
      31A     -0.647742    32A     -0.628025    33A     -0.613769
      34A     -0.603131    35A     -0.590453    36A     -0.581386
      37A     -0.566292    38A     -0.541223    39A     -0.535050
      40A     -0.526846    41A     -0.511634    42A     -0.506140
      43A     -0.500089    44A     -0.433711    45A     -0.412504
      46A     -0.376733    47A     -0.344134    48A     -0.338944
      49A     -0.288837

  @DF-RHF Final Energy:  -570.48282590863494

   => Energetics <=

    Nuclear Repulsion Energy =            819.8047402577614093
    One-Electron Energy =               -2399.5761483718965792
    Two-Electron Energy =                1009.2885822055003473
    Total Energy =                       -570.4828259086349362
  Basis Set: (AUG-CC-PVTZ AUX)
    Blend: AUG-CC-PVTZ-RI
    Molecular point group: c1

    Geometry (in Angstrom), charge = 0, multiplicity = 1:

       Center              X                  Y                   Z               Mass
    ------------   -----------------  -----------------  -----------------  -----------------
         N            0.063954909887     0.931245987523     0.334384642257    14.003074004430
         N            2.366147309887     0.964230987523     0.214872642257    14.003074004430
         C           -1.211729690113     0.350756987523     0.130518642257    12.000000000000
         C            1.230937309887     0.252311987523     0.076040642257    12.000000000000
         C            0.127586309887     2.420341987523     0.327243642257    12.000000000000
         C           -1.599482690113    -0.691220012477     0.986344642257    12.000000000000
         C           -2.102371690113     0.803563987523    -0.852750357743    12.000000000000
         C            1.237097309887    -1.115458012477    -0.278077357743    12.000000000000
         C           -2.852895690113    -1.284914012477     0.842952642257    12.000000000000
         C           -3.365582690113     0.221899987523    -0.973449357743    12.000000000000
         C           -3.742719690113    -0.827658012477    -0.133277357743    12.000000000000
         C            2.460121309887    -1.744199012477    -0.458338357743    12.000000000000
         C            3.536237309887     0.325273987523     0.034640642257    12.000000000000
         C            3.645486309887    -1.021099012477    -0.291071357743    12.000000000000
         H            0.878798309887     2.730829987523     1.053581642257     1.007825032230
         H           -0.852426690113     2.794919987523     0.626170642257     1.007825032230
         H            0.403900309887     2.844658987523    -0.646268357743     1.007825032230
         H           -0.915455690113    -1.013840012477     1.767742642257     1.007825032230
         H           -1.798893690113     1.603056987523    -1.524476357743     1.007825032230
         H            0.311045309887    -1.658035012477    -0.430022357743     1.007825032230
         H           -3.145043690113    -2.091153012477     1.511845642257     1.007825032230
         H           -4.051548690113     0.581940987523    -1.736730357743     1.007825032230
         H           -4.724410690113    -1.283286012477    -0.234668357743     1.007825032230
         H            2.487734309887    -2.795325012477    -0.737145357743     1.007825032230
         H            4.425017309887     0.942849987523     0.158303642257     1.007825032230
         H            4.618665309887    -1.483512012477    -0.424125357743     1.007825032230

  Basis Set: AUG-CC-PVTZ
    Blend: AUG-CC-PVTZ
  Basis Set: (AUG-CC-PVTZ AUX)
    Blend: AUG-CC-PVTZ-JKFIT
	 Reference Energy          =    -570.4828259086349362 [Eh]
	 Singles Energy            =      -0.0000000000000000 [Eh]
	 Same-Spin Energy          =      -0.6370555645947197 [Eh]
	 Opposite-Spin Energy      =      -1.9741091953640706 [Eh]
	 Correlation Energy        =      -2.6111647599587902 [Eh]
	 Total Energy              =    -573.0939906685937331 [Eh]

	 ================> DF-SCS-MP2 Energies <==================
	-----------------------------------------------------------
	 SCS Same-Spin Scale       =       0.3333333333333333 [-]
	 SCS Opposite-Spin Scale   =       1.2000000000000000 [-]
	 SCS Same-Spin Energy      =      -0.2123518548649065 [Eh]
	 SCS Opposite-Spin Energy  =      -2.3689310344368848 [Eh]
	 SCS Correlation Energy    =      -2.5812828893017912 [Eh]
	 SCS Total Energy          =    -573.0641087979366830 [Eh]
	-----------------------------------------------------------

  Dipole Moment: [D]
     X:    -1.2674      Y:    -0.8211      Z:    -0.4800     Total:     1.5845

*** Psi4 exiting successfully. Buy a developer a beer!
