                               Psi4 1.3.2 release

  ==> Input File <==

--------------------------------------------------------------------------
#psi4
#
memory 32 gb

molecule  {
0 1
  N        0.1517839     1.0693655     0.3296040
  N        2.3787710     0.9561460     0.2207080
  C       -1.1991060     0.3426720     0.1363540
  C        1.2435610     0.2442270     0.0818760
  C        0.1402100     2.4122570     0.3330790
  C       -1.5868590    -0.6993050     0.9921800
  C       -2.0897480     0.7954790    -0.8469150
  C        1.2497210    -1.1235430    -0.2722420
  C       -2.8402720    -1.2929990     0.8487880
  C       -3.3529590     0.2138150    -0.9676140
  C       -3.7300960    -0.8357430    -0.1274420
  C        2.4727450    -1.7522840    -0.4525030
  C        3.5488610     0.3171890     0.0404760
  C        3.6581100    -1.0291840    -0.2852360
  H        0.8914220     2.7227450     1.0594170
  H       -0.8398030     2.7868350     0.6320060
  H        0.4165240     2.8365740    -0.6404330
  H       -0.9028320    -1.0219250     1.7735780
  H       -1.7862700     1.5949720    -1.5186410
  H        0.3236690    -1.6661200    -0.4241870
  H       -3.1324200    -2.0992380     1.5176810
  H       -4.0389250     0.5738560    -1.7308950
  H       -4.7117870    -1.2913710    -0.2288330
  H        2.5003580    -2.8034100    -0.7313100
  H        4.4376410     0.9347650     0.1641390
  H        4.6312890    -1.4915970    -0.4182900
units angstrom
no_reorient  #important for SAPT in psi4, default
symmetry c1  #important for SAPT in psi4, default
}

set PROPERTIES_ORIGIN ["COM"]
properties('MP2/aug-cc-pvtz', properties = ['dipole'])
--------------------------------------------------------------------------

    Molecular point group: c1
  Charge       = 0
  Multiplicity = 1
  Basis Set: AUG-CC-PVTZ
    Blend: AUG-CC-PVTZ
  Basis Set: (AUG-CC-PVTZ AUX)
    Blend: AUG-CC-PVTZ-JKFIT

    Orbital Energies [Eh]
    ---------------------

    Doubly Occupied:

       1A    -15.578307     2A    -15.545742     3A    -11.316730
       4A    -11.287387     5A    -11.271050     6A    -11.256607
       7A    -11.246772     8A    -11.246385     9A    -11.243885
      10A    -11.243846    11A    -11.242232    12A    -11.237430
      13A    -11.230610    14A    -11.222570    15A     -1.297368
      16A     -1.215797    17A     -1.151238    18A     -1.079279
      19A     -1.029829    20A     -1.020900    21A     -1.016280
      22A     -0.922865    23A     -0.859051    24A     -0.837060
      25A     -0.831457    26A     -0.793336    27A     -0.724615
      28A     -0.699329    29A     -0.670962    30A     -0.655823
      31A     -0.648336    32A     -0.634561    33A     -0.617715
      34A     -0.607239    35A     -0.600490    36A     -0.592244
      37A     -0.566680    38A     -0.538166    39A     -0.533469
      40A     -0.528376    41A     -0.509089    42A     -0.504181
      43A     -0.487682    44A     -0.421772    45A     -0.412245
      46A     -0.376495    47A     -0.346662    48A     -0.342394
      49A     -0.290262

  @DF-RHF Final Energy:  -570.45762578089045

   => Energetics <=

    Nuclear Repulsion Energy =            818.7602180468753659
    One-Electron Energy =               -2397.3700881631070843
    Two-Electron Energy =                1008.1522443353413792
    Total Energy =                       -570.4576257808904529
  Basis Set: (AUG-CC-PVTZ AUX)
    Blend: AUG-CC-PVTZ-RI
    Molecular point group: c1

    Geometry (in Angstrom), charge = 0, multiplicity = 1:

       Center              X                  Y                   Z               Mass
    ------------   -----------------  -----------------  -----------------  -----------------
         N            0.133439921432     1.066329836274     0.324576119685    14.003074004430
         N            2.360427021432     0.953110336274     0.215680119685    14.003074004430
         C           -1.217449978568     0.339636336274     0.131326119685    12.000000000000
         C            1.225217021432     0.241191336274     0.076848119685    12.000000000000
         C            0.121866021432     2.409221336274     0.328051119685    12.000000000000
         C           -1.605202978568    -0.702340663726     0.987152119685    12.000000000000
         C           -2.108091978568     0.792443336274    -0.851942880315    12.000000000000
         C            1.231377021432    -1.126578663726    -0.277269880315    12.000000000000
         C           -2.858615978568    -1.296034663726     0.843760119685    12.000000000000
         C           -3.371302978568     0.210779336274    -0.972641880315    12.000000000000
         C           -3.748439978568    -0.838778663726    -0.132469880315    12.000000000000
         C            2.454401021432    -1.755319663726    -0.457530880315    12.000000000000
         C            3.530517021432     0.314153336274     0.035448119685    12.000000000000
         C            3.639766021432    -1.032219663726    -0.290263880315    12.000000000000
         H            0.873078021432     2.719709336274     1.054389119685     1.007825032230
         H           -0.858146978568     2.783799336274     0.626978119685     1.007825032230
         H            0.398180021432     2.833538336274    -0.645460880315     1.007825032230
         H           -0.921175978568    -1.024960663726     1.768550119685     1.007825032230
         H           -1.804613978568     1.591936336274    -1.523668880315     1.007825032230
         H            0.305325021432    -1.669155663726    -0.429214880315     1.007825032230
         H           -3.150763978568    -2.102273663726     1.512653119685     1.007825032230
         H           -4.057268978568     0.570820336274    -1.735922880315     1.007825032230
         H           -4.730130978568    -1.294406663726    -0.233860880315     1.007825032230
         H            2.482014021432    -2.806445663726    -0.736337880315     1.007825032230
         H            4.419297021432     0.931729336274     0.159111119685     1.007825032230
         H            4.612945021432    -1.494632663726    -0.423317880315     1.007825032230

  Basis Set: AUG-CC-PVTZ
    Blend: AUG-CC-PVTZ
  Basis Set: (AUG-CC-PVTZ AUX)
    Blend: AUG-CC-PVTZ-JKFIT
	 Reference Energy          =    -570.4576257808904529 [Eh]
	 Singles Energy            =      -0.0000000000000000 [Eh]
	 Same-Spin Energy          =      -0.6378655188923389 [Eh]
	 Opposite-Spin Energy      =      -1.9756029674441802 [Eh]
	 Correlation Energy        =      -2.6134684863365192 [Eh]
	 Total Energy              =    -573.0710942672269539 [Eh]

	 ================> DF-SCS-MP2 Energies <==================
	-----------------------------------------------------------
	 SCS Same-Spin Scale       =       0.3333333333333333 [-]
	 SCS Opposite-Spin Scale   =       1.2000000000000000 [-]
	 SCS Same-Spin Energy      =      -0.2126218396307796 [Eh]
	 SCS Opposite-Spin Energy  =      -2.3707235609330159 [Eh]
	 SCS Correlation Energy    =      -2.5833454005637955 [Eh]
	 SCS Total Energy          =    -573.0409711814542106 [Eh]
	-----------------------------------------------------------

  Dipole Moment: [D]
     X:    -1.5407      Y:    -1.2409      Z:    -0.4606     Total:     2.0312

*** Psi4 exiting successfully. Buy a developer a beer!
