                               Psi4 1.3.2 release

  ==> Input File <==

--------------------------------------------------------------------------
#psi4
#
memory 32 gb

molecule  {
0 1
  N       -0.0046832     0.9622920     0.2311255
  N        2.3787710     0.9561460     0.2207080
  C       -1.1991060     0.3426720     0.1363540
  C        1.2435610     0.2442270     0.0818760
  C        0.1402100     2.4122570     0.3330790
  C       -1.5868590    -0.6993050     0.9921800
  C       -2.0897480     0.7954790    -0.8469150
  C        1.2497210    -1.1235430    -0.2722420
  C       -2.8402720    -1.2929990     0.8487880
  C       -3.3529590     0.2138150    -0.9676140
  C       -3.7300960    -0.8357430    -0.1274420
  C        2.4727450    -1.7522840    -0.4525030
  C        3.5488610     0.3171890     0.0404760
  C        3.6581100    -1.0291840    -0.2852360
  H        0.8914220     2.7227450     1.0594170
  H       -0.8398030     2.7868350     0.6320060
  H        0.4165240     2.8365740    -0.6404330
  H       -0.9028320    -1.0219250     1.7735780
  H       -1.7862700     1.5949720    -1.5186410
  H        0.3236690    -1.6661200    -0.4241870
  H       -3.1324200    -2.0992380     1.5176810
  H       -4.0389250     0.5738560    -1.7308950
  H       -4.7117870    -1.2913710    -0.2288330
  H        2.5003580    -2.8034100    -0.7313100
  H        4.4376410     0.9347650     0.1641390
  H        4.6312890    -1.4915970    -0.4182900
units angstrom
no_reorient  #important for SAPT in psi4, default
symmetry c1  #important for SAPT in psi4, default
}

set PROPERTIES_ORIGIN ["COM"]
properties('MP2/aug-cc-pvtz', properties = ['dipole'])
--------------------------------------------------------------------------

    Molecular point group: c1
  Charge       = 0
  Multiplicity = 1
  Basis Set: AUG-CC-PVTZ
    Blend: AUG-CC-PVTZ
  Basis Set: (AUG-CC-PVTZ AUX)
    Blend: AUG-CC-PVTZ-JKFIT

    Orbital Energies [Eh]
    ---------------------

    Doubly Occupied:

       1A    -15.575048     2A    -15.556011     3A    -11.322864
       4A    -11.275961     5A    -11.273508     6A    -11.257547
       7A    -11.249798     8A    -11.241016     9A    -11.239886
      10A    -11.234095    11A    -11.233925    12A    -11.232374
      13A    -11.231636    14A    -11.228113    15A     -1.293404
      16A     -1.229901    17A     -1.138672    18A     -1.082527
      19A     -1.029940    20A     -1.017743    21A     -1.003764
      22A     -0.925239    23A     -0.860733    24A     -0.848817
      25A     -0.831363    26A     -0.790097    27A     -0.730546
      28A     -0.692477    29A     -0.669588    30A     -0.659726
      31A     -0.648951    32A     -0.630018    33A     -0.616980
      34A     -0.600880    35A     -0.590766    36A     -0.582007
      37A     -0.574893    38A     -0.537531    39A     -0.535812
      40A     -0.526712    41A     -0.511004    42A     -0.504861
      43A     -0.497016    44A     -0.423690    45A     -0.417771
      46A     -0.380345    47A     -0.342288    48A     -0.337588
      49A     -0.287472

  @DF-RHF Final Energy:  -570.47523338842632

   => Energetics <=

    Nuclear Repulsion Energy =            820.0325407093441754
    One-Electron Energy =               -2400.0097312694924767
    Two-Electron Energy =                1009.5019571717219833
    Total Energy =                       -570.4752333884263180
  Basis Set: (AUG-CC-PVTZ AUX)
    Blend: AUG-CC-PVTZ-RI
    Molecular point group: c1

    Geometry (in Angstrom), charge = 0, multiplicity = 1:

       Center              X                  Y                   Z               Mass
    ------------   -----------------  -----------------  -----------------  -----------------
         N           -0.011125930309     0.967400593472     0.233588121373    14.003074004430
         N            2.372328269691     0.961254593472     0.223170621373    14.003074004430
         C           -1.205548730309     0.347780593472     0.138816621373    12.000000000000
         C            1.237118269691     0.249335593472     0.084338621373    12.000000000000
         C            0.133767269691     2.417365593472     0.335541621373    12.000000000000
         C           -1.593301730309    -0.694196406528     0.994642621373    12.000000000000
         C           -2.096190730309     0.800587593472    -0.844452378627    12.000000000000
         C            1.243278269691    -1.118434406528    -0.269779378627    12.000000000000
         C           -2.846714730309    -1.287890406528     0.851250621373    12.000000000000
         C           -3.359401730309     0.218923593472    -0.965151378627    12.000000000000
         C           -3.736538730309    -0.830634406528    -0.124979378627    12.000000000000
         C            2.466302269691    -1.747175406528    -0.450040378627    12.000000000000
         C            3.542418269691     0.322297593472     0.042938621373    12.000000000000
         C            3.651667269691    -1.024075406528    -0.282773378627    12.000000000000
         H            0.884979269691     2.727853593472     1.061879621373     1.007825032230
         H           -0.846245730309     2.791943593472     0.634468621373     1.007825032230
         H            0.410081269691     2.841682593472    -0.637970378627     1.007825032230
         H           -0.909274730309    -1.016816406528     1.776040621373     1.007825032230
         H           -1.792712730309     1.600080593472    -1.516178378627     1.007825032230
         H            0.317226269691    -1.661011406528    -0.421724378627     1.007825032230
         H           -3.138862730309    -2.094129406528     1.520143621373     1.007825032230
         H           -4.045367730309     0.578964593472    -1.728432378627     1.007825032230
         H           -4.718229730309    -1.286262406528    -0.226370378627     1.007825032230
         H            2.493915269691    -2.798301406528    -0.728847378627     1.007825032230
         H            4.431198269691     0.939873593472     0.166601621373     1.007825032230
         H            4.624846269691    -1.486488406528    -0.415827378627     1.007825032230

  Basis Set: AUG-CC-PVTZ
    Blend: AUG-CC-PVTZ
  Basis Set: (AUG-CC-PVTZ AUX)
    Blend: AUG-CC-PVTZ-JKFIT
	 Reference Energy          =    -570.4752333884263180 [Eh]
	 Singles Energy            =      -0.0000000000000000 [Eh]
	 Same-Spin Energy          =      -0.6380178550582820 [Eh]
	 Opposite-Spin Energy      =      -1.9749463320194023 [Eh]
	 Correlation Energy        =      -2.6129641870776843 [Eh]
	 Total Energy              =    -573.0881975755039548 [Eh]

	 ================> DF-SCS-MP2 Energies <==================
	-----------------------------------------------------------
	 SCS Same-Spin Scale       =       0.3333333333333333 [-]
	 SCS Opposite-Spin Scale   =       1.2000000000000000 [-]
	 SCS Same-Spin Energy      =      -0.2126726183527607 [Eh]
	 SCS Opposite-Spin Energy  =      -2.3699355984232828 [Eh]
	 SCS Correlation Energy    =      -2.5826082167760434 [Eh]
	 SCS Total Energy          =    -573.0578416052023840 [Eh]
	-----------------------------------------------------------

  Dipole Moment: [D]
     X:    -0.5986      Y:    -0.9630      Z:    -0.3800     Total:     1.1958

*** Psi4 exiting successfully. Buy a developer a beer!
