                               Psi4 1.4a3.dev225

  ==> Input File <==

--------------------------------------------------------------------------
#psi4
#
memory 32 gb

molecule  {
0 1
  N        0.0678190     0.9536280     0.3022870
  N        2.3787710     0.9561460     0.2207080
  C       -1.1991060     0.3426720     0.1363540
  C        1.2604145     0.2547963     0.0839371
  C        0.1402100     2.4122570     0.3330790
  C       -1.5868590    -0.6993050     0.9921800
  C       -2.0897480     0.7954790    -0.8469150
  C        1.2497210    -1.1235430    -0.2722420
  C       -2.8402720    -1.2929990     0.8487880
  C       -3.3529590     0.2138150    -0.9676140
  C       -3.7300960    -0.8357430    -0.1274420
  C        2.4727450    -1.7522840    -0.4525030
  C        3.5488610     0.3171890     0.0404760
  C        3.6581100    -1.0291840    -0.2852360
  H        0.8914220     2.7227450     1.0594170
  H       -0.8398030     2.7868350     0.6320060
  H        0.4165240     2.8365740    -0.6404330
  H       -0.9028320    -1.0219250     1.7735780
  H       -1.7862700     1.5949720    -1.5186410
  H        0.3236690    -1.6661200    -0.4241870
  H       -3.1324200    -2.0992380     1.5176810
  H       -4.0389250     0.5738560    -1.7308950
  H       -4.7117870    -1.2913710    -0.2288330
  H        2.5003580    -2.8034100    -0.7313100
  H        4.4376410     0.9347650     0.1641390
  H        4.6312890    -1.4915970    -0.4182900
units angstrom
no_reorient  #important for SAPT in psi4, default
symmetry c1  #important for SAPT in psi4, default
}

set PROPERTIES_ORIGIN ["COM"]
properties('MP2/aug-cc-pvtz', properties = ['dipole'])
--------------------------------------------------------------------------

    Molecular point group: c1
  Charge       = 0
  Multiplicity = 1
  Basis Set: AUG-CC-PVTZ
    Blend: AUG-CC-PVTZ
  Basis Set: (AUG-CC-PVTZ AUX)
    Blend: AUG-CC-PVTZ-JKFIT

    Orbital Energies [Eh]
    ---------------------

    Doubly Occupied:

       1A    -15.577571     2A    -15.548537     3A    -11.317204
       4A    -11.280056     5A    -11.273139     6A    -11.254888
       7A    -11.248626     8A    -11.243421     9A    -11.243096
      10A    -11.238889    11A    -11.237917    12A    -11.237417
      13A    -11.229212    14A    -11.223703    15A     -1.295289
      16A     -1.222919    17A     -1.143414    18A     -1.080557
      19A     -1.027816    20A     -1.020157    21A     -1.004259
      22A     -0.925316    23A     -0.861580    24A     -0.842892
      25A     -0.832712    26A     -0.791987    27A     -0.730169
      28A     -0.693327    29A     -0.669609    30A     -0.658739
      31A     -0.647432    32A     -0.629241    33A     -0.614369
      34A     -0.602775    35A     -0.590782    36A     -0.583297
      37A     -0.568614    38A     -0.538232    39A     -0.536795
      40A     -0.528252    41A     -0.511339    42A     -0.504924
      43A     -0.500716    44A     -0.428500    45A     -0.414631
      46A     -0.378869    47A     -0.343819    48A     -0.338742
      49A     -0.288918

  @DF-RHF Final Energy:  -570.48437663454058

   => Energetics <=

    Nuclear Repulsion Energy =            819.7374977184363161
    One-Electron Energy =               -2399.4344218457617899
    Two-Electron Energy =                1009.2125474927848927
    Total Energy =                       -570.4843766345405811
  Basis Set: (AUG-CC-PVTZ AUX)
    Blend: AUG-CC-PVTZ-RI
    Molecular point group: c1

    Geometry (in Angstrom), charge = 0, multiplicity = 1:

       Center              X                  Y                   Z               Mass
    ------------   -----------------  -----------------  -----------------  -----------------
         N            0.054763041272     0.958706669706     0.299202567151    14.003074004430
         N            2.365715041272     0.961224669706     0.217623567151    14.003074004430
         C           -1.212161958728     0.347750669706     0.133269567151    12.000000000000
         C            1.247358541272     0.259874969706     0.080852667151    12.000000000000
         C            0.127154041272     2.417335669706     0.329994567151    12.000000000000
         C           -1.599914958728    -0.694226330294     0.989095567151    12.000000000000
         C           -2.102803958728     0.800557669706    -0.849999432849    12.000000000000
         C            1.236665041272    -1.118464330294    -0.275326432849    12.000000000000
         C           -2.853327958728    -1.287920330294     0.845703567151    12.000000000000
         C           -3.366014958728     0.218893669706    -0.970698432849    12.000000000000
         C           -3.743151958728    -0.830664330294    -0.130526432849    12.000000000000
         C            2.459689041272    -1.747205330294    -0.455587432849    12.000000000000
         C            3.535805041272     0.322267669706     0.037391567151    12.000000000000
         C            3.645054041272    -1.024105330294    -0.288320432849    12.000000000000
         H            0.878366041272     2.727823669706     1.056332567151     1.007825032230
         H           -0.852858958728     2.791913669706     0.628921567151     1.007825032230
         H            0.403468041272     2.841652669706    -0.643517432849     1.007825032230
         H           -0.915887958728    -1.016846330294     1.770493567151     1.007825032230
         H           -1.799325958728     1.600050669706    -1.521725432849     1.007825032230
         H            0.310613041272    -1.661041330294    -0.427271432849     1.007825032230
         H           -3.145475958728    -2.094159330294     1.514596567151     1.007825032230
         H           -4.051980958728     0.578934669706    -1.733979432849     1.007825032230
         H           -4.724842958728    -1.286292330294    -0.231917432849     1.007825032230
         H            2.487302041272    -2.798331330294    -0.734394432849     1.007825032230
         H            4.424585041272     0.939843669706     0.161054567151     1.007825032230
         H            4.618233041272    -1.486518330294    -0.421374432849     1.007825032230

  Basis Set: AUG-CC-PVTZ
    Blend: AUG-CC-PVTZ
  Basis Set: (AUG-CC-PVTZ AUX)
    Blend: AUG-CC-PVTZ-JKFIT
	 Reference Energy          =    -570.4843766345405811 [Eh]
	 Singles Energy            =      -0.0000000000000000 [Eh]
	 Same-Spin Energy          =      -0.6368755704833045 [Eh]
	 Opposite-Spin Energy      =      -1.9735718991512696 [Eh]
	 Correlation Energy        =      -2.6104474696345741 [Eh]
	 Total Energy              =    -573.0948241041751317 [Eh]

	 ================> DF-SCS-MP2 Energies <==================
	-----------------------------------------------------------
	 SCS Same-Spin Scale       =       0.3333333333333333 [-]
	 SCS Opposite-Spin Scale   =       1.2000000000000000 [-]
	 SCS Same-Spin Energy      =      -0.2122918568277681 [Eh]
	 SCS Opposite-Spin Energy  =      -2.3682862789815236 [Eh]
	 SCS Correlation Energy    =      -2.5805781358092919 [Eh]
	 SCS Total Energy          =    -573.0649547703499138 [Eh]
	-----------------------------------------------------------

  Dipole Moment: [D]
     X:    -1.1159      Y:    -0.9326      Z:    -0.4489     Total:     1.5220

*** Psi4 exiting successfully. Buy a developer a beer!
