                               Psi4 1.3.2 release

  ==> Input File <==

--------------------------------------------------------------------------
#psi4
#
memory 32 gb

molecule  {
0 1
  N        0.0678190     0.9536280     0.3022870
  N        2.3787710     0.9561460     0.2207080
  C       -1.1770899     0.2984576     0.1384168
  C        1.2435610     0.2442270     0.0818760
  C        0.1402100     2.4122570     0.3330790
  C       -1.5868590    -0.6993050     0.9921800
  C       -2.0897480     0.7954790    -0.8469150
  C        1.2497210    -1.1235430    -0.2722420
  C       -2.8402720    -1.2929990     0.8487880
  C       -3.3529590     0.2138150    -0.9676140
  C       -3.7300960    -0.8357430    -0.1274420
  C        2.4727450    -1.7522840    -0.4525030
  C        3.5488610     0.3171890     0.0404760
  C        3.6581100    -1.0291840    -0.2852360
  H        0.8914220     2.7227450     1.0594170
  H       -0.8398030     2.7868350     0.6320060
  H        0.4165240     2.8365740    -0.6404330
  H       -0.9028320    -1.0219250     1.7735780
  H       -1.7862700     1.5949720    -1.5186410
  H        0.3236690    -1.6661200    -0.4241870
  H       -3.1324200    -2.0992380     1.5176810
  H       -4.0389250     0.5738560    -1.7308950
  H       -4.7117870    -1.2913710    -0.2288330
  H        2.5003580    -2.8034100    -0.7313100
  H        4.4376410     0.9347650     0.1641390
  H        4.6312890    -1.4915970    -0.4182900
units angstrom
no_reorient  #important for SAPT in psi4, default
symmetry c1  #important for SAPT in psi4, default
}

set PROPERTIES_ORIGIN ["COM"]
properties('MP2/aug-cc-pvtz', properties = ['dipole'])
--------------------------------------------------------------------------

    Molecular point group: c1
  Charge       = 0
  Multiplicity = 1
  Basis Set: AUG-CC-PVTZ
    Blend: AUG-CC-PVTZ
  Basis Set: (AUG-CC-PVTZ AUX)
    Blend: AUG-CC-PVTZ-JKFIT

    Orbital Energies [Eh]
    ---------------------

    Doubly Occupied:

       1A    -15.579133     2A    -15.548456     3A    -11.316133
       4A    -11.280180     5A    -11.272285     6A    -11.254886
       7A    -11.250953     8A    -11.243691     9A    -11.243543
      10A    -11.241985    11A    -11.238409    12A    -11.235164
      13A    -11.227129    14A    -11.222492    15A     -1.294856
      16A     -1.219950    17A     -1.143950    18A     -1.079016
      19A     -1.026257    20A     -1.023616    21A     -1.003797
      22A     -0.927602    23A     -0.859786    24A     -0.842243
      25A     -0.833846    26A     -0.791867    27A     -0.729076
      28A     -0.693937    29A     -0.669476    30A     -0.657955
      31A     -0.647370    32A     -0.629294    33A     -0.615212
      34A     -0.600161    35A     -0.593078    36A     -0.584473
      37A     -0.568919    38A     -0.538938    39A     -0.535363
      40A     -0.527992    41A     -0.511742    42A     -0.504885
      43A     -0.500425    44A     -0.429576    45A     -0.413283
      46A     -0.377041    47A     -0.347087    48A     -0.336191
      49A     -0.288380

  @DF-RHF Final Energy:  -570.48198739702582

   => Energetics <=

    Nuclear Repulsion Energy =            819.9376730955214043
    One-Electron Energy =               -2399.8371550980514257
    Two-Electron Energy =                1009.4174946055042028
    Total Energy =                       -570.4819873970258186
  Basis Set: (AUG-CC-PVTZ AUX)
    Blend: AUG-CC-PVTZ-RI
    Molecular point group: c1

    Geometry (in Angstrom), charge = 0, multiplicity = 1:

       Center              X                  Y                   Z               Mass
    ------------   -----------------  -----------------  -----------------  -----------------
         N            0.054426532941     0.962277578056     0.299202456342    14.003074004430
         N            2.365378532941     0.964795578056     0.217623456342    14.003074004430
         C           -1.190482367059     0.307107178056     0.135332256342    12.000000000000
         C            1.230168532941     0.252876578056     0.078791456342    12.000000000000
         C            0.126817532941     2.420906578056     0.329994456342    12.000000000000
         C           -1.600251467059    -0.690655421944     0.989095456342    12.000000000000
         C           -2.103140467059     0.804128578056    -0.849999543658    12.000000000000
         C            1.236328532941    -1.114893421944    -0.275326543658    12.000000000000
         C           -2.853664467059    -1.284349421944     0.845703456342    12.000000000000
         C           -3.366351467059     0.222464578056    -0.970698543658    12.000000000000
         C           -3.743488467059    -0.827093421944    -0.130526543658    12.000000000000
         C            2.459352532941    -1.743634421944    -0.455587543658    12.000000000000
         C            3.535468532941     0.325838578056     0.037391456342    12.000000000000
         C            3.644717532941    -1.020534421944    -0.288320543658    12.000000000000
         H            0.878029532941     2.731394578056     1.056332456342     1.007825032230
         H           -0.853195467059     2.795484578056     0.628921456342     1.007825032230
         H            0.403131532941     2.845223578056    -0.643517543658     1.007825032230
         H           -0.916224467059    -1.013275421944     1.770493456342     1.007825032230
         H           -1.799662467059     1.603621578056    -1.521725543658     1.007825032230
         H            0.310276532941    -1.657470421944    -0.427271543658     1.007825032230
         H           -3.145812467059    -2.090588421944     1.514596456342     1.007825032230
         H           -4.052317467059     0.582505578056    -1.733979543658     1.007825032230
         H           -4.725179467059    -1.282721421944    -0.231917543658     1.007825032230
         H            2.486965532941    -2.794760421944    -0.734394543658     1.007825032230
         H            4.424248532941     0.943414578056     0.161054456342     1.007825032230
         H            4.617896532941    -1.482947421944    -0.421374543658     1.007825032230

  Basis Set: AUG-CC-PVTZ
    Blend: AUG-CC-PVTZ
  Basis Set: (AUG-CC-PVTZ AUX)
    Blend: AUG-CC-PVTZ-JKFIT
	 Reference Energy          =    -570.4819873970258186 [Eh]
	 Singles Energy            =      -0.0000000000000000 [Eh]
	 Same-Spin Energy          =      -0.6372011693785430 [Eh]
	 Opposite-Spin Energy      =      -1.9741800355155372 [Eh]
	 Correlation Energy        =      -2.6113812048940801 [Eh]
	 Total Energy              =    -573.0933686019199058 [Eh]

	 ================> DF-SCS-MP2 Energies <==================
	-----------------------------------------------------------
	 SCS Same-Spin Scale       =       0.3333333333333333 [-]
	 SCS Opposite-Spin Scale   =       1.2000000000000000 [-]
	 SCS Same-Spin Energy      =      -0.2124003897928476 [Eh]
	 SCS Opposite-Spin Energy  =      -2.3690160426186444 [Eh]
	 SCS Correlation Energy    =      -2.5814164324114919 [Eh]
	 SCS Total Energy          =    -573.0634038294373340 [Eh]
	-----------------------------------------------------------

  Dipole Moment: [D]
     X:    -1.2122      Y:    -0.8759      Z:    -0.4220     Total:     1.5539

*** Psi4 exiting successfully. Buy a developer a beer!
