                               Psi4 1.4a3.dev225

  ==> Input File <==

--------------------------------------------------------------------------
#psi4
#
memory 32 gb

molecule  {
0 1
  N        0.0678190     0.9536280     0.3022870
  N        2.3787710     0.9561460     0.2207080
  C       -1.1991060     0.3426720     0.1363540
  C        1.2267075     0.2336577     0.0798149
  C        0.1402100     2.4122570     0.3330790
  C       -1.5868590    -0.6993050     0.9921800
  C       -2.0897480     0.7954790    -0.8469150
  C        1.2497210    -1.1235430    -0.2722420
  C       -2.8402720    -1.2929990     0.8487880
  C       -3.3529590     0.2138150    -0.9676140
  C       -3.7300960    -0.8357430    -0.1274420
  C        2.4727450    -1.7522840    -0.4525030
  C        3.5488610     0.3171890     0.0404760
  C        3.6581100    -1.0291840    -0.2852360
  H        0.8914220     2.7227450     1.0594170
  H       -0.8398030     2.7868350     0.6320060
  H        0.4165240     2.8365740    -0.6404330
  H       -0.9028320    -1.0219250     1.7735780
  H       -1.7862700     1.5949720    -1.5186410
  H        0.3236690    -1.6661200    -0.4241870
  H       -3.1324200    -2.0992380     1.5176810
  H       -4.0389250     0.5738560    -1.7308950
  H       -4.7117870    -1.2913710    -0.2288330
  H        2.5003580    -2.8034100    -0.7313100
  H        4.4376410     0.9347650     0.1641390
  H        4.6312890    -1.4915970    -0.4182900
units angstrom
no_reorient  #important for SAPT in psi4, default
symmetry c1  #important for SAPT in psi4, default
}

set PROPERTIES_ORIGIN ["COM"]
properties('MP2/aug-cc-pvtz', properties = ['dipole'])
--------------------------------------------------------------------------

    Molecular point group: c1
  Charge       = 0
  Multiplicity = 1
  Basis Set: AUG-CC-PVTZ
    Blend: AUG-CC-PVTZ
  Basis Set: (AUG-CC-PVTZ AUX)
    Blend: AUG-CC-PVTZ-JKFIT

    Orbital Energies [Eh]
    ---------------------

    Doubly Occupied:

       1A    -15.580496     2A    -15.549331     3A    -11.317041
       4A    -11.280458     5A    -11.271984     6A    -11.255228
       7A    -11.250701     8A    -11.244048     9A    -11.243723
      10A    -11.239724    11A    -11.238642    12A    -11.238288
      13A    -11.225756    14A    -11.221926    15A     -1.294821
      16A     -1.217593    17A     -1.144475    18A     -1.077867
      19A     -1.029159    20A     -1.020890    21A     -1.005403
      22A     -0.928318    23A     -0.859251    24A     -0.843619
      25A     -0.833723    26A     -0.791907    27A     -0.730504
      28A     -0.693667    29A     -0.669327    30A     -0.657142
      31A     -0.648318    32A     -0.629221    33A     -0.615343
      34A     -0.602489    35A     -0.591465    36A     -0.584850
      37A     -0.568367    38A     -0.539977    39A     -0.533978
      40A     -0.527608    41A     -0.511161    42A     -0.505239
      43A     -0.501488    44A     -0.431141    45A     -0.412279
      46A     -0.375925    47A     -0.344396    48A     -0.339893
      49A     -0.288064

  @DF-RHF Final Energy:  -570.48301776167500

   => Energetics <=

    Nuclear Repulsion Energy =            819.8078947704116217
    One-Electron Energy =               -2399.5694010630309094
    Two-Electron Energy =                1009.2784885309442870
    Total Energy =                       -570.4830177616750007
  Basis Set: (AUG-CC-PVTZ AUX)
    Blend: AUG-CC-PVTZ-RI
    Molecular point group: c1

    Geometry (in Angstrom), charge = 0, multiplicity = 1:

       Center              X                  Y                   Z               Mass
    ------------   -----------------  -----------------  -----------------  -----------------
         N            0.056960129233     0.960084524857     0.299471260182    14.003074004430
         N            2.367912129233     0.962602524857     0.217892260182    14.003074004430
         C           -1.209964870767     0.349128524857     0.133538260182    12.000000000000
         C            1.215848629233     0.240114224857     0.076999160182    12.000000000000
         C            0.129351129233     2.418713524857     0.330263260182    12.000000000000
         C           -1.597717870767    -0.692848475143     0.989364260182    12.000000000000
         C           -2.100606870767     0.801935524857    -0.849730739818    12.000000000000
         C            1.238862129233    -1.117086475143    -0.275057739818    12.000000000000
         C           -2.851130870767    -1.286542475143     0.845972260182    12.000000000000
         C           -3.363817870767     0.220271524857    -0.970429739818    12.000000000000
         C           -3.740954870767    -0.829286475143    -0.130257739818    12.000000000000
         C            2.461886129233    -1.745827475143    -0.455318739818    12.000000000000
         C            3.538002129233     0.323645524857     0.037660260182    12.000000000000
         C            3.647251129233    -1.022727475143    -0.288051739818    12.000000000000
         H            0.880563129233     2.729201524857     1.056601260182     1.007825032230
         H           -0.850661870767     2.793291524857     0.629190260182     1.007825032230
         H            0.405665129233     2.843030524857    -0.643248739818     1.007825032230
         H           -0.913690870767    -1.015468475143     1.770762260182     1.007825032230
         H           -1.797128870767     1.601428524857    -1.521456739818     1.007825032230
         H            0.312810129233    -1.659663475143    -0.427002739818     1.007825032230
         H           -3.143278870767    -2.092781475143     1.514865260182     1.007825032230
         H           -4.049783870767     0.580312524857    -1.733710739818     1.007825032230
         H           -4.722645870767    -1.284914475143    -0.231648739818     1.007825032230
         H            2.489499129233    -2.796953475143    -0.734125739818     1.007825032230
         H            4.426782129233     0.941221524857     0.161323260182     1.007825032230
         H            4.620430129233    -1.485140475143    -0.421105739818     1.007825032230

  Basis Set: AUG-CC-PVTZ
    Blend: AUG-CC-PVTZ
  Basis Set: (AUG-CC-PVTZ AUX)
    Blend: AUG-CC-PVTZ-JKFIT
	 Reference Energy          =    -570.4830177616750007 [Eh]
	 Singles Energy            =      -0.0000000000000000 [Eh]
	 Same-Spin Energy          =      -0.6373383137082631 [Eh]
	 Opposite-Spin Energy      =      -1.9743502871032683 [Eh]
	 Correlation Energy        =      -2.6116886008115312 [Eh]
	 Total Energy              =    -573.0947063624864768 [Eh]

	 ================> DF-SCS-MP2 Energies <==================
	-----------------------------------------------------------
	 SCS Same-Spin Scale       =       0.3333333333333333 [-]
	 SCS Opposite-Spin Scale   =       1.2000000000000000 [-]
	 SCS Same-Spin Energy      =      -0.2124461045694210 [Eh]
	 SCS Opposite-Spin Energy  =      -2.3692203445239217 [Eh]
	 SCS Correlation Energy    =      -2.5816664490933428 [Eh]
	 SCS Total Energy          =    -573.0646842107682915 [Eh]
	-----------------------------------------------------------

  Dipole Moment: [D]
     X:    -1.2773      Y:    -0.8649      Z:    -0.4281     Total:     1.6009

*** Psi4 exiting successfully. Buy a developer a beer!
