                               Psi4 1.3.2 release

  ==> Input File <==

--------------------------------------------------------------------------
#psi4
#
memory 32 gb

molecule  {
0 1
  N        0.0678190     0.9536280     0.3022870
  N        2.3912242     0.9369650     0.2152479
  C       -1.1991060     0.3426720     0.1363540
  C        1.2435610     0.2442270     0.0818760
  C        0.1402100     2.4122570     0.3330790
  C       -1.5868590    -0.6993050     0.9921800
  C       -2.0897480     0.7954790    -0.8469150
  C        1.2497210    -1.1235430    -0.2722420
  C       -2.8402720    -1.2929990     0.8487880
  C       -3.3529590     0.2138150    -0.9676140
  C       -3.7300960    -0.8357430    -0.1274420
  C        2.4727450    -1.7522840    -0.4525030
  C        3.5488610     0.3171890     0.0404760
  C        3.6581100    -1.0291840    -0.2852360
  H        0.8914220     2.7227450     1.0594170
  H       -0.8398030     2.7868350     0.6320060
  H        0.4165240     2.8365740    -0.6404330
  H       -0.9028320    -1.0219250     1.7735780
  H       -1.7862700     1.5949720    -1.5186410
  H        0.3236690    -1.6661200    -0.4241870
  H       -3.1324200    -2.0992380     1.5176810
  H       -4.0389250     0.5738560    -1.7308950
  H       -4.7117870    -1.2913710    -0.2288330
  H        2.5003580    -2.8034100    -0.7313100
  H        4.4376410     0.9347650     0.1641390
  H        4.6312890    -1.4915970    -0.4182900
units angstrom
no_reorient  #important for SAPT in psi4, default
symmetry c1  #important for SAPT in psi4, default
}

set PROPERTIES_ORIGIN ["COM"]
properties('MP2/aug-cc-pvtz', properties = ['dipole'])
--------------------------------------------------------------------------

    Molecular point group: c1
  Charge       = 0
  Multiplicity = 1
  Basis Set: AUG-CC-PVTZ
    Blend: AUG-CC-PVTZ
  Basis Set: (AUG-CC-PVTZ AUX)
    Blend: AUG-CC-PVTZ-JKFIT

    Orbital Energies [Eh]
    ---------------------

    Doubly Occupied:

       1A    -15.579859     2A    -15.546707     3A    -11.317401
       4A    -11.280674     5A    -11.270080     6A    -11.253880
       7A    -11.250320     8A    -11.243934     9A    -11.243580
      10A    -11.239623    11A    -11.238514    12A    -11.238108
      13A    -11.226666    14A    -11.221498    15A     -1.295707
      16A     -1.224651    17A     -1.144469    18A     -1.078380
      19A     -1.029361    20A     -1.020892    21A     -1.005038
      22A     -0.926952    23A     -0.861490    24A     -0.842513
      25A     -0.833260    26A     -0.793572    27A     -0.731035
      28A     -0.693514    29A     -0.670321    30A     -0.658001
      31A     -0.648283    32A     -0.629957    33A     -0.615316
      34A     -0.603212    35A     -0.591342    36A     -0.584396
      37A     -0.568515    38A     -0.539614    39A     -0.537089
      40A     -0.528547    41A     -0.512082    42A     -0.505517
      43A     -0.501302    44A     -0.430274    45A     -0.409739
      46A     -0.378471    47A     -0.344215    48A     -0.339486
      49A     -0.287757

  @DF-RHF Final Energy:  -570.48488604294266

   => Energetics <=

    Nuclear Repulsion Energy =            820.0438522628764986
    One-Electron Energy =               -2400.0272472530123196
    Two-Electron Energy =                1009.4985089471931587
    Total Energy =                       -570.4848860429426622
  Basis Set: (AUG-CC-PVTZ AUX)
    Blend: AUG-CC-PVTZ-RI
    Molecular point group: c1

    Geometry (in Angstrom), charge = 0, multiplicity = 1:

       Center              X                  Y                   Z               Mass
    ------------   -----------------  -----------------  -----------------  -----------------
         N            0.054914366158     0.960854548351     0.299752221457    14.003074004430
         N            2.378319566158     0.944191548351     0.212713121457    14.003074004430
         C           -1.212010633842     0.349898548351     0.133819221457    12.000000000000
         C            1.230656366158     0.251453548351     0.079341221457    12.000000000000
         C            0.127305366158     2.419483548351     0.330544221457    12.000000000000
         C           -1.599763633842    -0.692078451649     0.989645221457    12.000000000000
         C           -2.102652633842     0.802705548351    -0.849449778543    12.000000000000
         C            1.236816366158    -1.116316451649    -0.274776778543    12.000000000000
         C           -2.853176633842    -1.285772451649     0.846253221457    12.000000000000
         C           -3.365863633842     0.221041548351    -0.970148778543    12.000000000000
         C           -3.743000633842    -0.828516451649    -0.129976778543    12.000000000000
         C            2.459840366158    -1.745057451649    -0.455037778543    12.000000000000
         C            3.535956366158     0.324415548351     0.037941221457    12.000000000000
         C            3.645205366158    -1.021957451649    -0.287770778543    12.000000000000
         H            0.878517366158     2.729971548351     1.056882221457     1.007825032230
         H           -0.852707633842     2.794061548351     0.629471221457     1.007825032230
         H            0.403619366158     2.843800548351    -0.642967778543     1.007825032230
         H           -0.915736633842    -1.014698451649     1.771043221457     1.007825032230
         H           -1.799174633842     1.602198548351    -1.521175778543     1.007825032230
         H            0.310764366158    -1.658893451649    -0.426721778543     1.007825032230
         H           -3.145324633842    -2.092011451649     1.515146221457     1.007825032230
         H           -4.051829633842     0.581082548351    -1.733429778543     1.007825032230
         H           -4.724691633842    -1.284144451649    -0.231367778543     1.007825032230
         H            2.487453366158    -2.796183451649    -0.733844778543     1.007825032230
         H            4.424736366158     0.941991548351     0.161604221457     1.007825032230
         H            4.618384366158    -1.484370451649    -0.420824778543     1.007825032230

  Basis Set: AUG-CC-PVTZ
    Blend: AUG-CC-PVTZ
  Basis Set: (AUG-CC-PVTZ AUX)
    Blend: AUG-CC-PVTZ-JKFIT
	 Reference Energy          =    -570.4848860429426622 [Eh]
	 Singles Energy            =      -0.0000000000000000 [Eh]
	 Same-Spin Energy          =      -0.6369832238967211 [Eh]
	 Opposite-Spin Energy      =      -1.9733004718407949 [Eh]
	 Correlation Energy        =      -2.6102836957375160 [Eh]
	 Total Energy              =    -573.0951697386801698 [Eh]

	 ================> DF-SCS-MP2 Energies <==================
	-----------------------------------------------------------
	 SCS Same-Spin Scale       =       0.3333333333333333 [-]
	 SCS Opposite-Spin Scale   =       1.2000000000000000 [-]
	 SCS Same-Spin Energy      =      -0.2123277412989070 [Eh]
	 SCS Opposite-Spin Energy  =      -2.3679605662089540 [Eh]
	 SCS Correlation Energy    =      -2.5802883075078609 [Eh]
	 SCS Total Energy          =    -573.0651743504505475 [Eh]
	-----------------------------------------------------------

  Dipole Moment: [D]
     X:    -1.2399      Y:    -0.8454      Z:    -0.4232     Total:     1.5592

*** Psi4 exiting successfully. Buy a developer a beer!
