                               Psi4 1.4a3.dev225

  ==> Input File <==

--------------------------------------------------------------------------
#psi4
#
memory 32 gb

molecule  {
0 1
  N        0.0678190     0.9536280     0.3022870
  N        2.3787710     0.9561460     0.2207080
  C       -1.1991060     0.3426720     0.1363540
  C        1.2856949     0.2706502     0.0870288
  C        0.1402100     2.4122570     0.3330790
  C       -1.5868590    -0.6993050     0.9921800
  C       -2.0897480     0.7954790    -0.8469150
  C        1.2497210    -1.1235430    -0.2722420
  C       -2.8402720    -1.2929990     0.8487880
  C       -3.3529590     0.2138150    -0.9676140
  C       -3.7300960    -0.8357430    -0.1274420
  C        2.4727450    -1.7522840    -0.4525030
  C        3.5488610     0.3171890     0.0404760
  C        3.6581100    -1.0291840    -0.2852360
  H        0.8914220     2.7227450     1.0594170
  H       -0.8398030     2.7868350     0.6320060
  H        0.4165240     2.8365740    -0.6404330
  H       -0.9028320    -1.0219250     1.7735780
  H       -1.7862700     1.5949720    -1.5186410
  H        0.3236690    -1.6661200    -0.4241870
  H       -3.1324200    -2.0992380     1.5176810
  H       -4.0389250     0.5738560    -1.7308950
  H       -4.7117870    -1.2913710    -0.2288330
  H        2.5003580    -2.8034100    -0.7313100
  H        4.4376410     0.9347650     0.1641390
  H        4.6312890    -1.4915970    -0.4182900
units angstrom
no_reorient  #important for SAPT in psi4, default
symmetry c1  #important for SAPT in psi4, default
}

set PROPERTIES_ORIGIN ["COM"]
properties('MP2/aug-cc-pvtz', properties = ['dipole'])
--------------------------------------------------------------------------

    Molecular point group: c1
  Charge       = 0
  Multiplicity = 1
  Basis Set: AUG-CC-PVTZ
    Blend: AUG-CC-PVTZ
  Basis Set: (AUG-CC-PVTZ AUX)
    Blend: AUG-CC-PVTZ-JKFIT

    Orbital Energies [Eh]
    ---------------------

    Doubly Occupied:

       1A    -15.575176     2A    -15.547869     3A    -11.317077
       4A    -11.279683     5A    -11.274049     6A    -11.254601
       7A    -11.247055     8A    -11.242899     9A    -11.242577
      10A    -11.238188    11A    -11.237311    12A    -11.236691
      13A    -11.231779    14A    -11.225230    15A     -1.297442
      16A     -1.226111    17A     -1.142523    18A     -1.082819
      19A     -1.026728    20A     -1.019548    21A     -1.003381
      22A     -0.923038    23A     -0.863765    24A     -0.842250
      25A     -0.831896    26A     -0.791691    27A     -0.729924
      28A     -0.693300    29A     -0.670512    30A     -0.659438
      31A     -0.646604    32A     -0.629235    33A     -0.613579
      34A     -0.602777    35A     -0.590217    36A     -0.582287
      37A     -0.568877    38A     -0.539783    39A     -0.537314
      40A     -0.527799    41A     -0.511251    42A     -0.504476
      43A     -0.500070    44A     -0.426660    45A     -0.415833
      46A     -0.381341    47A     -0.343315    48A     -0.337754
      49A     -0.289536

  @DF-RHF Final Energy:  -570.48269130095173

   => Energetics <=

    Nuclear Repulsion Energy =            819.7026717311562152
    One-Electron Energy =               -2399.3642025053186444
    Two-Electron Energy =                1009.1788394732107008
    Total Energy =                       -570.4826913009517284
  Basis Set: (AUG-CC-PVTZ AUX)
    Blend: AUG-CC-PVTZ-RI
    Molecular point group: c1

    Geometry (in Angstrom), charge = 0, multiplicity = 1:

       Center              X                  Y                   Z               Mass
    ------------   -----------------  -----------------  -----------------  -----------------
         N            0.053115215524     0.957673281602     0.299001044119    14.003074004430
         N            2.364067215524     0.960191281602     0.217422044119    14.003074004430
         C           -1.213809784476     0.346717281602     0.133068044119    12.000000000000
         C            1.270991115524     0.274695481602     0.083742844119    12.000000000000
         C            0.125506215524     2.416302281602     0.329793044119    12.000000000000
         C           -1.601562784476    -0.695259718398     0.988894044119    12.000000000000
         C           -2.104451784476     0.799524281602    -0.850200955881    12.000000000000
         C            1.235017215524    -1.119497718398    -0.275527955881    12.000000000000
         C           -2.854975784476    -1.288953718398     0.845502044119    12.000000000000
         C           -3.367662784476     0.217860281602    -0.970899955881    12.000000000000
         C           -3.744799784476    -0.831697718398    -0.130727955881    12.000000000000
         C            2.458041215524    -1.748238718398    -0.455788955881    12.000000000000
         C            3.534157215524     0.321234281602     0.037190044119    12.000000000000
         C            3.643406215524    -1.025138718398    -0.288521955881    12.000000000000
         H            0.876718215524     2.726790281602     1.056131044119     1.007825032230
         H           -0.854506784476     2.790880281602     0.628720044119     1.007825032230
         H            0.401820215524     2.840619281602    -0.643718955881     1.007825032230
         H           -0.917535784476    -1.017879718398     1.770292044119     1.007825032230
         H           -1.800973784476     1.599017281602    -1.521926955881     1.007825032230
         H            0.308965215524    -1.662074718398    -0.427472955881     1.007825032230
         H           -3.147123784476    -2.095192718398     1.514395044119     1.007825032230
         H           -4.053628784476     0.577901281602    -1.734180955881     1.007825032230
         H           -4.726490784476    -1.287325718398    -0.232118955881     1.007825032230
         H            2.485654215524    -2.799364718398    -0.734595955881     1.007825032230
         H            4.422937215524     0.938810281602     0.160853044119     1.007825032230
         H            4.616585215524    -1.487551718398    -0.421575955881     1.007825032230

  Basis Set: AUG-CC-PVTZ
    Blend: AUG-CC-PVTZ
  Basis Set: (AUG-CC-PVTZ AUX)
    Blend: AUG-CC-PVTZ-JKFIT
	 Reference Energy          =    -570.4826913009517284 [Eh]
	 Singles Energy            =      -0.0000000000000000 [Eh]
	 Same-Spin Energy          =      -0.6365095444016290 [Eh]
	 Opposite-Spin Energy      =      -1.9731214115959246 [Eh]
	 Correlation Energy        =      -2.6096309559975537 [Eh]
	 Total Energy              =    -573.0923222569492737 [Eh]

	 ================> DF-SCS-MP2 Energies <==================
	-----------------------------------------------------------
	 SCS Same-Spin Scale       =       0.3333333333333333 [-]
	 SCS Opposite-Spin Scale   =       1.2000000000000000 [-]
	 SCS Same-Spin Energy      =      -0.2121698481338763 [Eh]
	 SCS Opposite-Spin Energy  =      -2.3677456939151096 [Eh]
	 SCS Correlation Energy    =      -2.5799155420489859 [Eh]
	 SCS Total Energy          =    -573.0626068430007081 [Eh]
	-----------------------------------------------------------

  Dipole Moment: [D]
     X:    -0.9816      Y:    -0.9793      Z:    -0.4639     Total:     1.4621

*** Psi4 exiting successfully. Buy a developer a beer!
