                               Psi4 1.3.2 release

  ==> Input File <==

--------------------------------------------------------------------------
#psi4
#
memory 32 gb

molecule  {
0 1
  N        0.0678190     0.9536280     0.3022870
  N        2.3787710     0.9561460     0.2207080
  C       -1.1991060     0.3426720     0.1363540
  C        1.1914820     0.1625585     0.0882995
  C        0.1402100     2.4122570     0.3330790
  C       -1.5868590    -0.6993050     0.9921800
  C       -2.0897480     0.7954790    -0.8469150
  C        1.2497210    -1.1235430    -0.2722420
  C       -2.8402720    -1.2929990     0.8487880
  C       -3.3529590     0.2138150    -0.9676140
  C       -3.7300960    -0.8357430    -0.1274420
  C        2.4727450    -1.7522840    -0.4525030
  C        3.5488610     0.3171890     0.0404760
  C        3.6581100    -1.0291840    -0.2852360
  H        0.8914220     2.7227450     1.0594170
  H       -0.8398030     2.7868350     0.6320060
  H        0.4165240     2.8365740    -0.6404330
  H       -0.9028320    -1.0219250     1.7735780
  H       -1.7862700     1.5949720    -1.5186410
  H        0.3236690    -1.6661200    -0.4241870
  H       -3.1324200    -2.0992380     1.5176810
  H       -4.0389250     0.5738560    -1.7308950
  H       -4.7117870    -1.2913710    -0.2288330
  H        2.5003580    -2.8034100    -0.7313100
  H        4.4376410     0.9347650     0.1641390
  H        4.6312890    -1.4915970    -0.4182900
units angstrom
no_reorient  #important for SAPT in psi4, default
symmetry c1  #important for SAPT in psi4, default
}

set PROPERTIES_ORIGIN ["COM"]
properties('MP2/aug-cc-pvtz', properties = ['dipole'])
--------------------------------------------------------------------------

    Molecular point group: c1
  Charge       = 0
  Multiplicity = 1
  Basis Set: AUG-CC-PVTZ
    Blend: AUG-CC-PVTZ
  Basis Set: (AUG-CC-PVTZ AUX)
    Blend: AUG-CC-PVTZ-JKFIT

    Orbital Energies [Eh]
    ---------------------

    Doubly Occupied:

       1A    -15.579652     2A    -15.554552     3A    -11.314197
       4A    -11.277993     5A    -11.272561     6A    -11.258694
       7A    -11.251541     8A    -11.242980     9A    -11.242784
      10A    -11.237984    11A    -11.237218    12A    -11.236874
      13A    -11.223601    14A    -11.219335    15A     -1.288352
      16A     -1.209860    17A     -1.142664    18A     -1.080088
      19A     -1.032528    20A     -1.019863    21A     -1.005974
      22A     -0.928520    23A     -0.854208    24A     -0.849227
      25A     -0.833319    26A     -0.789854    27A     -0.728085
      28A     -0.694341    29A     -0.669877    30A     -0.653005
      31A     -0.644998    32A     -0.628287    33A     -0.618996
      34A     -0.599641    35A     -0.591593    36A     -0.585005
      37A     -0.568844    38A     -0.541607    39A     -0.532605
      40A     -0.525636    41A     -0.508333    42A     -0.502255
      43A     -0.500432    44A     -0.431316    45A     -0.413616
      46A     -0.374732    47A     -0.343741    48A     -0.340361
      49A     -0.289172

  @DF-RHF Final Energy:  -570.47004245622668

   => Energetics <=

    Nuclear Repulsion Energy =            819.8498227756066399
    One-Electron Energy =               -2399.6979238396493201
    Two-Electron Energy =                1009.3780586078158876
    Total Energy =                       -570.4700424562266790
  Basis Set: (AUG-CC-PVTZ AUX)
    Blend: AUG-CC-PVTZ-RI
    Molecular point group: c1

    Geometry (in Angstrom), charge = 0, multiplicity = 1:

       Center              X                  Y                   Z               Mass
    ------------   -----------------  -----------------  -----------------  -----------------
         N            0.059256195984     0.964718909299     0.298918217416    14.003074004430
         N            2.370208195984     0.967236909299     0.217339217416    14.003074004430
         C           -1.207668804016     0.353762909299     0.132985217416    12.000000000000
         C            1.182919195984     0.173649409299     0.084930717416    12.000000000000
         C            0.131647195984     2.423347909299     0.329710217416    12.000000000000
         C           -1.595421804016    -0.688214090701     0.988811217416    12.000000000000
         C           -2.098310804016     0.806569909299    -0.850283782584    12.000000000000
         C            1.241158195984    -1.112452090701    -0.275610782584    12.000000000000
         C           -2.848834804016    -1.281908090701     0.845419217416    12.000000000000
         C           -3.361521804016     0.224905909299    -0.970982782584    12.000000000000
         C           -3.738658804016    -0.824652090701    -0.130810782584    12.000000000000
         C            2.464182195984    -1.741193090701    -0.455871782584    12.000000000000
         C            3.540298195984     0.328279909299     0.037107217416    12.000000000000
         C            3.649547195984    -1.018093090701    -0.288604782584    12.000000000000
         H            0.882859195984     2.733835909299     1.056048217416     1.007825032230
         H           -0.848365804016     2.797925909299     0.628637217416     1.007825032230
         H            0.407961195984     2.847664909299    -0.643801782584     1.007825032230
         H           -0.911394804016    -1.010834090701     1.770209217416     1.007825032230
         H           -1.794832804016     1.606062909299    -1.522009782584     1.007825032230
         H            0.315106195984    -1.655029090701    -0.427555782584     1.007825032230
         H           -3.140982804016    -2.088147090701     1.514312217416     1.007825032230
         H           -4.047487804016     0.584946909299    -1.734263782584     1.007825032230
         H           -4.720349804016    -1.280280090701    -0.232201782584     1.007825032230
         H            2.491795195984    -2.792319090701    -0.734678782584     1.007825032230
         H            4.429078195984     0.945855909299     0.160770217416     1.007825032230
         H            4.622726195984    -1.480506090701    -0.421658782584     1.007825032230

  Basis Set: AUG-CC-PVTZ
    Blend: AUG-CC-PVTZ
  Basis Set: (AUG-CC-PVTZ AUX)
    Blend: AUG-CC-PVTZ-JKFIT
	 Reference Energy          =    -570.4700424562266790 [Eh]
	 Singles Energy            =      -0.0000000000000000 [Eh]
	 Same-Spin Energy          =      -0.6380002439047452 [Eh]
	 Opposite-Spin Energy      =      -1.9762174944921458 [Eh]
	 Correlation Energy        =      -2.6142177383968912 [Eh]
	 Total Energy              =    -573.0842601946235391 [Eh]

	 ================> DF-SCS-MP2 Energies <==================
	-----------------------------------------------------------
	 SCS Same-Spin Scale       =       0.3333333333333333 [-]
	 SCS Opposite-Spin Scale   =       1.2000000000000000 [-]
	 SCS Same-Spin Energy      =      -0.2126667479682484 [Eh]
	 SCS Opposite-Spin Energy  =      -2.3714609933905750 [Eh]
	 SCS Correlation Energy    =      -2.5841277413588233 [Eh]
	 SCS Total Energy          =    -573.0541701975854494 [Eh]
	-----------------------------------------------------------

  Dipole Moment: [D]
     X:    -1.1163      Y:    -0.8725      Z:    -0.4268     Total:     1.4797

*** Psi4 exiting successfully. Buy a developer a beer!
