                               Psi4 1.3.2 release

  ==> Input File <==

--------------------------------------------------------------------------
#psi4
#
memory 32 gb

molecule  {
0 1
  N        0.0678190     0.9536280     0.3022870
  N        2.3787710     0.9561460     0.2207080
  C       -1.2557951     0.4795615     0.1313875
  C        1.2435610     0.2442270     0.0818760
  C        0.1402100     2.4122570     0.3330790
  C       -1.5868590    -0.6993050     0.9921800
  C       -2.0897480     0.7954790    -0.8469150
  C        1.2497210    -1.1235430    -0.2722420
  C       -2.8402720    -1.2929990     0.8487880
  C       -3.3529590     0.2138150    -0.9676140
  C       -3.7300960    -0.8357430    -0.1274420
  C        2.4727450    -1.7522840    -0.4525030
  C        3.5488610     0.3171890     0.0404760
  C        3.6581100    -1.0291840    -0.2852360
  H        0.8914220     2.7227450     1.0594170
  H       -0.8398030     2.7868350     0.6320060
  H        0.4165240     2.8365740    -0.6404330
  H       -0.9028320    -1.0219250     1.7735780
  H       -1.7862700     1.5949720    -1.5186410
  H        0.3236690    -1.6661200    -0.4241870
  H       -3.1324200    -2.0992380     1.5176810
  H       -4.0389250     0.5738560    -1.7308950
  H       -4.7117870    -1.2913710    -0.2288330
  H        2.5003580    -2.8034100    -0.7313100
  H        4.4376410     0.9347650     0.1641390
  H        4.6312890    -1.4915970    -0.4182900
units angstrom
no_reorient  #important for SAPT in psi4, default
symmetry c1  #important for SAPT in psi4, default
}

set PROPERTIES_ORIGIN ["COM"]
properties('MP2/aug-cc-pvtz', properties = ['dipole'])
--------------------------------------------------------------------------

    Molecular point group: c1
  Charge       = 0
  Multiplicity = 1
  Basis Set: AUG-CC-PVTZ
    Blend: AUG-CC-PVTZ
  Basis Set: (AUG-CC-PVTZ AUX)
    Blend: AUG-CC-PVTZ-JKFIT

    Orbital Energies [Eh]
    ---------------------

    Doubly Occupied:

       1A    -15.578673     2A    -15.550277     3A    -11.320285
       4A    -11.280791     5A    -11.273326     6A    -11.255574
       7A    -11.246205     8A    -11.246155     9A    -11.244168
      10A    -11.241906    11A    -11.239323    12A    -11.231583
      13A    -11.228409    14A    -11.223529    15A     -1.294614
      16A     -1.221632    17A     -1.144396    18A     -1.079614
      19A     -1.037165    20A     -1.016069    21A     -1.002094
      22A     -0.924844    23A     -0.862053    24A     -0.845946
      25A     -0.832563    26A     -0.789373    27A     -0.733665
      28A     -0.693308    29A     -0.669554    30A     -0.659787
      31A     -0.647104    32A     -0.628673    33A     -0.614242
      34A     -0.608179    35A     -0.586650    36A     -0.582015
      37A     -0.565737    38A     -0.539257    39A     -0.535445
      40A     -0.528972    41A     -0.516003    42A     -0.506358
      43A     -0.488026    44A     -0.428923    45A     -0.414346
      46A     -0.378345    47A     -0.351063    48A     -0.333575
      49A     -0.288784

  @DF-RHF Final Energy:  -570.46599828167439

   => Energetics <=

    Nuclear Repulsion Energy =            819.1597006272364752
    One-Electron Energy =               -2398.2342342646115867
    Two-Electron Energy =                1008.6085353557008375
    Total Energy =                       -570.4659982816743877
  Basis Set: (AUG-CC-PVTZ AUX)
    Blend: AUG-CC-PVTZ-RI
    Molecular point group: c1

    Geometry (in Angstrom), charge = 0, multiplicity = 1:

       Center              X                  Y                   Z               Mass
    ------------   -----------------  -----------------  -----------------  -----------------
         N            0.059556691288     0.950472872848     0.299660639817    14.003074004430
         N            2.370508691288     0.952990872848     0.218081639817    14.003074004430
         C           -1.264057408712     0.476406372848     0.128761139817    12.000000000000
         C            1.235298691288     0.241071872848     0.079249639817    12.000000000000
         C            0.131947691288     2.409101872848     0.330452639817    12.000000000000
         C           -1.595121308712    -0.702460127152     0.989553639817    12.000000000000
         C           -2.098010308712     0.792323872848    -0.849541360183    12.000000000000
         C            1.241458691288    -1.126698127152    -0.274868360183    12.000000000000
         C           -2.848534308712    -1.296154127152     0.846161639817    12.000000000000
         C           -3.361221308712     0.210659872848    -0.970240360183    12.000000000000
         C           -3.738358308712    -0.838898127152    -0.130068360183    12.000000000000
         C            2.464482691288    -1.755439127152    -0.455129360183    12.000000000000
         C            3.540598691288     0.314033872848     0.037849639817    12.000000000000
         C            3.649847691288    -1.032339127152    -0.287862360183    12.000000000000
         H            0.883159691288     2.719589872848     1.056790639817     1.007825032230
         H           -0.848065308712     2.783679872848     0.629379639817     1.007825032230
         H            0.408261691288     2.833418872848    -0.643059360183     1.007825032230
         H           -0.911094308712    -1.025080127152     1.770951639817     1.007825032230
         H           -1.794532308712     1.591816872848    -1.521267360183     1.007825032230
         H            0.315406691288    -1.669275127152    -0.426813360183     1.007825032230
         H           -3.140682308712    -2.102393127152     1.515054639817     1.007825032230
         H           -4.047187308712     0.570700872848    -1.733521360183     1.007825032230
         H           -4.720049308712    -1.294526127152    -0.231459360183     1.007825032230
         H            2.492095691288    -2.806565127152    -0.733936360183     1.007825032230
         H            4.429378691288     0.931609872848     0.161512639817     1.007825032230
         H            4.623026691288    -1.494752127152    -0.420916360183     1.007825032230

  Basis Set: AUG-CC-PVTZ
    Blend: AUG-CC-PVTZ
  Basis Set: (AUG-CC-PVTZ AUX)
    Blend: AUG-CC-PVTZ-JKFIT
	 Reference Energy          =    -570.4659982816743877 [Eh]
	 Singles Energy            =      -0.0000000000000000 [Eh]
	 Same-Spin Energy          =      -0.6369433900140433 [Eh]
	 Opposite-Spin Energy      =      -1.9751816720100388 [Eh]
	 Correlation Energy        =      -2.6121250620240821 [Eh]
	 Total Energy              =    -573.0781233436985076 [Eh]

	 ================> DF-SCS-MP2 Energies <==================
	-----------------------------------------------------------
	 SCS Same-Spin Scale       =       0.3333333333333333 [-]
	 SCS Opposite-Spin Scale   =       1.2000000000000000 [-]
	 SCS Same-Spin Energy      =      -0.2123144633380144 [Eh]
	 SCS Opposite-Spin Energy  =      -2.3702180064120464 [Eh]
	 SCS Correlation Energy    =      -2.5825324697500607 [Eh]
	 SCS Total Energy          =    -573.0485307514244369 [Eh]
	-----------------------------------------------------------

  Dipole Moment: [D]
     X:    -1.1847      Y:    -0.9668      Z:    -0.4938     Total:     1.6069

*** Psi4 exiting successfully. Buy a developer a beer!
