                               Psi4 1.3.2 release

  ==> Input File <==

--------------------------------------------------------------------------
#psi4
#
memory 32 gb

molecule  {
0 1
  N        0.0678190     0.9536280     0.3022870
  N        2.3787710     0.9561460     0.2207080
  C       -1.2095368     0.3650618     0.1353983
  C        1.2435610     0.2442270     0.0818760
  C        0.1402100     2.4122570     0.3330790
  C       -1.5868590    -0.6993050     0.9921800
  C       -2.0897480     0.7954790    -0.8469150
  C        1.2497210    -1.1235430    -0.2722420
  C       -2.8402720    -1.2929990     0.8487880
  C       -3.3529590     0.2138150    -0.9676140
  C       -3.7300960    -0.8357430    -0.1274420
  C        2.4727450    -1.7522840    -0.4525030
  C        3.5488610     0.3171890     0.0404760
  C        3.6581100    -1.0291840    -0.2852360
  H        0.8914220     2.7227450     1.0594170
  H       -0.8398030     2.7868350     0.6320060
  H        0.4165240     2.8365740    -0.6404330
  H       -0.9028320    -1.0219250     1.7735780
  H       -1.7862700     1.5949720    -1.5186410
  H        0.3236690    -1.6661200    -0.4241870
  H       -3.1324200    -2.0992380     1.5176810
  H       -4.0389250     0.5738560    -1.7308950
  H       -4.7117870    -1.2913710    -0.2288330
  H        2.5003580    -2.8034100    -0.7313100
  H        4.4376410     0.9347650     0.1641390
  H        4.6312890    -1.4915970    -0.4182900
units angstrom
no_reorient  #important for SAPT in psi4, default
symmetry c1  #important for SAPT in psi4, default
}

set PROPERTIES_ORIGIN ["COM"]
properties('MP2/aug-cc-pvtz', properties = ['dipole'])
--------------------------------------------------------------------------

    Molecular point group: c1
  Charge       = 0
  Multiplicity = 1
  Basis Set: AUG-CC-PVTZ
    Blend: AUG-CC-PVTZ
  Basis Set: (AUG-CC-PVTZ AUX)
    Blend: AUG-CC-PVTZ-JKFIT

    Orbital Energies [Eh]
    ---------------------

    Doubly Occupied:

       1A    -15.579025     2A    -15.549188     3A    -11.317686
       4A    -11.280322     5A    -11.272688     6A    -11.255153
       7A    -11.249043     8A    -11.243860     9A    -11.243280
      10A    -11.239254    11A    -11.238317    12A    -11.237908
      13A    -11.227655    14A    -11.222914    15A     -1.294723
      16A     -1.220575    17A     -1.143994    18A     -1.079237
      19A     -1.029810    20A     -1.019149    21A     -1.005073
      22A     -0.926456    23A     -0.860614    24A     -0.843757
      25A     -0.832987    26A     -0.791888    27A     -0.730943
      28A     -0.693294    29A     -0.669344    30A     -0.658093
      31A     -0.648053    32A     -0.629175    33A     -0.614716
      34A     -0.603892    35A     -0.590134    36A     -0.583820
      37A     -0.568173    38A     -0.538944    39A     -0.535379
      40A     -0.528141    41A     -0.511563    42A     -0.505794
      43A     -0.499872    44A     -0.429821    45A     -0.413690
      46A     -0.377494    47A     -0.343487    48A     -0.340119
      49A     -0.288546

  @DF-RHF Final Energy:  -570.48371634764976

   => Energetics <=

    Nuclear Repulsion Energy =            819.6790244396073604
    One-Electron Energy =               -2399.3113932275623483
    Two-Electron Energy =                1009.1486524403051135
    Total Energy =                       -570.4837163476497608
  Basis Set: (AUG-CC-PVTZ AUX)
    Blend: AUG-CC-PVTZ-RI
    Molecular point group: c1

    Geometry (in Angstrom), charge = 0, multiplicity = 1:

       Center              X                  Y                   Z               Mass
    ------------   -----------------  -----------------  -----------------  -----------------
         N            0.056541485128     0.957936186475     0.299399208055    14.003074004430
         N            2.367493485128     0.960454186475     0.217820208055    14.003074004430
         C           -1.220814314872     0.369369986475     0.132510508055    12.000000000000
         C            1.232283485128     0.248535186475     0.078988208055    12.000000000000
         C            0.128932485128     2.416565186475     0.330191208055    12.000000000000
         C           -1.598136514872    -0.694996813525     0.989292208055    12.000000000000
         C           -2.101025514872     0.799787186475    -0.849802791945    12.000000000000
         C            1.238443485128    -1.119234813525    -0.275129791945    12.000000000000
         C           -2.851549514872    -1.288690813525     0.845900208055    12.000000000000
         C           -3.364236514872     0.218123186475    -0.970501791945    12.000000000000
         C           -3.741373514872    -0.831434813525    -0.130329791945    12.000000000000
         C            2.461467485128    -1.747975813525    -0.455390791945    12.000000000000
         C            3.537583485128     0.321497186475     0.037588208055    12.000000000000
         C            3.646832485128    -1.024875813525    -0.288123791945    12.000000000000
         H            0.880144485128     2.727053186475     1.056529208055     1.007825032230
         H           -0.851080514872     2.791143186475     0.629118208055     1.007825032230
         H            0.405246485128     2.840882186475    -0.643320791945     1.007825032230
         H           -0.914109514872    -1.017616813525     1.770690208055     1.007825032230
         H           -1.797547514872     1.599280186475    -1.521528791945     1.007825032230
         H            0.312391485128    -1.661811813525    -0.427074791945     1.007825032230
         H           -3.143697514872    -2.094929813525     1.514793208055     1.007825032230
         H           -4.050202514872     0.578164186475    -1.733782791945     1.007825032230
         H           -4.723064514872    -1.287062813525    -0.231720791945     1.007825032230
         H            2.489080485128    -2.799101813525    -0.734197791945     1.007825032230
         H            4.426363485128     0.939073186475     0.161251208055     1.007825032230
         H            4.620011485128    -1.487288813525    -0.421177791945     1.007825032230

  Basis Set: AUG-CC-PVTZ
    Blend: AUG-CC-PVTZ
  Basis Set: (AUG-CC-PVTZ AUX)
    Blend: AUG-CC-PVTZ-JKFIT
	 Reference Energy          =    -570.4837163476497608 [Eh]
	 Singles Energy            =      -0.0000000000000000 [Eh]
	 Same-Spin Energy          =      -0.6370682709837568 [Eh]
	 Opposite-Spin Energy      =      -1.9739398639545485 [Eh]
	 Correlation Energy        =      -2.6110081349383054 [Eh]
	 Total Energy              =    -573.0947244825880489 [Eh]

	 ================> DF-SCS-MP2 Energies <==================
	-----------------------------------------------------------
	 SCS Same-Spin Scale       =       0.3333333333333333 [-]
	 SCS Opposite-Spin Scale   =       1.2000000000000000 [-]
	 SCS Same-Spin Energy      =      -0.2123560903279189 [Eh]
	 SCS Opposite-Spin Energy  =      -2.3687278367454581 [Eh]
	 SCS Correlation Energy    =      -2.5810839270733772 [Eh]
	 SCS Total Energy          =    -573.0648002747230976 [Eh]
	-----------------------------------------------------------

  Dipole Moment: [D]
     X:    -1.1939      Y:    -0.9114      Z:    -0.4471     Total:     1.5671

*** Psi4 exiting successfully. Buy a developer a beer!
