                               Psi4 1.3.2 release

  ==> Input File <==

--------------------------------------------------------------------------
#psi4
#
memory 32 gb

molecule  {
0 1
  N        0.0678190     0.9536280     0.3022870
  N        2.3787710     0.9561460     0.2207080
  C       -1.1991060     0.3426720     0.1363540
  C        1.2435610     0.2442270     0.0818760
  C        0.1402100     2.4122570     0.3330790
  C       -1.5868590    -0.6993050     0.9921800
  C       -2.0897480     0.7954790    -0.8469150
  C        1.2497210    -1.1235430    -0.2722420
  C       -2.8402720    -1.2929990     0.8487880
  C       -3.3529590     0.2138150    -0.9676140
  C       -3.7300960    -0.8357430    -0.1274420
  C        2.4727450    -1.7522840    -0.4525030
  C        3.6358365     0.2696939     0.0270789
  C        3.6581100    -1.0291840    -0.2852360
  H        0.8914220     2.7227450     1.0594170
  H       -0.8398030     2.7868350     0.6320060
  H        0.4165240     2.8365740    -0.6404330
  H       -0.9028320    -1.0219250     1.7735780
  H       -1.7862700     1.5949720    -1.5186410
  H        0.3236690    -1.6661200    -0.4241870
  H       -3.1324200    -2.0992380     1.5176810
  H       -4.0389250     0.5738560    -1.7308950
  H       -4.7117870    -1.2913710    -0.2288330
  H        2.5003580    -2.8034100    -0.7313100
  H        4.4376410     0.9347650     0.1641390
  H        4.6312890    -1.4915970    -0.4182900
units angstrom
no_reorient  #important for SAPT in psi4, default
symmetry c1  #important for SAPT in psi4, default
}

set PROPERTIES_ORIGIN ["COM"]
properties('MP2/aug-cc-pvtz', properties = ['dipole'])
--------------------------------------------------------------------------

    Molecular point group: c1
  Charge       = 0
  Multiplicity = 1
  Basis Set: AUG-CC-PVTZ
    Blend: AUG-CC-PVTZ
  Basis Set: (AUG-CC-PVTZ AUX)
    Blend: AUG-CC-PVTZ-JKFIT

    Orbital Energies [Eh]
    ---------------------

    Doubly Occupied:

       1A    -15.577709     2A    -15.548083     3A    -11.314927
       4A    -11.279975     5A    -11.268837     6A    -11.257832
       7A    -11.247997     8A    -11.243665     9A    -11.243419
      10A    -11.238961    11A    -11.238119    12A    -11.237690
      13A    -11.232501    14A    -11.221747    15A     -1.288243
      16A     -1.202823    17A     -1.142924    18A     -1.076277
      19A     -1.031922    20A     -1.020329    21A     -1.006604
      22A     -0.929052    23A     -0.856500    24A     -0.846735
      25A     -0.833280    26A     -0.789037    27A     -0.731201
      28A     -0.693700    29A     -0.666728    30A     -0.659077
      31A     -0.647631    32A     -0.626018    33A     -0.622105
      34A     -0.601322    35A     -0.591768    36A     -0.585250
      37A     -0.567570    38A     -0.538087    39A     -0.528648
      40A     -0.525345    41A     -0.509664    42A     -0.502868
      43A     -0.500388    44A     -0.431605    45A     -0.411664
      46A     -0.365278    47A     -0.345332    48A     -0.340877
      49A     -0.294825

  @DF-RHF Final Energy:  -570.47067893051792

   => Energetics <=

    Nuclear Repulsion Energy =            818.3038510247509976
    One-Electron Energy =               -2396.6247798680415144
    Two-Electron Energy =                1007.8502499127724832
    Total Energy =                       -570.4706789305179200
  Basis Set: (AUG-CC-PVTZ AUX)
    Blend: AUG-CC-PVTZ-RI
    Molecular point group: c1

    Geometry (in Angstrom), charge = 0, multiplicity = 1:

       Center              X                  Y                   Z               Mass
    ------------   -----------------  -----------------  -----------------  -----------------
         N            0.050192352631     0.962491420476     0.300210162758    14.003074004430
         N            2.361144352631     0.965009420476     0.218631162758    14.003074004430
         C           -1.216732647369     0.351535420476     0.134277162758    12.000000000000
         C            1.225934352631     0.253090420476     0.079799162758    12.000000000000
         C            0.122583352631     2.421120420476     0.331002162758    12.000000000000
         C           -1.604485647369    -0.690441579524     0.990103162758    12.000000000000
         C           -2.107374647369     0.804342420476    -0.848991837242    12.000000000000
         C            1.232094352631    -1.114679579524    -0.274318837242    12.000000000000
         C           -2.857898647369    -1.284135579524     0.846711162758    12.000000000000
         C           -3.370585647369     0.222678420476    -0.969690837242    12.000000000000
         C           -3.747722647369    -0.826879579524    -0.129518837242    12.000000000000
         C            2.455118352631    -1.743420579524    -0.454579837242    12.000000000000
         C            3.618209852631     0.278557320476     0.025002062758    12.000000000000
         C            3.640483352631    -1.020320579524    -0.287312837242    12.000000000000
         H            0.873795352631     2.731608420476     1.057340162758     1.007825032230
         H           -0.857429647369     2.795698420476     0.629929162758     1.007825032230
         H            0.398897352631     2.845437420476    -0.642509837242     1.007825032230
         H           -0.920458647369    -1.013061579524     1.771501162758     1.007825032230
         H           -1.803896647369     1.603835420476    -1.520717837242     1.007825032230
         H            0.306042352631    -1.657256579524    -0.426263837242     1.007825032230
         H           -3.150046647369    -2.090374579524     1.515604162758     1.007825032230
         H           -4.056551647369     0.582719420476    -1.732971837242     1.007825032230
         H           -4.729413647369    -1.282507579524    -0.230909837242     1.007825032230
         H            2.482731352631    -2.794546579524    -0.733386837242     1.007825032230
         H            4.420014352631     0.943628420476     0.162062162758     1.007825032230
         H            4.613662352631    -1.482733579524    -0.420366837242     1.007825032230

  Basis Set: AUG-CC-PVTZ
    Blend: AUG-CC-PVTZ
  Basis Set: (AUG-CC-PVTZ AUX)
    Blend: AUG-CC-PVTZ-JKFIT
	 Reference Energy          =    -570.4706789305179200 [Eh]
	 Singles Energy            =      -0.0000000000000000 [Eh]
	 Same-Spin Energy          =      -0.6373015572006642 [Eh]
	 Opposite-Spin Energy      =      -1.9762458651698394 [Eh]
	 Correlation Energy        =      -2.6135474223705035 [Eh]
	 Total Energy              =    -573.0842263528884359 [Eh]

	 ================> DF-SCS-MP2 Energies <==================
	-----------------------------------------------------------
	 SCS Same-Spin Scale       =       0.3333333333333333 [-]
	 SCS Opposite-Spin Scale   =       1.2000000000000000 [-]
	 SCS Same-Spin Energy      =      -0.2124338524002214 [Eh]
	 SCS Opposite-Spin Energy  =      -2.3714950382038071 [Eh]
	 SCS Correlation Energy    =      -2.5839288906040285 [Eh]
	 SCS Total Energy          =    -573.0546078211219765 [Eh]
	-----------------------------------------------------------

  Dipole Moment: [D]
     X:    -1.1033      Y:    -1.0195      Z:    -0.4752     Total:     1.5756

*** Psi4 exiting successfully. Buy a developer a beer!
