                               Psi4 1.4a3.dev225

  ==> Input File <==

--------------------------------------------------------------------------
#psi4
#
memory 32 gb

molecule  {
0 1
  N        0.0678190     0.9536280     0.3022870
  N        2.3787710     0.9561460     0.2207080
  C       -1.1543794     0.3642408     0.1422120
  C        1.2435610     0.2442270     0.0818760
  C        0.1402100     2.4122570     0.3330790
  C       -1.5868590    -0.6993050     0.9921800
  C       -2.0897480     0.7954790    -0.8469150
  C        1.2497210    -1.1235430    -0.2722420
  C       -2.8402720    -1.2929990     0.8487880
  C       -3.3529590     0.2138150    -0.9676140
  C       -3.7300960    -0.8357430    -0.1274420
  C        2.4727450    -1.7522840    -0.4525030
  C        3.5488610     0.3171890     0.0404760
  C        3.6581100    -1.0291840    -0.2852360
  H        0.8914220     2.7227450     1.0594170
  H       -0.8398030     2.7868350     0.6320060
  H        0.4165240     2.8365740    -0.6404330
  H       -0.9028320    -1.0219250     1.7735780
  H       -1.7862700     1.5949720    -1.5186410
  H        0.3236690    -1.6661200    -0.4241870
  H       -3.1324200    -2.0992380     1.5176810
  H       -4.0389250     0.5738560    -1.7308950
  H       -4.7117870    -1.2913710    -0.2288330
  H        2.5003580    -2.8034100    -0.7313100
  H        4.4376410     0.9347650     0.1641390
  H        4.6312890    -1.4915970    -0.4182900
units angstrom
no_reorient  #important for SAPT in psi4, default
symmetry c1  #important for SAPT in psi4, default
}

set PROPERTIES_ORIGIN ["COM"]
properties('MP2/aug-cc-pvtz', properties = ['dipole'])
--------------------------------------------------------------------------

    Molecular point group: c1
  Charge       = 0
  Multiplicity = 1
  Basis Set: AUG-CC-PVTZ
    Blend: AUG-CC-PVTZ
  Basis Set: (AUG-CC-PVTZ AUX)
    Blend: AUG-CC-PVTZ-JKFIT

    Orbital Energies [Eh]
    ---------------------

    Doubly Occupied:

       1A    -15.581408     2A    -15.551520     3A    -11.319529
       4A    -11.281927     5A    -11.274195     6A    -11.256606
       7A    -11.252092     8A    -11.241958     9A    -11.241638
      10A    -11.239145    11A    -11.237730    12A    -11.236249
      13A    -11.229465    14A    -11.224930    15A     -1.304284
      16A     -1.226690    17A     -1.138361    18A     -1.081110
      19A     -1.029667    20A     -1.016475    21A     -1.002947
      22A     -0.931171    23A     -0.864760    24A     -0.846153
      25A     -0.828823    26A     -0.791059    27A     -0.733455
      28A     -0.692792    29A     -0.672176    30A     -0.661007
      31A     -0.649716    32A     -0.629382    33A     -0.616531
      34A     -0.602983    35A     -0.586537    36A     -0.584638
      37A     -0.571236    38A     -0.541355    39A     -0.537499
      40A     -0.529258    41A     -0.513267    42A     -0.503061
      43A     -0.494324    44A     -0.430707    45A     -0.415879
      46A     -0.378914    47A     -0.341781    48A     -0.336067
      49A     -0.287393

  @DF-RHF Final Energy:  -570.47976002153166

   => Energetics <=

    Nuclear Repulsion Energy =            819.9855967101773331
    One-Electron Energy =               -2399.8510098102315169
    Two-Electron Energy =                1009.3856530785225232
    Total Energy =                       -570.4797600215316606
  Basis Set: (AUG-CC-PVTZ AUX)
    Blend: AUG-CC-PVTZ-RI
    Molecular point group: c1

    Geometry (in Angstrom), charge = 0, multiplicity = 1:

       Center              X                  Y                   Z               Mass
    ------------   -----------------  -----------------  -----------------  -----------------
         N            0.052946218284     0.957989700856     0.298955077808    14.003074004430
         N            2.363898218284     0.960507700856     0.217376077808    14.003074004430
         C           -1.169252181716     0.368602500856     0.138880077808    12.000000000000
         C            1.228688218284     0.248588700856     0.078544077808    12.000000000000
         C            0.125337218284     2.416618700856     0.329747077808    12.000000000000
         C           -1.601731781716    -0.694943299144     0.988848077808    12.000000000000
         C           -2.104620781716     0.799840700856    -0.850246922192    12.000000000000
         C            1.234848218284    -1.119181299144    -0.275573922192    12.000000000000
         C           -2.855144781716    -1.288637299144     0.845456077808    12.000000000000
         C           -3.367831781716     0.218176700856    -0.970945922192    12.000000000000
         C           -3.744968781716    -0.831381299144    -0.130773922192    12.000000000000
         C            2.457872218284    -1.747922299144    -0.455834922192    12.000000000000
         C            3.533988218284     0.321550700856     0.037144077808    12.000000000000
         C            3.643237218284    -1.024822299144    -0.288567922192    12.000000000000
         H            0.876549218284     2.727106700856     1.056085077808     1.007825032230
         H           -0.854675781716     2.791196700856     0.628674077808     1.007825032230
         H            0.401651218284     2.840935700856    -0.643764922192     1.007825032230
         H           -0.917704781716    -1.017563299144     1.770246077808     1.007825032230
         H           -1.801142781716     1.599333700856    -1.521972922192     1.007825032230
         H            0.308796218284    -1.661758299144    -0.427518922192     1.007825032230
         H           -3.147292781716    -2.094876299144     1.514349077808     1.007825032230
         H           -4.053797781716     0.578217700856    -1.734226922192     1.007825032230
         H           -4.726659781716    -1.287009299144    -0.232164922192     1.007825032230
         H            2.485485218284    -2.799048299144    -0.734641922192     1.007825032230
         H            4.422768218284     0.939126700856     0.160807077808     1.007825032230
         H            4.616416218284    -1.487235299144    -0.421621922192     1.007825032230

  Basis Set: AUG-CC-PVTZ
    Blend: AUG-CC-PVTZ
  Basis Set: (AUG-CC-PVTZ AUX)
    Blend: AUG-CC-PVTZ-JKFIT
	 Reference Energy          =    -570.4797600215316606 [Eh]
	 Singles Energy            =      -0.0000000000000000 [Eh]
	 Same-Spin Energy          =      -0.6378431811890375 [Eh]
	 Opposite-Spin Energy      =      -1.9749038563215833 [Eh]
	 Correlation Energy        =      -2.6127470375106210 [Eh]
	 Total Energy              =    -573.0925070590423047 [Eh]

	 ================> DF-SCS-MP2 Energies <==================
	-----------------------------------------------------------
	 SCS Same-Spin Scale       =       0.3333333333333333 [-]
	 SCS Opposite-Spin Scale   =       1.2000000000000000 [-]
	 SCS Same-Spin Energy      =      -0.2126143937296792 [Eh]
	 SCS Opposite-Spin Energy  =      -2.3698846275859000 [Eh]
	 SCS Correlation Energy    =      -2.5824990213155790 [Eh]
	 SCS Total Energy          =    -573.0622590428472449 [Eh]
	-----------------------------------------------------------

  Dipole Moment: [D]
     X:    -0.8526      Y:    -0.8341      Z:    -0.4286     Total:     1.2674

*** Psi4 exiting successfully. Buy a developer a beer!
