                               Psi4 1.3.2 release

  ==> Input File <==

--------------------------------------------------------------------------
#psi4
#
memory 32 gb

molecule  {
0 1
  N        0.0678190     0.9536280     0.3022870
  N        2.3787710     0.9561460     0.2207080
  C       -1.1991060     0.3426720     0.1363540
  C        1.3255174     0.1330199     0.0536002
  C        0.1402100     2.4122570     0.3330790
  C       -1.5868590    -0.6993050     0.9921800
  C       -2.0897480     0.7954790    -0.8469150
  C        1.2497210    -1.1235430    -0.2722420
  C       -2.8402720    -1.2929990     0.8487880
  C       -3.3529590     0.2138150    -0.9676140
  C       -3.7300960    -0.8357430    -0.1274420
  C        2.4727450    -1.7522840    -0.4525030
  C        3.5488610     0.3171890     0.0404760
  C        3.6581100    -1.0291840    -0.2852360
  H        0.8914220     2.7227450     1.0594170
  H       -0.8398030     2.7868350     0.6320060
  H        0.4165240     2.8365740    -0.6404330
  H       -0.9028320    -1.0219250     1.7735780
  H       -1.7862700     1.5949720    -1.5186410
  H        0.3236690    -1.6661200    -0.4241870
  H       -3.1324200    -2.0992380     1.5176810
  H       -4.0389250     0.5738560    -1.7308950
  H       -4.7117870    -1.2913710    -0.2288330
  H        2.5003580    -2.8034100    -0.7313100
  H        4.4376410     0.9347650     0.1641390
  H        4.6312890    -1.4915970    -0.4182900
units angstrom
no_reorient  #important for SAPT in psi4, default
symmetry c1  #important for SAPT in psi4, default
}

set PROPERTIES_ORIGIN ["COM"]
properties('MP2/aug-cc-pvtz', properties = ['dipole'])
--------------------------------------------------------------------------

    Molecular point group: c1
  Charge       = 0
  Multiplicity = 1
  Basis Set: AUG-CC-PVTZ
    Blend: AUG-CC-PVTZ
  Basis Set: (AUG-CC-PVTZ AUX)
    Blend: AUG-CC-PVTZ-JKFIT

    Orbital Energies [Eh]
    ---------------------

    Doubly Occupied:

       1A    -15.563663     2A    -15.560104     3A    -11.311919
       4A    -11.281658     5A    -11.269569     6A    -11.266575
       7A    -11.240444     8A    -11.237269     9A    -11.237113
      10A    -11.234886    11A    -11.230649    12A    -11.229840
      13A    -11.229202    14A    -11.225302    15A     -1.284176
      16A     -1.212960    17A     -1.132398    18A     -1.100903
      19A     -1.038464    20A     -1.013567    21A     -0.998232
      22A     -0.910279    23A     -0.867157    24A     -0.846771
      25A     -0.826813    26A     -0.787479    27A     -0.724633
      28A     -0.692228    29A     -0.674347    30A     -0.650936
      31A     -0.637929    32A     -0.627867    33A     -0.614184
      34A     -0.597780    35A     -0.587175    36A     -0.578644
      37A     -0.568697    38A     -0.546068    39A     -0.538847
      40A     -0.518827    41A     -0.501166    42A     -0.494547
      43A     -0.489902    44A     -0.438783    45A     -0.413516
      46A     -0.386781    47A     -0.344190    48A     -0.336206
      49A     -0.292351

  @DF-RHF Final Energy:  -570.45808648863726

   => Energetics <=

    Nuclear Repulsion Energy =            819.5307236414550971
    One-Electron Energy =               -2399.1916207472704627
    Two-Electron Energy =                1009.2028106171781019
    Total Energy =                       -570.4580864886372638
  Basis Set: (AUG-CC-PVTZ AUX)
    Blend: AUG-CC-PVTZ-RI
    Molecular point group: c1

    Geometry (in Angstrom), charge = 0, multiplicity = 1:

       Center              X                  Y                   Z               Mass
    ------------   -----------------  -----------------  -----------------  -----------------
         N            0.050519507352     0.966644292823     0.301179985425    14.003074004430
         N            2.361471507352     0.969162292823     0.219600985425    14.003074004430
         C           -1.216405492648     0.355688292823     0.135246985425    12.000000000000
         C            1.308217907352     0.146036192823     0.052493185425    12.000000000000
         C            0.122910507352     2.425273292823     0.331971985425    12.000000000000
         C           -1.604158492648    -0.686288707177     0.991072985425    12.000000000000
         C           -2.107047492648     0.808495292823    -0.848022014575    12.000000000000
         C            1.232421507352    -1.110526707177    -0.273349014575    12.000000000000
         C           -2.857571492648    -1.279982707177     0.847680985425    12.000000000000
         C           -3.370258492648     0.226831292823    -0.968721014575    12.000000000000
         C           -3.747395492648    -0.822726707177    -0.128549014575    12.000000000000
         C            2.455445507352    -1.739267707177    -0.453610014575    12.000000000000
         C            3.531561507352     0.330205292823     0.039368985425    12.000000000000
         C            3.640810507352    -1.016167707177    -0.286343014575    12.000000000000
         H            0.874122507352     2.735761292823     1.058309985425     1.007825032230
         H           -0.857102492648     2.799851292823     0.630898985425     1.007825032230
         H            0.399224507352     2.849590292823    -0.641540014575     1.007825032230
         H           -0.920131492648    -1.008908707177     1.772470985425     1.007825032230
         H           -1.803569492648     1.607988292823    -1.519748014575     1.007825032230
         H            0.306369507352    -1.653103707177    -0.425294014575     1.007825032230
         H           -3.149719492648    -2.086221707177     1.516573985425     1.007825032230
         H           -4.056224492648     0.586872292823    -1.732002014575     1.007825032230
         H           -4.729086492648    -1.278354707177    -0.229940014575     1.007825032230
         H            2.483058507352    -2.790393707177    -0.732417014575     1.007825032230
         H            4.420341507352     0.947781292823     0.163031985425     1.007825032230
         H            4.613989507352    -1.478580707177    -0.419397014575     1.007825032230

  Basis Set: AUG-CC-PVTZ
    Blend: AUG-CC-PVTZ
  Basis Set: (AUG-CC-PVTZ AUX)
    Blend: AUG-CC-PVTZ-JKFIT
	 Reference Energy          =    -570.4580864886372638 [Eh]
	 Singles Energy            =      -0.0000000000000000 [Eh]
	 Same-Spin Energy          =      -0.6375580373692027 [Eh]
	 Opposite-Spin Energy      =      -1.9751063314869093 [Eh]
	 Correlation Energy        =      -2.6126643688561120 [Eh]
	 Total Energy              =    -573.0707508574934081 [Eh]

	 ================> DF-SCS-MP2 Energies <==================
	-----------------------------------------------------------
	 SCS Same-Spin Scale       =       0.3333333333333333 [-]
	 SCS Opposite-Spin Scale   =       1.2000000000000000 [-]
	 SCS Same-Spin Energy      =      -0.2125193457897342 [Eh]
	 SCS Opposite-Spin Energy  =      -2.3701275977842911 [Eh]
	 SCS Correlation Energy    =      -2.5826469435740251 [Eh]
	 SCS Total Energy          =    -573.0407334322112547 [Eh]
	-----------------------------------------------------------

  Dipole Moment: [D]
     X:     0.1531      Y:    -1.3887      Z:    -0.6103     Total:     1.5246

*** Psi4 exiting successfully. Buy a developer a beer!
