                               Psi4 1.3.2 release

  ==> Input File <==

--------------------------------------------------------------------------
#psi4
#
memory 32 gb

molecule  {
0 1
  N        0.0189478     0.8720697     0.2827145
  N        2.3787710     0.9561460     0.2207080
  C       -1.1991060     0.3426720     0.1363540
  C        1.2435610     0.2442270     0.0818760
  C        0.1402100     2.4122570     0.3330790
  C       -1.5868590    -0.6993050     0.9921800
  C       -2.0897480     0.7954790    -0.8469150
  C        1.2497210    -1.1235430    -0.2722420
  C       -2.8402720    -1.2929990     0.8487880
  C       -3.3529590     0.2138150    -0.9676140
  C       -3.7300960    -0.8357430    -0.1274420
  C        2.4727450    -1.7522840    -0.4525030
  C        3.5488610     0.3171890     0.0404760
  C        3.6581100    -1.0291840    -0.2852360
  H        0.8914220     2.7227450     1.0594170
  H       -0.8398030     2.7868350     0.6320060
  H        0.4165240     2.8365740    -0.6404330
  H       -0.9028320    -1.0219250     1.7735780
  H       -1.7862700     1.5949720    -1.5186410
  H        0.3236690    -1.6661200    -0.4241870
  H       -3.1324200    -2.0992380     1.5176810
  H       -4.0389250     0.5738560    -1.7308950
  H       -4.7117870    -1.2913710    -0.2288330
  H        2.5003580    -2.8034100    -0.7313100
  H        4.4376410     0.9347650     0.1641390
  H        4.6312890    -1.4915970    -0.4182900
units angstrom
no_reorient  #important for SAPT in psi4, default
symmetry c1  #important for SAPT in psi4, default
}

set PROPERTIES_ORIGIN ["COM"]
properties('MP2/aug-cc-pvtz', properties = ['dipole'])
--------------------------------------------------------------------------

    Molecular point group: c1
  Charge       = 0
  Multiplicity = 1
  Basis Set: AUG-CC-PVTZ
    Blend: AUG-CC-PVTZ
  Basis Set: (AUG-CC-PVTZ AUX)
    Blend: AUG-CC-PVTZ-JKFIT

    Orbital Energies [Eh]
    ---------------------

    Doubly Occupied:

       1A    -15.579430     2A    -15.551912     3A    -11.319873
       4A    -11.274365     5A    -11.274003     6A    -11.258543
       7A    -11.254475     8A    -11.241627     9A    -11.240728
      10A    -11.235418    11A    -11.234707    12A    -11.232845
      13A    -11.226190    14A    -11.223555    15A     -1.299336
      16A     -1.227977    17A     -1.139138    18A     -1.079500
      19A     -1.031692    20A     -1.018797    21A     -0.996005
      22A     -0.930376    23A     -0.864474    24A     -0.847972
      25A     -0.833232    26A     -0.790318    27A     -0.735141
      28A     -0.690003    29A     -0.669413    30A     -0.661462
      31A     -0.649820    32A     -0.625396    33A     -0.614184
      34A     -0.601098    35A     -0.588293    36A     -0.577894
      37A     -0.571178    38A     -0.540257    39A     -0.536673
      40A     -0.526427    41A     -0.513863    42A     -0.506774
      43A     -0.495509    44A     -0.433397    45A     -0.414259
      46A     -0.378285    47A     -0.341935    48A     -0.336717
      49A     -0.285463

  @DF-RHF Final Energy:  -570.47222462089996

   => Energetics <=

    Nuclear Repulsion Energy =            820.6361711869169540
    One-Electron Energy =               -2401.2169358216938235
    Two-Electron Energy =                1010.1085400138769046
    Total Energy =                       -570.4722246208999650
  Basis Set: (AUG-CC-PVTZ AUX)
    Blend: AUG-CC-PVTZ-RI
    Molecular point group: c1

    Geometry (in Angstrom), charge = 0, multiplicity = 1:

       Center              X                  Y                   Z               Mass
    ------------   -----------------  -----------------  -----------------  -----------------
         N            0.010707641366     0.884040809559     0.281253143128    14.003074004430
         N            2.370530841366     0.968117109559     0.219246643128    14.003074004430
         C           -1.207346158634     0.354643109559     0.134892643128    12.000000000000
         C            1.235320841366     0.256198109559     0.080414643128    12.000000000000
         C            0.131969841366     2.424228109559     0.331617643128    12.000000000000
         C           -1.595099158634    -0.687333890441     0.990718643128    12.000000000000
         C           -2.097988158634     0.807450109559    -0.848376356872    12.000000000000
         C            1.241480841366    -1.111571890441    -0.273703356872    12.000000000000
         C           -2.848512158634    -1.281027890441     0.847326643128    12.000000000000
         C           -3.361199158634     0.225786109559    -0.969075356872    12.000000000000
         C           -3.738336158634    -0.823771890441    -0.128903356872    12.000000000000
         C            2.464504841366    -1.740312890441    -0.453964356872    12.000000000000
         C            3.540620841366     0.329160109559     0.039014643128    12.000000000000
         C            3.649869841366    -1.017212890441    -0.286697356872    12.000000000000
         H            0.883181841366     2.734716109559     1.057955643128     1.007825032230
         H           -0.848043158634     2.798806109559     0.630544643128     1.007825032230
         H            0.408283841366     2.848545109559    -0.641894356872     1.007825032230
         H           -0.911072158634    -1.009953890441     1.772116643128     1.007825032230
         H           -1.794510158634     1.606943109559    -1.520102356872     1.007825032230
         H            0.315428841366    -1.654148890441    -0.425648356872     1.007825032230
         H           -3.140660158634    -2.087266890441     1.516219643128     1.007825032230
         H           -4.047165158634     0.585827109559    -1.732356356872     1.007825032230
         H           -4.720027158634    -1.279399890441    -0.230294356872     1.007825032230
         H            2.492117841366    -2.791438890441    -0.732771356872     1.007825032230
         H            4.429400841366     0.946736109559     0.162677643128     1.007825032230
         H            4.623048841366    -1.479625890441    -0.419751356872     1.007825032230

  Basis Set: AUG-CC-PVTZ
    Blend: AUG-CC-PVTZ
  Basis Set: (AUG-CC-PVTZ AUX)
    Blend: AUG-CC-PVTZ-JKFIT
	 Reference Energy          =    -570.4722246208999650 [Eh]
	 Singles Energy            =      -0.0000000000000000 [Eh]
	 Same-Spin Energy          =      -0.6379692033984117 [Eh]
	 Opposite-Spin Energy      =      -1.9753122525991060 [Eh]
	 Correlation Energy        =      -2.6132814559975177 [Eh]
	 Total Energy              =    -573.0855060768974454 [Eh]

	 ================> DF-SCS-MP2 Energies <==================
	-----------------------------------------------------------
	 SCS Same-Spin Scale       =       0.3333333333333333 [-]
	 SCS Opposite-Spin Scale   =       1.2000000000000000 [-]
	 SCS Same-Spin Energy      =      -0.2126564011328039 [Eh]
	 SCS Opposite-Spin Energy  =      -2.3703747031189271 [Eh]
	 SCS Correlation Energy    =      -2.5830311042517309 [Eh]
	 SCS Total Energy          =    -573.0552557251517101 [Eh]
	-----------------------------------------------------------

  Dipole Moment: [D]
     X:    -0.9063      Y:    -0.6750      Z:    -0.4146     Total:     1.2037

*** Psi4 exiting successfully. Buy a developer a beer!
