                               Psi4 1.4a3.dev225

  ==> Input File <==

--------------------------------------------------------------------------
#psi4
#
memory 32 gb

molecule  {
0 1
  N        0.0678190     0.9536280     0.3022870
  N        2.3787710     0.9561460     0.2207080
  C       -1.1812153     0.3512995     0.1386972
  C        1.2435610     0.2442270     0.0818760
  C        0.1402100     2.4122570     0.3330790
  C       -1.5868590    -0.6993050     0.9921800
  C       -2.0897480     0.7954790    -0.8469150
  C        1.2497210    -1.1235430    -0.2722420
  C       -2.8402720    -1.2929990     0.8487880
  C       -3.3529590     0.2138150    -0.9676140
  C       -3.7300960    -0.8357430    -0.1274420
  C        2.4727450    -1.7522840    -0.4525030
  C        3.5488610     0.3171890     0.0404760
  C        3.6581100    -1.0291840    -0.2852360
  H        0.8914220     2.7227450     1.0594170
  H       -0.8398030     2.7868350     0.6320060
  H        0.4165240     2.8365740    -0.6404330
  H       -0.9028320    -1.0219250     1.7735780
  H       -1.7862700     1.5949720    -1.5186410
  H        0.3236690    -1.6661200    -0.4241870
  H       -3.1324200    -2.0992380     1.5176810
  H       -4.0389250     0.5738560    -1.7308950
  H       -4.7117870    -1.2913710    -0.2288330
  H        2.5003580    -2.8034100    -0.7313100
  H        4.4376410     0.9347650     0.1641390
  H        4.6312890    -1.4915970    -0.4182900
units angstrom
no_reorient  #important for SAPT in psi4, default
symmetry c1  #important for SAPT in psi4, default
}

set PROPERTIES_ORIGIN ["COM"]
properties('MP2/aug-cc-pvtz', properties = ['dipole'])
--------------------------------------------------------------------------

    Molecular point group: c1
  Charge       = 0
  Multiplicity = 1
  Basis Set: AUG-CC-PVTZ
    Blend: AUG-CC-PVTZ
  Basis Set: (AUG-CC-PVTZ AUX)
    Blend: AUG-CC-PVTZ-JKFIT

    Orbital Energies [Eh]
    ---------------------

    Doubly Occupied:

       1A    -15.580023     2A    -15.549950     3A    -11.318094
       4A    -11.280882     5A    -11.273195     6A    -11.255665
       7A    -11.250612     8A    -11.243032     9A    -11.242710
      10A    -11.239282    11A    -11.237861    12A    -11.237499
      13A    -11.228253    14A    -11.223614    15A     -1.298303
      16A     -1.222828    17A     -1.141741    18A     -1.079920
      19A     -1.028806    20A     -1.018921    21A     -1.004154
      22A     -0.928551    23A     -0.862011    24A     -0.844352
      25A     -0.831532    26A     -0.791661    27A     -0.731520
      28A     -0.693224    29A     -0.670467    30A     -0.659180
      31A     -0.648498    32A     -0.629196    33A     -0.615531
      34A     -0.602587    35A     -0.589554    36A     -0.584347
      37A     -0.569574    38A     -0.539851    39A     -0.536196
      40A     -0.528568    41A     -0.511845    42A     -0.504586
      43A     -0.498458    44A     -0.430321    45A     -0.414463
      46A     -0.377954    47A     -0.343173    48A     -0.337963
      49A     -0.288202

  @DF-RHF Final Energy:  -570.48323642720982

   => Energetics <=

    Nuclear Repulsion Energy =            819.8491569160275958
    One-Electron Energy =               -2399.6273686517051829
    Two-Electron Energy =                1009.2949753084677695
    Total Energy =                       -570.4832364272098175
  Basis Set: (AUG-CC-PVTZ AUX)
    Blend: AUG-CC-PVTZ-RI
    Molecular point group: c1

    Geometry (in Angstrom), charge = 0, multiplicity = 1:

       Center              X                  Y                   Z               Mass
    ------------   -----------------  -----------------  -----------------  -----------------
         N            0.054695434554     0.958833240015     0.299184179323    14.003074004430
         N            2.365647434554     0.961351240015     0.217605179323    14.003074004430
         C           -1.194338865446     0.356504740015     0.135594379323    12.000000000000
         C            1.230437434554     0.249432240015     0.078773179323    12.000000000000
         C            0.127086434554     2.417462240015     0.329976179323    12.000000000000
         C           -1.599982565446    -0.694099759985     0.989077179323    12.000000000000
         C           -2.102871565446     0.800684240015    -0.850017820677    12.000000000000
         C            1.236597434554    -1.118337759985    -0.275344820677    12.000000000000
         C           -2.853395565446    -1.287793759985     0.845685179323    12.000000000000
         C           -3.366082565446     0.219020240015    -0.970716820677    12.000000000000
         C           -3.743219565446    -0.830537759985    -0.130544820677    12.000000000000
         C            2.459621434554    -1.747078759985    -0.455605820677    12.000000000000
         C            3.535737434554     0.322394240015     0.037373179323    12.000000000000
         C            3.644986434554    -1.023978759985    -0.288338820677    12.000000000000
         H            0.878298434554     2.727950240015     1.056314179323     1.007825032230
         H           -0.852926565446     2.792040240015     0.628903179323     1.007825032230
         H            0.403400434554     2.841779240015    -0.643535820677     1.007825032230
         H           -0.915955565446    -1.016719759985     1.770475179323     1.007825032230
         H           -1.799393565446     1.600177240015    -1.521743820677     1.007825032230
         H            0.310545434554    -1.660914759985    -0.427289820677     1.007825032230
         H           -3.145543565446    -2.094032759985     1.514578179323     1.007825032230
         H           -4.052048565446     0.579061240015    -1.733997820677     1.007825032230
         H           -4.724910565446    -1.286165759985    -0.231935820677     1.007825032230
         H            2.487234434554    -2.798204759985    -0.734412820677     1.007825032230
         H            4.424517434554     0.939970240015     0.161036179323     1.007825032230
         H            4.618165434554    -1.486391759985    -0.421392820677     1.007825032230

  Basis Set: AUG-CC-PVTZ
    Blend: AUG-CC-PVTZ
  Basis Set: (AUG-CC-PVTZ AUX)
    Blend: AUG-CC-PVTZ-JKFIT
	 Reference Energy          =    -570.4832364272098175 [Eh]
	 Singles Energy            =      -0.0000000000000000 [Eh]
	 Same-Spin Energy          =      -0.6373660890665942 [Eh]
	 Opposite-Spin Energy      =      -1.9742621749574656 [Eh]
	 Correlation Energy        =      -2.6116282640240600 [Eh]
	 Total Energy              =    -573.0948646912338518 [Eh]

	 ================> DF-SCS-MP2 Energies <==================
	-----------------------------------------------------------
	 SCS Same-Spin Scale       =       0.3333333333333333 [-]
	 SCS Opposite-Spin Scale   =       1.2000000000000000 [-]
	 SCS Same-Spin Energy      =      -0.2124553630221981 [Eh]
	 SCS Opposite-Spin Energy  =      -2.3691146099489586 [Eh]
	 SCS Correlation Energy    =      -2.5815699729711565 [Eh]
	 SCS Total Energy          =    -573.0648064001809416 [Eh]
	-----------------------------------------------------------

  Dipole Moment: [D]
     X:    -1.0640      Y:    -0.8742      Z:    -0.4347     Total:     1.4440

*** Psi4 exiting successfully. Buy a developer a beer!
