                               Psi4 1.3.2 release

  ==> Input File <==

--------------------------------------------------------------------------
#psi4
#
memory 32 gb

molecule  {
0 1
  N        0.0678190     0.9536280     0.3022870
  N        2.3659720     0.9751102     0.2261258
  C       -1.1991060     0.3426720     0.1363540
  C        1.2435610     0.2442270     0.0818760
  C        0.1402100     2.4122570     0.3330790
  C       -1.5868590    -0.6993050     0.9921800
  C       -2.0897480     0.7954790    -0.8469150
  C        1.2497210    -1.1235430    -0.2722420
  C       -2.8402720    -1.2929990     0.8487880
  C       -3.3529590     0.2138150    -0.9676140
  C       -3.7300960    -0.8357430    -0.1274420
  C        2.4727450    -1.7522840    -0.4525030
  C        3.5488610     0.3171890     0.0404760
  C        3.6581100    -1.0291840    -0.2852360
  H        0.8914220     2.7227450     1.0594170
  H       -0.8398030     2.7868350     0.6320060
  H        0.4165240     2.8365740    -0.6404330
  H       -0.9028320    -1.0219250     1.7735780
  H       -1.7862700     1.5949720    -1.5186410
  H        0.3236690    -1.6661200    -0.4241870
  H       -3.1324200    -2.0992380     1.5176810
  H       -4.0389250     0.5738560    -1.7308950
  H       -4.7117870    -1.2913710    -0.2288330
  H        2.5003580    -2.8034100    -0.7313100
  H        4.4376410     0.9347650     0.1641390
  H        4.6312890    -1.4915970    -0.4182900
units angstrom
no_reorient  #important for SAPT in psi4, default
symmetry c1  #important for SAPT in psi4, default
}

set PROPERTIES_ORIGIN ["COM"]
properties('MP2/aug-cc-pvtz', properties = ['dipole'])
--------------------------------------------------------------------------

    Molecular point group: c1
  Charge       = 0
  Multiplicity = 1
  Basis Set: AUG-CC-PVTZ
    Blend: AUG-CC-PVTZ
  Basis Set: (AUG-CC-PVTZ AUX)
    Blend: AUG-CC-PVTZ-JKFIT

    Orbital Energies [Eh]
    ---------------------

    Doubly Occupied:

       1A    -15.578276     2A    -15.551122     3A    -11.316974
       4A    -11.279858     5A    -11.274942     6A    -11.256232
       7A    -11.249017     8A    -11.243551     9A    -11.243254
      10A    -11.239014    11A    -11.238065    12A    -11.237619
      13A    -11.228318    14A    -11.224048    15A     -1.293979
      16A     -1.216184    17A     -1.143434    18A     -1.079973
      19A     -1.027667    20A     -1.020145    21A     -1.004639
      22A     -0.926702    23A     -0.859290    24A     -0.843948
      25A     -0.833129    26A     -0.790470    27A     -0.729680
      28A     -0.693438    29A     -0.668474    30A     -0.657976
      31A     -0.647568    32A     -0.628488    33A     -0.614440
      34A     -0.602122    35A     -0.590918    36A     -0.583736
      37A     -0.568427    38A     -0.538309    39A     -0.533695
      40A     -0.527490    41A     -0.510464    42A     -0.504660
      43A     -0.500925    44A     -0.429479    45A     -0.417080
      46A     -0.376181    47A     -0.344028    48A     -0.339177
      49A     -0.289212

  @DF-RHF Final Energy:  -570.48244452958829

   => Energetics <=

    Nuclear Repulsion Energy =            819.5091052375477148
    One-Electron Energy =               -2398.9914723135093482
    Two-Electron Energy =                1008.9999225463732273
    Total Energy =                       -570.4824445295882924
  Basis Set: (AUG-CC-PVTZ AUX)
    Blend: AUG-CC-PVTZ-RI
    Molecular point group: c1

    Geometry (in Angstrom), charge = 0, multiplicity = 1:

       Center              X                  Y                   Z               Mass
    ------------   -----------------  -----------------  -----------------  -----------------
         N            0.056835106692     0.957953136520     0.298924823311    14.003074004430
         N            2.354988106692     0.979435336520     0.222763623311    14.003074004430
         C           -1.210089893308     0.346997136520     0.132991823311    12.000000000000
         C            1.232577106692     0.248552136520     0.078513823311    12.000000000000
         C            0.129226106692     2.416582136520     0.329716823311    12.000000000000
         C           -1.597842893308    -0.694979863480     0.988817823311    12.000000000000
         C           -2.100731893308     0.799804136520    -0.850277176689    12.000000000000
         C            1.238737106692    -1.119217863480    -0.275604176689    12.000000000000
         C           -2.851255893308    -1.288673863480     0.845425823311    12.000000000000
         C           -3.363942893308     0.218140136520    -0.970976176689    12.000000000000
         C           -3.741079893308    -0.831417863480    -0.130804176689    12.000000000000
         C            2.461761106692    -1.747958863480    -0.455865176689    12.000000000000
         C            3.537877106692     0.321514136520     0.037113823311    12.000000000000
         C            3.647126106692    -1.024858863480    -0.288598176689    12.000000000000
         H            0.880438106692     2.727070136520     1.056054823311     1.007825032230
         H           -0.850786893308     2.791160136520     0.628643823311     1.007825032230
         H            0.405540106692     2.840899136520    -0.643795176689     1.007825032230
         H           -0.913815893308    -1.017599863480     1.770215823311     1.007825032230
         H           -1.797253893308     1.599297136520    -1.522003176689     1.007825032230
         H            0.312685106692    -1.661794863480    -0.427549176689     1.007825032230
         H           -3.143403893308    -2.094912863480     1.514318823311     1.007825032230
         H           -4.049908893308     0.578181136520    -1.734257176689     1.007825032230
         H           -4.722770893308    -1.287045863480    -0.232195176689     1.007825032230
         H            2.489374106692    -2.799084863480    -0.734672176689     1.007825032230
         H            4.426657106692     0.939090136520     0.160776823311     1.007825032230
         H            4.620305106692    -1.487271863480    -0.421652176689     1.007825032230

  Basis Set: AUG-CC-PVTZ
    Blend: AUG-CC-PVTZ
  Basis Set: (AUG-CC-PVTZ AUX)
    Blend: AUG-CC-PVTZ-JKFIT
	 Reference Energy          =    -570.4824445295882924 [Eh]
	 Singles Energy            =      -0.0000000000000000 [Eh]
	 Same-Spin Energy          =      -0.6372590562498610 [Eh]
	 Opposite-Spin Energy      =      -1.9746420167872707 [Eh]
	 Correlation Energy        =      -2.6119010730371315 [Eh]
	 Total Energy              =    -573.0943456026254808 [Eh]

	 ================> DF-SCS-MP2 Energies <==================
	-----------------------------------------------------------
	 SCS Same-Spin Scale       =       0.3333333333333333 [-]
	 SCS Opposite-Spin Scale   =       1.2000000000000000 [-]
	 SCS Same-Spin Energy      =      -0.2124196854166203 [Eh]
	 SCS Opposite-Spin Energy  =      -2.3695704201447247 [Eh]
	 SCS Correlation Energy    =      -2.5819901055613452 [Eh]
	 SCS Total Energy          =    -573.0644346351496097 [Eh]
	-----------------------------------------------------------

  Dipole Moment: [D]
     X:    -1.1591      Y:    -0.9513      Z:    -0.4534     Total:     1.5665

*** Psi4 exiting successfully. Buy a developer a beer!
