                               Psi4 1.4a3.dev225

  ==> Input File <==

--------------------------------------------------------------------------
#psi4
#
memory 32 gb

molecule  {
0 1
  N        0.0678190     0.9536280     0.3022870
  N        2.3787710     0.9561460     0.2207080
  C       -1.1991060     0.3426720     0.1363540
  C        1.2435610     0.2442270     0.0818760
  C        0.1412011     2.4322280     0.3335006
  C       -1.5868590    -0.6993050     0.9921800
  C       -2.0897480     0.7954790    -0.8469150
  C        1.2497210    -1.1235430    -0.2722420
  C       -2.8402720    -1.2929990     0.8487880
  C       -3.3529590     0.2138150    -0.9676140
  C       -3.7300960    -0.8357430    -0.1274420
  C        2.4727450    -1.7522840    -0.4525030
  C        3.5488610     0.3171890     0.0404760
  C        3.6581100    -1.0291840    -0.2852360
  H        0.8914220     2.7227450     1.0594170
  H       -0.8398030     2.7868350     0.6320060
  H        0.4165240     2.8365740    -0.6404330
  H       -0.9028320    -1.0219250     1.7735780
  H       -1.7862700     1.5949720    -1.5186410
  H        0.3236690    -1.6661200    -0.4241870
  H       -3.1324200    -2.0992380     1.5176810
  H       -4.0389250     0.5738560    -1.7308950
  H       -4.7117870    -1.2913710    -0.2288330
  H        2.5003580    -2.8034100    -0.7313100
  H        4.4376410     0.9347650     0.1641390
  H        4.6312890    -1.4915970    -0.4182900
units angstrom
no_reorient  #important for SAPT in psi4, default
symmetry c1  #important for SAPT in psi4, default
}

set PROPERTIES_ORIGIN ["COM"]
properties('MP2/aug-cc-pvtz', properties = ['dipole'])
--------------------------------------------------------------------------

    Molecular point group: c1
  Charge       = 0
  Multiplicity = 1
  Basis Set: AUG-CC-PVTZ
    Blend: AUG-CC-PVTZ
  Basis Set: (AUG-CC-PVTZ AUX)
    Blend: AUG-CC-PVTZ-JKFIT

    Orbital Energies [Eh]
    ---------------------

    Doubly Occupied:

       1A    -15.578579     2A    -15.548536     3A    -11.316795
       4A    -11.279906     5A    -11.272297     6A    -11.254765
       7A    -11.250159     8A    -11.243536     9A    -11.243188
      10A    -11.239015    11A    -11.237994    12A    -11.237495
      13A    -11.226997    14A    -11.222341    15A     -1.292336
      16A     -1.218849    17A     -1.143182    18A     -1.078773
      19A     -1.027982    20A     -1.020192    21A     -1.003695
      22A     -0.928002    23A     -0.859702    24A     -0.843186
      25A     -0.832902    26A     -0.791756    27A     -0.729567
      28A     -0.692545    29A     -0.668209    30A     -0.657371
      31A     -0.647309    32A     -0.628192    33A     -0.614857
      34A     -0.602609    35A     -0.590326    36A     -0.582996
      37A     -0.568251    38A     -0.541999    39A     -0.536732
      40A     -0.527467    41A     -0.511024    42A     -0.505323
      43A     -0.500594    44A     -0.430685    45A     -0.413378
      46A     -0.377044    47A     -0.343848    48A     -0.338968
      49A     -0.288042

  @DF-RHF Final Energy:  -570.48390433225632

   => Energetics <=

    Nuclear Repulsion Energy =            819.3148027559209368
    One-Electron Energy =               -2398.6184316677636161
    Two-Electron Energy =                1008.8197245795863637
    Total Energy =                       -570.4839043322563157
  Basis Set: (AUG-CC-PVTZ AUX)
    Blend: AUG-CC-PVTZ-RI
    Molecular point group: c1

    Geometry (in Angstrom), charge = 0, multiplicity = 1:

       Center              X                  Y                   Z               Mass
    ------------   -----------------  -----------------  -----------------  -----------------
         N            0.055796983423     0.958093848574     0.299309432957    14.003074004430
         N            2.366748983423     0.960611848574     0.217730432957    14.003074004430
         C           -1.211128016577     0.347137848574     0.133376432957    12.000000000000
         C            1.231538983423     0.248692848574     0.078898432957    12.000000000000
         C            0.129179083423     2.436693848574     0.330523032957    12.000000000000
         C           -1.598881016577    -0.694839151426     0.989202432957    12.000000000000
         C           -2.101770016577     0.799944848574    -0.849892567043    12.000000000000
         C            1.237698983423    -1.119077151426    -0.275219567043    12.000000000000
         C           -2.852294016577    -1.288533151426     0.845810432957    12.000000000000
         C           -3.364981016577     0.218280848574    -0.970591567043    12.000000000000
         C           -3.742118016577    -0.831277151426    -0.130419567043    12.000000000000
         C            2.460722983423    -1.747818151426    -0.455480567043    12.000000000000
         C            3.536838983423     0.321654848574     0.037498432957    12.000000000000
         C            3.646087983423    -1.024718151426    -0.288213567043    12.000000000000
         H            0.879399983423     2.727210848574     1.056439432957     1.007825032230
         H           -0.851825016577     2.791300848574     0.629028432957     1.007825032230
         H            0.404501983423     2.841039848574    -0.643410567043     1.007825032230
         H           -0.914854016577    -1.017459151426     1.770600432957     1.007825032230
         H           -1.798292016577     1.599437848574    -1.521618567043     1.007825032230
         H            0.311646983423    -1.661654151426    -0.427164567043     1.007825032230
         H           -3.144442016577    -2.094772151426     1.514703432957     1.007825032230
         H           -4.050947016577     0.578321848574    -1.733872567043     1.007825032230
         H           -4.723809016577    -1.286905151426    -0.231810567043     1.007825032230
         H            2.488335983423    -2.798944151426    -0.734287567043     1.007825032230
         H            4.425618983423     0.939230848574     0.161161432957     1.007825032230
         H            4.619266983423    -1.487131151426    -0.421267567043     1.007825032230

  Basis Set: AUG-CC-PVTZ
    Blend: AUG-CC-PVTZ
  Basis Set: (AUG-CC-PVTZ AUX)
    Blend: AUG-CC-PVTZ-JKFIT
	 Reference Energy          =    -570.4839043322563157 [Eh]
	 Singles Energy            =      -0.0000000000000000 [Eh]
	 Same-Spin Energy          =      -0.6369890037517189 [Eh]
	 Opposite-Spin Energy      =      -1.9739275695215737 [Eh]
	 Correlation Energy        =      -2.6109165732732924 [Eh]
	 Total Energy              =    -573.0948209055295592 [Eh]

	 ================> DF-SCS-MP2 Energies <==================
	-----------------------------------------------------------
	 SCS Same-Spin Scale       =       0.3333333333333333 [-]
	 SCS Opposite-Spin Scale   =       1.2000000000000000 [-]
	 SCS Same-Spin Energy      =      -0.2123296679172396 [Eh]
	 SCS Opposite-Spin Energy  =      -2.3687130834258885 [Eh]
	 SCS Correlation Energy    =      -2.5810427513431282 [Eh]
	 SCS Total Energy          =    -573.0649470835994634 [Eh]
	-----------------------------------------------------------

  Dipole Moment: [D]
     X:    -1.2032      Y:    -0.8362      Z:    -0.4380     Total:     1.5293

*** Psi4 exiting successfully. Buy a developer a beer!
