                               Psi4 1.3.2 release

  ==> Input File <==

--------------------------------------------------------------------------
#psi4
#
memory 32 gb

molecule  {
0 1
  N       -0.0406916     0.9692770     0.1957094
  N        2.3787710     0.9561460     0.2207080
  C       -1.1991060     0.3426720     0.1363540
  C        1.2435610     0.2442270     0.0818760
  C        0.1402100     2.4122570     0.3330790
  C       -1.5868590    -0.6993050     0.9921800
  C       -2.0897480     0.7954790    -0.8469150
  C        1.2497210    -1.1235430    -0.2722420
  C       -2.8402720    -1.2929990     0.8487880
  C       -3.3529590     0.2138150    -0.9676140
  C       -3.7300960    -0.8357430    -0.1274420
  C        2.4727450    -1.7522840    -0.4525030
  C        3.5488610     0.3171890     0.0404760
  C        3.6581100    -1.0291840    -0.2852360
  H        0.8914220     2.7227450     1.0594170
  H       -0.8398030     2.7868350     0.6320060
  H        0.4165240     2.8365740    -0.6404330
  H       -0.9028320    -1.0219250     1.7735780
  H       -1.7862700     1.5949720    -1.5186410
  H        0.3236690    -1.6661200    -0.4241870
  H       -3.1324200    -2.0992380     1.5176810
  H       -4.0389250     0.5738560    -1.7308950
  H       -4.7117870    -1.2913710    -0.2288330
  H        2.5003580    -2.8034100    -0.7313100
  H        4.4376410     0.9347650     0.1641390
  H        4.6312890    -1.4915970    -0.4182900
units angstrom
no_reorient  #important for SAPT in psi4, default
symmetry c1  #important for SAPT in psi4, default
}

set PROPERTIES_ORIGIN ["COM"]
properties('MP2/aug-cc-pvtz', properties = ['dipole'])
--------------------------------------------------------------------------

    Molecular point group: c1
  Charge       = 0
  Multiplicity = 1
  Basis Set: AUG-CC-PVTZ
    Blend: AUG-CC-PVTZ
  Basis Set: (AUG-CC-PVTZ AUX)
    Blend: AUG-CC-PVTZ-JKFIT

    Orbital Energies [Eh]
    ---------------------

    Doubly Occupied:

       1A    -15.573284     2A    -15.559647     3A    -11.325358
       4A    -11.277716     5A    -11.269963     6A    -11.258906
       7A    -11.250209     8A    -11.239752     9A    -11.237816
      10A    -11.233911    11A    -11.232068    12A    -11.231595
      13A    -11.230958    14A    -11.228734    15A     -1.293901
      16A     -1.234889    17A     -1.135956    18A     -1.084322
      19A     -1.030886    20A     -1.016162    21A     -1.003321
      22A     -0.924826    23A     -0.860737    24A     -0.851370
      25A     -0.830379    26A     -0.788664    27A     -0.729975
      28A     -0.692233    29A     -0.669837    30A     -0.660302
      31A     -0.649816    32A     -0.631043    33A     -0.618279
      34A     -0.600557    35A     -0.590490    36A     -0.580873
      37A     -0.577130    38A     -0.538767    39A     -0.536259
      40A     -0.524118    41A     -0.510118    42A     -0.504461
      43A     -0.493683    44A     -0.421298    45A     -0.418978
      46A     -0.381920    47A     -0.341893    48A     -0.336647
      49A     -0.286537

  @DF-RHF Final Energy:  -570.46454126451624

   => Energetics <=

    Nuclear Repulsion Energy =            820.1220327471189648
    One-Electron Energy =               -2400.1720604286333582
    Two-Electron Energy =                1009.5854864169981511
    Total Energy =                       -570.4645412645162423
  Basis Set: (AUG-CC-PVTZ AUX)
    Blend: AUG-CC-PVTZ-RI
    Molecular point group: c1

    Geometry (in Angstrom), charge = 0, multiplicity = 1:

       Center              X                  Y                   Z               Mass
    ------------   -----------------  -----------------  -----------------  -----------------
         N           -0.044395448410     0.973854298273     0.200865851568    14.003074004430
         N            2.375067151590     0.960723298273     0.225864451568    14.003074004430
         C           -1.202809848410     0.347249298273     0.141510451568    12.000000000000
         C            1.239857151590     0.248804298273     0.087032451568    12.000000000000
         C            0.136506151590     2.416834298273     0.338235451568    12.000000000000
         C           -1.590562848410    -0.694727701727     0.997336451568    12.000000000000
         C           -2.093451848410     0.800056298273    -0.841758548432    12.000000000000
         C            1.246017151590    -1.118965701727    -0.267085548432    12.000000000000
         C           -2.843975848410    -1.288421701727     0.853944451568    12.000000000000
         C           -3.356662848410     0.218392298273    -0.962457548432    12.000000000000
         C           -3.733799848410    -0.831165701727    -0.122285548432    12.000000000000
         C            2.469041151590    -1.747706701727    -0.447346548432    12.000000000000
         C            3.545157151590     0.321766298273     0.045632451568    12.000000000000
         C            3.654406151590    -1.024606701727    -0.280079548432    12.000000000000
         H            0.887718151590     2.727322298273     1.064573451568     1.007825032230
         H           -0.843506848410     2.791412298273     0.637162451568     1.007825032230
         H            0.412820151590     2.841151298273    -0.635276548432     1.007825032230
         H           -0.906535848410    -1.017347701727     1.778734451568     1.007825032230
         H           -1.789973848410     1.599549298273    -1.513484548432     1.007825032230
         H            0.319965151590    -1.661542701727    -0.419030548432     1.007825032230
         H           -3.136123848410    -2.094660701727     1.522837451568     1.007825032230
         H           -4.042628848410     0.578433298273    -1.725738548432     1.007825032230
         H           -4.715490848410    -1.286793701727    -0.223676548432     1.007825032230
         H            2.496654151590    -2.798832701727    -0.726153548432     1.007825032230
         H            4.433937151590     0.939342298273     0.169295451568     1.007825032230
         H            4.627585151590    -1.487019701727    -0.413133548432     1.007825032230

  Basis Set: AUG-CC-PVTZ
    Blend: AUG-CC-PVTZ
  Basis Set: (AUG-CC-PVTZ AUX)
    Blend: AUG-CC-PVTZ-JKFIT
	 Reference Energy          =    -570.4645412645162423 [Eh]
	 Singles Energy            =      -0.0000000000000000 [Eh]
	 Same-Spin Energy          =      -0.6386666636560235 [Eh]
	 Opposite-Spin Energy      =      -1.9758888892701241 [Eh]
	 Correlation Energy        =      -2.6145555529261477 [Eh]
	 Total Energy              =    -573.0790968174424052 [Eh]

	 ================> DF-SCS-MP2 Energies <==================
	-----------------------------------------------------------
	 SCS Same-Spin Scale       =       0.3333333333333333 [-]
	 SCS Opposite-Spin Scale   =       1.2000000000000000 [-]
	 SCS Same-Spin Energy      =      -0.2128888878853412 [Eh]
	 SCS Opposite-Spin Energy  =      -2.3710666671241487 [Eh]
	 SCS Correlation Energy    =      -2.5839555550094899 [Eh]
	 SCS Total Energy          =    -573.0484968195257807 [Eh]
	-----------------------------------------------------------

  Dipole Moment: [D]
     X:    -0.2733      Y:    -0.9963      Z:    -0.3520     Total:     1.0915

*** Psi4 exiting successfully. Buy a developer a beer!
