                               Psi4 1.3.2 release

  ==> Input File <==

--------------------------------------------------------------------------
#psi4
#
memory 32 gb

molecule  {
0 1
  N        0.0678190     0.9536280     0.3022870
  N        2.3787710     0.9561460     0.2207080
  C       -1.2384826     0.4332792     0.1328372
  C        1.2435610     0.2442270     0.0818760
  C        0.1402100     2.4122570     0.3330790
  C       -1.5868590    -0.6993050     0.9921800
  C       -2.0897480     0.7954790    -0.8469150
  C        1.2497210    -1.1235430    -0.2722420
  C       -2.8402720    -1.2929990     0.8487880
  C       -3.3529590     0.2138150    -0.9676140
  C       -3.7300960    -0.8357430    -0.1274420
  C        2.4727450    -1.7522840    -0.4525030
  C        3.5488610     0.3171890     0.0404760
  C        3.6581100    -1.0291840    -0.2852360
  H        0.8914220     2.7227450     1.0594170
  H       -0.8398030     2.7868350     0.6320060
  H        0.4165240     2.8365740    -0.6404330
  H       -0.9028320    -1.0219250     1.7735780
  H       -1.7862700     1.5949720    -1.5186410
  H        0.3236690    -1.6661200    -0.4241870
  H       -3.1324200    -2.0992380     1.5176810
  H       -4.0389250     0.5738560    -1.7308950
  H       -4.7117870    -1.2913710    -0.2288330
  H        2.5003580    -2.8034100    -0.7313100
  H        4.4376410     0.9347650     0.1641390
  H        4.6312890    -1.4915970    -0.4182900
units angstrom
no_reorient  #important for SAPT in psi4, default
symmetry c1  #important for SAPT in psi4, default
}

set PROPERTIES_ORIGIN ["COM"]
properties('MP2/aug-cc-pvtz', properties = ['dipole'])
--------------------------------------------------------------------------

    Molecular point group: c1
  Charge       = 0
  Multiplicity = 1
  Basis Set: AUG-CC-PVTZ
    Blend: AUG-CC-PVTZ
  Basis Set: (AUG-CC-PVTZ AUX)
    Blend: AUG-CC-PVTZ-JKFIT

    Orbital Energies [Eh]
    ---------------------

    Doubly Occupied:

       1A    -15.578834     2A    -15.549862     3A    -11.319248
       4A    -11.280540     5A    -11.273077     6A    -11.255412
       7A    -11.247275     8A    -11.244110     9A    -11.243772
      10A    -11.242232    11A    -11.238756    12A    -11.233924
      13A    -11.228128    14A    -11.223299    15A     -1.294638
      16A     -1.221204    17A     -1.144193    18A     -1.079466
      19A     -1.034108    20A     -1.016485    21A     -1.004118
      22A     -0.925449    23A     -0.861476    24A     -0.845125
      25A     -0.832583    26A     -0.790712    27A     -0.732641
      28A     -0.693126    29A     -0.669462    30A     -0.658884
      31A     -0.647778    32A     -0.628910    33A     -0.614338
      34A     -0.606897    35A     -0.587643    36A     -0.582891
      37A     -0.566891    38A     -0.539071    39A     -0.535410
      40A     -0.528570    41A     -0.513996    42A     -0.506595
      43A     -0.493565    44A     -0.429500    45A     -0.414087
      46A     -0.377989    47A     -0.347605    48A     -0.336584
      49A     -0.288695

  @DF-RHF Final Energy:  -570.47608769772910

   => Energetics <=

    Nuclear Repulsion Energy =            819.3813018106859545
    One-Electron Energy =               -2398.6964717754972298
    Two-Electron Energy =                1008.8390822670821763
    Total Energy =                       -570.4760876977290991
  Basis Set: (AUG-CC-PVTZ AUX)
    Blend: AUG-CC-PVTZ-RI
    Molecular point group: c1

    Geometry (in Angstrom), charge = 0, multiplicity = 1:

       Center              X                  Y                   Z               Mass
    ------------   -----------------  -----------------  -----------------  -----------------
         N            0.058428228793     0.953489643375     0.299566145545    14.003074004430
         N            2.369380228793     0.956007643375     0.217987145545    14.003074004430
         C           -1.247873371207     0.433140843375     0.130116345545    12.000000000000
         C            1.234170228793     0.244088643375     0.079155145545    12.000000000000
         C            0.130819228793     2.412118643375     0.330358145545    12.000000000000
         C           -1.596249771207    -0.699443356625     0.989459145545    12.000000000000
         C           -2.099138771207     0.795340643375    -0.849635854455    12.000000000000
         C            1.240330228793    -1.123681356625    -0.274962854455    12.000000000000
         C           -2.849662771207    -1.293137356625     0.846067145545    12.000000000000
         C           -3.362349771207     0.213676643375    -0.970334854455    12.000000000000
         C           -3.739486771207    -0.835881356625    -0.130162854455    12.000000000000
         C            2.463354228793    -1.752422356625    -0.455223854455    12.000000000000
         C            3.539470228793     0.317050643375     0.037755145545    12.000000000000
         C            3.648719228793    -1.029322356625    -0.287956854455    12.000000000000
         H            0.882031228793     2.722606643375     1.056696145545     1.007825032230
         H           -0.849193771207     2.786696643375     0.629285145545     1.007825032230
         H            0.407133228793     2.836435643375    -0.643153854455     1.007825032230
         H           -0.912222771207    -1.022063356625     1.770857145545     1.007825032230
         H           -1.795660771207     1.594833643375    -1.521361854455     1.007825032230
         H            0.314278228793    -1.666258356625    -0.426907854455     1.007825032230
         H           -3.141810771207    -2.099376356625     1.514960145545     1.007825032230
         H           -4.048315771207     0.573717643375    -1.733615854455     1.007825032230
         H           -4.721177771207    -1.291509356625    -0.231553854455     1.007825032230
         H            2.490967228793    -2.803548356625    -0.734030854455     1.007825032230
         H            4.428250228793     0.934626643375     0.161418145545     1.007825032230
         H            4.621898228793    -1.491735356625    -0.421010854455     1.007825032230

  Basis Set: AUG-CC-PVTZ
    Blend: AUG-CC-PVTZ
  Basis Set: (AUG-CC-PVTZ AUX)
    Blend: AUG-CC-PVTZ-JKFIT
	 Reference Energy          =    -570.4760876977290991 [Eh]
	 Singles Energy            =      -0.0000000000000000 [Eh]
	 Same-Spin Energy          =      -0.6369669009798697 [Eh]
	 Opposite-Spin Energy      =      -1.9744511750095091 [Eh]
	 Correlation Energy        =      -2.6114180759893788 [Eh]
	 Total Energy              =    -573.0875057737184761 [Eh]

	 ================> DF-SCS-MP2 Energies <==================
	-----------------------------------------------------------
	 SCS Same-Spin Scale       =       0.3333333333333333 [-]
	 SCS Opposite-Spin Scale   =       1.2000000000000000 [-]
	 SCS Same-Spin Energy      =      -0.2123223003266232 [Eh]
	 SCS Opposite-Spin Energy  =      -2.3693414100114110 [Eh]
	 SCS Correlation Energy    =      -2.5816637103380344 [Eh]
	 SCS Total Energy          =    -573.0577514080671335 [Eh]
	-----------------------------------------------------------

  Dipole Moment: [D]
     X:    -1.1850      Y:    -0.9460      Z:    -0.4742     Total:     1.5887

*** Psi4 exiting successfully. Buy a developer a beer!
