                               Psi4 1.3.2 release

  ==> Input File <==

--------------------------------------------------------------------------
#psi4
#
memory 32 gb

molecule  {
0 1
  N        0.0678190     0.9536280     0.3022870
  N        2.3787710     0.9561460     0.2207080
  C       -1.2204231     0.3854112     0.1491141
  C        1.2435610     0.2442270     0.0818760
  C        0.1402100     2.4122570     0.3330790
  C       -1.5868590    -0.6993050     0.9921800
  C       -2.0897480     0.7954790    -0.8469150
  C        1.2497210    -1.1235430    -0.2722420
  C       -2.8402720    -1.2929990     0.8487880
  C       -3.3529590     0.2138150    -0.9676140
  C       -3.7300960    -0.8357430    -0.1274420
  C        2.4727450    -1.7522840    -0.4525030
  C        3.5488610     0.3171890     0.0404760
  C        3.6581100    -1.0291840    -0.2852360
  H        0.8914220     2.7227450     1.0594170
  H       -0.8398030     2.7868350     0.6320060
  H        0.4165240     2.8365740    -0.6404330
  H       -0.9028320    -1.0219250     1.7735780
  H       -1.7862700     1.5949720    -1.5186410
  H        0.3236690    -1.6661200    -0.4241870
  H       -3.1324200    -2.0992380     1.5176810
  H       -4.0389250     0.5738560    -1.7308950
  H       -4.7117870    -1.2913710    -0.2288330
  H        2.5003580    -2.8034100    -0.7313100
  H        4.4376410     0.9347650     0.1641390
  H        4.6312890    -1.4915970    -0.4182900
units angstrom
no_reorient  #important for SAPT in psi4, default
symmetry c1  #important for SAPT in psi4, default
}

set PROPERTIES_ORIGIN ["COM"]
properties('MP2/aug-cc-pvtz', properties = ['dipole'])
--------------------------------------------------------------------------

    Molecular point group: c1
  Charge       = 0
  Multiplicity = 1
  Basis Set: AUG-CC-PVTZ
    Blend: AUG-CC-PVTZ
  Basis Set: (AUG-CC-PVTZ AUX)
    Blend: AUG-CC-PVTZ-JKFIT

    Orbital Energies [Eh]
    ---------------------

    Doubly Occupied:

       1A    -15.578878     2A    -15.549339     3A    -11.318177
       4A    -11.280585     5A    -11.272769     6A    -11.255186
       7A    -11.248471     8A    -11.243926     9A    -11.243305
      10A    -11.239731    11A    -11.238437    12A    -11.237694
      13A    -11.227763    14A    -11.222976    15A     -1.294580
      16A     -1.220694    17A     -1.144009    18A     -1.079258
      19A     -1.030371    20A     -1.018891    21A     -1.004880
      22A     -0.925985    23A     -0.860876    24A     -0.843976
      25A     -0.832989    26A     -0.791850    27A     -0.731461
      28A     -0.693215    29A     -0.669136    30A     -0.658404
      31A     -0.648120    32A     -0.629094    33A     -0.614570
      34A     -0.603999    35A     -0.589816    36A     -0.583694
      37A     -0.567933    38A     -0.538948    39A     -0.535329
      40A     -0.528129    41A     -0.512282    42A     -0.505791
      43A     -0.499068    44A     -0.429698    45A     -0.413747
      46A     -0.377568    47A     -0.343502    48A     -0.340225
      49A     -0.288436

  @DF-RHF Final Energy:  -570.48279811043562

   => Energetics <=

    Nuclear Repulsion Energy =            819.5605754835269181
    One-Electron Energy =               -2399.0712274785141744
    Two-Electron Energy =                1009.0278538845516323
    Total Energy =                       -570.4827981104356240
  Basis Set: (AUG-CC-PVTZ AUX)
    Blend: AUG-CC-PVTZ-RI
    Molecular point group: c1

    Geometry (in Angstrom), charge = 0, multiplicity = 1:

       Center              X                  Y                   Z               Mass
    ------------   -----------------  -----------------  -----------------  -----------------
         N            0.057251075382     0.956609772919     0.298505185477    14.003074004430
         N            2.368203075382     0.959127772919     0.216926185477    14.003074004430
         C           -1.230991024618     0.388392972919     0.145332285477    12.000000000000
         C            1.232993075382     0.247208772919     0.078094185477    12.000000000000
         C            0.129642075382     2.415238772919     0.329297185477    12.000000000000
         C           -1.597426924618    -0.696323227081     0.988398185477    12.000000000000
         C           -2.100315924618     0.798460772919    -0.850696814523    12.000000000000
         C            1.239153075382    -1.120561227081    -0.276023814523    12.000000000000
         C           -2.850839924618    -1.290017227081     0.845006185477    12.000000000000
         C           -3.363526924618     0.216796772919    -0.971395814523    12.000000000000
         C           -3.740663924618    -0.832761227081    -0.131223814523    12.000000000000
         C            2.462177075382    -1.749302227081    -0.456284814523    12.000000000000
         C            3.538293075382     0.320170772919     0.036694185477    12.000000000000
         C            3.647542075382    -1.026202227081    -0.289017814523    12.000000000000
         H            0.880854075382     2.725726772919     1.055635185477     1.007825032230
         H           -0.850370924618     2.789816772919     0.628224185477     1.007825032230
         H            0.405956075382     2.839555772919    -0.644214814523     1.007825032230
         H           -0.913399924618    -1.018943227081     1.769796185477     1.007825032230
         H           -1.796837924618     1.597953772919    -1.522422814523     1.007825032230
         H            0.313101075382    -1.663138227081    -0.427968814523     1.007825032230
         H           -3.142987924618    -2.096256227081     1.513899185477     1.007825032230
         H           -4.049492924618     0.576837772919    -1.734676814523     1.007825032230
         H           -4.722354924618    -1.288389227081    -0.232614814523     1.007825032230
         H            2.489790075382    -2.800428227081    -0.735091814523     1.007825032230
         H            4.427073075382     0.937746772919     0.160357185477     1.007825032230
         H            4.620721075382    -1.488615227081    -0.422071814523     1.007825032230

  Basis Set: AUG-CC-PVTZ
    Blend: AUG-CC-PVTZ
  Basis Set: (AUG-CC-PVTZ AUX)
    Blend: AUG-CC-PVTZ-JKFIT
	 Reference Energy          =    -570.4827981104356240 [Eh]
	 Singles Energy            =      -0.0000000000000000 [Eh]
	 Same-Spin Energy          =      -0.6370725818017096 [Eh]
	 Opposite-Spin Energy      =      -1.9740317802492124 [Eh]
	 Correlation Energy        =      -2.6111043620509218 [Eh]
	 Total Energy              =    -573.0939024724865476 [Eh]

	 ================> DF-SCS-MP2 Energies <==================
	-----------------------------------------------------------
	 SCS Same-Spin Scale       =       0.3333333333333333 [-]
	 SCS Opposite-Spin Scale   =       1.2000000000000000 [-]
	 SCS Same-Spin Energy      =      -0.2123575272672365 [Eh]
	 SCS Opposite-Spin Energy  =      -2.3688381362990549 [Eh]
	 SCS Correlation Energy    =      -2.5811956635662914 [Eh]
	 SCS Total Energy          =    -573.0639937740019150 [Eh]
	-----------------------------------------------------------

  Dipole Moment: [D]
     X:    -1.1963      Y:    -0.9244      Z:    -0.4502     Total:     1.5775

*** Psi4 exiting successfully. Buy a developer a beer!
