                               Psi4 1.3.2 release

  ==> Input File <==

--------------------------------------------------------------------------
#psi4
#
memory 32 gb

molecule  {
0 1
  N        0.0456818     1.0122927     0.2258610
  N        2.3787710     0.9561460     0.2207080
  C       -1.1991060     0.3426720     0.1363540
  C        1.2435610     0.2442270     0.0818760
  C        0.1402100     2.4122570     0.3330790
  C       -1.5868590    -0.6993050     0.9921800
  C       -2.0897480     0.7954790    -0.8469150
  C        1.2497210    -1.1235430    -0.2722420
  C       -2.8402720    -1.2929990     0.8487880
  C       -3.3529590     0.2138150    -0.9676140
  C       -3.7300960    -0.8357430    -0.1274420
  C        2.4727450    -1.7522840    -0.4525030
  C        3.5488610     0.3171890     0.0404760
  C        3.6581100    -1.0291840    -0.2852360
  H        0.8914220     2.7227450     1.0594170
  H       -0.8398030     2.7868350     0.6320060
  H        0.4165240     2.8365740    -0.6404330
  H       -0.9028320    -1.0219250     1.7735780
  H       -1.7862700     1.5949720    -1.5186410
  H        0.3236690    -1.6661200    -0.4241870
  H       -3.1324200    -2.0992380     1.5176810
  H       -4.0389250     0.5738560    -1.7308950
  H       -4.7117870    -1.2913710    -0.2288330
  H        2.5003580    -2.8034100    -0.7313100
  H        4.4376410     0.9347650     0.1641390
  H        4.6312890    -1.4915970    -0.4182900
units angstrom
no_reorient  #important for SAPT in psi4, default
symmetry c1  #important for SAPT in psi4, default
}

set PROPERTIES_ORIGIN ["COM"]
properties('MP2/aug-cc-pvtz', properties = ['dipole'])
--------------------------------------------------------------------------

    Molecular point group: c1
  Charge       = 0
  Multiplicity = 1
  Basis Set: AUG-CC-PVTZ
    Blend: AUG-CC-PVTZ
  Basis Set: (AUG-CC-PVTZ AUX)
    Blend: AUG-CC-PVTZ-JKFIT

    Orbital Energies [Eh]
    ---------------------

    Doubly Occupied:

       1A    -15.575353     2A    -15.552008     3A    -11.320091
       4A    -11.279640     5A    -11.273953     6A    -11.256966
       7A    -11.243835     8A    -11.243740     9A    -11.242256
      10A    -11.238949    11A    -11.237551    12A    -11.236439
      13A    -11.231027    14A    -11.225826    15A     -1.292344
      16A     -1.223605    17A     -1.143835    18A     -1.081133
      19A     -1.028655    20A     -1.019603    21A     -1.009734
      22A     -0.923044    23A     -0.859406    24A     -0.844685
      25A     -0.831791    26A     -0.791691    27A     -0.728371
      28A     -0.694875    29A     -0.669824    30A     -0.657660
      31A     -0.648306    32A     -0.632161    33A     -0.617067
      34A     -0.601700    35A     -0.595251    36A     -0.586914
      37A     -0.571401    38A     -0.536856    39A     -0.534129
      40A     -0.528871    41A     -0.509922    42A     -0.503388
      43A     -0.500105    44A     -0.421255    45A     -0.416044
      46A     -0.378814    47A     -0.344119    48A     -0.339646
      49A     -0.288779

  @DF-RHF Final Energy:  -570.47850889350559

   => Energetics <=

    Nuclear Repulsion Energy =            819.5886360036026872
    One-Electron Energy =               -2399.1090489573098239
    Two-Electron Energy =                1009.0419040602015457
    Total Energy =                       -570.4785088935055910
  Basis Set: (AUG-CC-PVTZ AUX)
    Blend: AUG-CC-PVTZ-RI
    Molecular point group: c1

    Geometry (in Angstrom), charge = 0, multiplicity = 1:

       Center              X                  Y                   Z               Mass
    ------------   -----------------  -----------------  -----------------  -----------------
         N            0.035408191708     1.013598124986     0.228724051377    14.003074004430
         N            2.368497391708     0.957451424986     0.223571051377    14.003074004430
         C           -1.209379608292     0.343977424986     0.139217051377    12.000000000000
         C            1.233287391708     0.245532424986     0.084739051377    12.000000000000
         C            0.129936391708     2.413562424986     0.335942051377    12.000000000000
         C           -1.597132608292    -0.697999575014     0.995043051377    12.000000000000
         C           -2.100021608292     0.796784424986    -0.844051948623    12.000000000000
         C            1.239447391708    -1.122237575014    -0.269378948623    12.000000000000
         C           -2.850545608292    -1.291693575014     0.851651051377    12.000000000000
         C           -3.363232608292     0.215120424986    -0.964750948623    12.000000000000
         C           -3.740369608292    -0.834437575014    -0.124578948623    12.000000000000
         C            2.462471391708    -1.750978575014    -0.449639948623    12.000000000000
         C            3.538587391708     0.318494424986     0.043339051377    12.000000000000
         C            3.647836391708    -1.027878575014    -0.282372948623    12.000000000000
         H            0.881148391708     2.724050424986     1.062280051377     1.007825032230
         H           -0.850076608292     2.788140424986     0.634869051377     1.007825032230
         H            0.406250391708     2.837879424986    -0.637569948623     1.007825032230
         H           -0.913105608292    -1.020619575014     1.776441051377     1.007825032230
         H           -1.796543608292     1.596277424986    -1.515777948623     1.007825032230
         H            0.313395391708    -1.664814575014    -0.421323948623     1.007825032230
         H           -3.142693608292    -2.097932575014     1.520544051377     1.007825032230
         H           -4.049198608292     0.575161424986    -1.728031948623     1.007825032230
         H           -4.722060608292    -1.290065575014    -0.225969948623     1.007825032230
         H            2.490084391708    -2.802104575014    -0.728446948623     1.007825032230
         H            4.427367391708     0.936070424986     0.167002051377     1.007825032230
         H            4.621015391708    -1.490291575014    -0.415426948623     1.007825032230

  Basis Set: AUG-CC-PVTZ
    Blend: AUG-CC-PVTZ
  Basis Set: (AUG-CC-PVTZ AUX)
    Blend: AUG-CC-PVTZ-JKFIT
	 Reference Energy          =    -570.4785088935055910 [Eh]
	 Singles Energy            =      -0.0000000000000000 [Eh]
	 Same-Spin Energy          =      -0.6375584789183942 [Eh]
	 Opposite-Spin Energy      =      -1.9743362312378585 [Eh]
	 Correlation Energy        =      -2.6118947101562529 [Eh]
	 Total Energy              =    -573.0904036036617981 [Eh]

	 ================> DF-SCS-MP2 Energies <==================
	-----------------------------------------------------------
	 SCS Same-Spin Scale       =       0.3333333333333333 [-]
	 SCS Opposite-Spin Scale   =       1.2000000000000000 [-]
	 SCS Same-Spin Energy      =      -0.2125194929727981 [Eh]
	 SCS Opposite-Spin Energy  =      -2.3692034774854300 [Eh]
	 SCS Correlation Energy    =      -2.5817229704582281 [Eh]
	 SCS Total Energy          =    -573.0602318639638497 [Eh]
	-----------------------------------------------------------

  Dipole Moment: [D]
     X:    -0.9987      Y:    -1.0966      Z:    -0.3666     Total:     1.5279

*** Psi4 exiting successfully. Buy a developer a beer!
