                               Psi4 1.3.2 release

  ==> Input File <==

--------------------------------------------------------------------------
#psi4
#
memory 32 gb

molecule  {
0 1
  N        0.0628596     0.9685846     0.2832418
  N        2.3787710     0.9561460     0.2207080
  C       -1.1991060     0.3426720     0.1363540
  C        1.2435610     0.2442270     0.0818760
  C        0.1402100     2.4122570     0.3330790
  C       -1.5868590    -0.6993050     0.9921800
  C       -2.0897480     0.7954790    -0.8469150
  C        1.2497210    -1.1235430    -0.2722420
  C       -2.8402720    -1.2929990     0.8487880
  C       -3.3529590     0.2138150    -0.9676140
  C       -3.7300960    -0.8357430    -0.1274420
  C        2.4727450    -1.7522840    -0.4525030
  C        3.5488610     0.3171890     0.0404760
  C        3.6581100    -1.0291840    -0.2852360
  H        0.8914220     2.7227450     1.0594170
  H       -0.8398030     2.7868350     0.6320060
  H        0.4165240     2.8365740    -0.6404330
  H       -0.9028320    -1.0219250     1.7735780
  H       -1.7862700     1.5949720    -1.5186410
  H        0.3236690    -1.6661200    -0.4241870
  H       -3.1324200    -2.0992380     1.5176810
  H       -4.0389250     0.5738560    -1.7308950
  H       -4.7117870    -1.2913710    -0.2288330
  H        2.5003580    -2.8034100    -0.7313100
  H        4.4376410     0.9347650     0.1641390
  H        4.6312890    -1.4915970    -0.4182900
units angstrom
no_reorient  #important for SAPT in psi4, default
symmetry c1  #important for SAPT in psi4, default
}

set PROPERTIES_ORIGIN ["COM"]
properties('MP2/aug-cc-pvtz', properties = ['dipole'])
--------------------------------------------------------------------------

    Molecular point group: c1
  Charge       = 0
  Multiplicity = 1
  Basis Set: AUG-CC-PVTZ
    Blend: AUG-CC-PVTZ
  Basis Set: (AUG-CC-PVTZ AUX)
    Blend: AUG-CC-PVTZ-JKFIT

    Orbital Energies [Eh]
    ---------------------

    Doubly Occupied:

       1A    -15.578150     2A    -15.549611     3A    -11.317912
       4A    -11.280148     5A    -11.272864     6A    -11.255509
       7A    -11.248236     8A    -11.243557     9A    -11.243371
      10A    -11.238628    11A    -11.238219    12A    -11.238058
      13A    -11.228308    14A    -11.223442    15A     -1.294172
      16A     -1.221093    17A     -1.143937    18A     -1.079607
      19A     -1.028508    20A     -1.020311    21A     -1.006144
      22A     -0.926000    23A     -0.860098    24A     -0.843566
      25A     -0.832899    26A     -0.791978    27A     -0.729913
      28A     -0.693807    29A     -0.669481    30A     -0.657899
      31A     -0.648003    32A     -0.629897    33A     -0.615430
      34A     -0.602420    35A     -0.591791    36A     -0.585228
      37A     -0.569344    38A     -0.537848    39A     -0.535439
      40A     -0.528521    41A     -0.511040    42A     -0.504538
      43A     -0.501369    44A     -0.427747    45A     -0.414135
      46A     -0.377678    47A     -0.344115    48A     -0.339476
      49A     -0.288440

  @DF-RHF Final Energy:  -570.48382226969920

   => Energetics <=

    Nuclear Repulsion Energy =            819.7379370256740003
    One-Electron Energy =               -2399.4277475555381898
    Two-Electron Energy =                1009.2059882601649861
    Total Energy =                       -570.4838222696992034
  Basis Set: (AUG-CC-PVTZ AUX)
    Blend: AUG-CC-PVTZ-RI
    Molecular point group: c1

    Geometry (in Angstrom), charge = 0, multiplicity = 1:

       Center              X                  Y                   Z               Mass
    ------------   -----------------  -----------------  -----------------  -----------------
         N            0.051279408647     0.973214563813     0.281740335475    14.003074004430
         N            2.367190808647     0.960775963813     0.219206535475    14.003074004430
         C           -1.210686191353     0.347301963813     0.134852535475    12.000000000000
         C            1.231980808647     0.248856963813     0.080374535475    12.000000000000
         C            0.128629808647     2.416886963813     0.331577535475    12.000000000000
         C           -1.598439191353    -0.694675036187     0.990678535475    12.000000000000
         C           -2.101328191353     0.800108963813    -0.848416464525    12.000000000000
         C            1.238140808647    -1.118913036187    -0.273743464525    12.000000000000
         C           -2.851852191353    -1.288369036187     0.847286535475    12.000000000000
         C           -3.364539191353     0.218444963813    -0.969115464525    12.000000000000
         C           -3.741676191353    -0.831113036187    -0.128943464525    12.000000000000
         C            2.461164808647    -1.747654036187    -0.454004464525    12.000000000000
         C            3.537280808647     0.321818963813     0.038974535475    12.000000000000
         C            3.646529808647    -1.024554036187    -0.286737464525    12.000000000000
         H            0.879841808647     2.727374963813     1.057915535475     1.007825032230
         H           -0.851383191353     2.791464963813     0.630504535475     1.007825032230
         H            0.404943808647     2.841203963813    -0.641934464525     1.007825032230
         H           -0.914412191353    -1.017295036187     1.772076535475     1.007825032230
         H           -1.797850191353     1.599601963813    -1.520142464525     1.007825032230
         H            0.312088808647    -1.661490036187    -0.425688464525     1.007825032230
         H           -3.144000191353    -2.094608036187     1.516179535475     1.007825032230
         H           -4.050505191353     0.578485963813    -1.732396464525     1.007825032230
         H           -4.723367191353    -1.286741036187    -0.230334464525     1.007825032230
         H            2.488777808647    -2.798780036187    -0.732811464525     1.007825032230
         H            4.426060808647     0.939394963813     0.162637535475     1.007825032230
         H            4.619708808647    -1.486967036187    -0.419791464525     1.007825032230

  Basis Set: AUG-CC-PVTZ
    Blend: AUG-CC-PVTZ
  Basis Set: (AUG-CC-PVTZ AUX)
    Blend: AUG-CC-PVTZ-JKFIT
	 Reference Energy          =    -570.4838222696992034 [Eh]
	 Singles Energy            =      -0.0000000000000000 [Eh]
	 Same-Spin Energy          =      -0.6371824279041048 [Eh]
	 Opposite-Spin Energy      =      -1.9739445326496976 [Eh]
	 Correlation Energy        =      -2.6111269605538023 [Eh]
	 Total Energy              =    -573.0949492302529507 [Eh]

	 ================> DF-SCS-MP2 Energies <==================
	-----------------------------------------------------------
	 SCS Same-Spin Scale       =       0.3333333333333333 [-]
	 SCS Opposite-Spin Scale   =       1.2000000000000000 [-]
	 SCS Same-Spin Energy      =      -0.2123941426347016 [Eh]
	 SCS Opposite-Spin Energy  =      -2.3687334391796369 [Eh]
	 SCS Correlation Energy    =      -2.5811275818143384 [Eh]
	 SCS Total Energy          =    -573.0649498515135747 [Eh]
	-----------------------------------------------------------

  Dipole Moment: [D]
     X:    -1.1564      Y:    -0.9441      Z:    -0.4193     Total:     1.5506

*** Psi4 exiting successfully. Buy a developer a beer!
