                               Psi4 1.4a3.dev225

  ==> Input File <==

--------------------------------------------------------------------------
#psi4
#
memory 32 gb

molecule  {
0 1
  N        0.0678190     0.9536280     0.3022870
  N        2.3787710     0.9561460     0.2207080
  C       -1.2438326     0.3211032     0.1304960
  C        1.2435610     0.2442270     0.0818760
  C        0.1402100     2.4122570     0.3330790
  C       -1.5868590    -0.6993050     0.9921800
  C       -2.0897480     0.7954790    -0.8469150
  C        1.2497210    -1.1235430    -0.2722420
  C       -2.8402720    -1.2929990     0.8487880
  C       -3.3529590     0.2138150    -0.9676140
  C       -3.7300960    -0.8357430    -0.1274420
  C        2.4727450    -1.7522840    -0.4525030
  C        3.5488610     0.3171890     0.0404760
  C        3.6581100    -1.0291840    -0.2852360
  H        0.8914220     2.7227450     1.0594170
  H       -0.8398030     2.7868350     0.6320060
  H        0.4165240     2.8365740    -0.6404330
  H       -0.9028320    -1.0219250     1.7735780
  H       -1.7862700     1.5949720    -1.5186410
  H        0.3236690    -1.6661200    -0.4241870
  H       -3.1324200    -2.0992380     1.5176810
  H       -4.0389250     0.5738560    -1.7308950
  H       -4.7117870    -1.2913710    -0.2288330
  H        2.5003580    -2.8034100    -0.7313100
  H        4.4376410     0.9347650     0.1641390
  H        4.6312890    -1.4915970    -0.4182900
units angstrom
no_reorient  #important for SAPT in psi4, default
symmetry c1  #important for SAPT in psi4, default
}

set PROPERTIES_ORIGIN ["COM"]
properties('MP2/aug-cc-pvtz', properties = ['dipole'])
--------------------------------------------------------------------------

    Molecular point group: c1
  Charge       = 0
  Multiplicity = 1
  Basis Set: AUG-CC-PVTZ
    Blend: AUG-CC-PVTZ
  Basis Set: (AUG-CC-PVTZ AUX)
    Blend: AUG-CC-PVTZ-JKFIT

    Orbital Energies [Eh]
    ---------------------

    Doubly Occupied:

       1A    -15.576493     2A    -15.546565     3A    -11.314905
       4A    -11.279097     5A    -11.271014     6A    -11.253624
       7A    -11.247408     8A    -11.245538     9A    -11.245202
      10A    -11.239984    11A    -11.239310    12A    -11.237900
      13A    -11.225667    14A    -11.220792    15A     -1.287193
      16A     -1.214795    17A     -1.149324    18A     -1.077350
      19A     -1.029220    20A     -1.024068    21A     -1.005955
      22A     -0.922627    23A     -0.856637    24A     -0.841994
      25A     -0.836091    26A     -0.792722    27A     -0.727928
      28A     -0.693738    29A     -0.666649    30A     -0.655268
      31A     -0.647243    32A     -0.629681    33A     -0.613197
      34A     -0.605336    35A     -0.592491    36A     -0.583011
      37A     -0.565849    38A     -0.536921    39A     -0.533449
      40A     -0.526556    41A     -0.513423    42A     -0.508206
      43A     -0.501483    44A     -0.427862    45A     -0.411378
      46A     -0.375859    47A     -0.346584    48A     -0.343063
      49A     -0.288495

  @DF-RHF Final Energy:  -570.48212196869031

   => Energetics <=

    Nuclear Repulsion Energy =            819.6065974077297369
    One-Electron Energy =               -2399.2271462024609718
    Two-Electron Energy =                1009.1384268260410408
    Total Energy =                       -570.4821219686903078
  Basis Set: (AUG-CC-PVTZ AUX)
    Blend: AUG-CC-PVTZ-RI
    Molecular point group: c1

    Geometry (in Angstrom), charge = 0, multiplicity = 1:

       Center              X                  Y                   Z               Mass
    ------------   -----------------  -----------------  -----------------  -----------------
         N            0.058776952221     0.960801493707     0.299718749525    14.003074004430
         N            2.369728952221     0.963319493707     0.218139749525    14.003074004430
         C           -1.252874647779     0.328276693707     0.127927749525    12.000000000000
         C            1.234518952221     0.251400493707     0.079307749525    12.000000000000
         C            0.131167952221     2.419430493707     0.330510749525    12.000000000000
         C           -1.595901047779    -0.692131506293     0.989611749525    12.000000000000
         C           -2.098790047779     0.802652493707    -0.849483250475    12.000000000000
         C            1.240678952221    -1.116369506293    -0.274810250475    12.000000000000
         C           -2.849314047779    -1.285825506293     0.846219749525    12.000000000000
         C           -3.362001047779     0.220988493707    -0.970182250475    12.000000000000
         C           -3.739138047779    -0.828569506293    -0.130010250475    12.000000000000
         C            2.463702952221    -1.745110506293    -0.455071250475    12.000000000000
         C            3.539818952221     0.324362493707     0.037907749525    12.000000000000
         C            3.649067952221    -1.022010506293    -0.287804250475    12.000000000000
         H            0.882379952221     2.729918493707     1.056848749525     1.007825032230
         H           -0.848845047779     2.794008493707     0.629437749525     1.007825032230
         H            0.407481952221     2.843747493707    -0.643001250475     1.007825032230
         H           -0.911874047779    -1.014751506293     1.771009749525     1.007825032230
         H           -1.795312047779     1.602145493707    -1.521209250475     1.007825032230
         H            0.314626952221    -1.658946506293    -0.426755250475     1.007825032230
         H           -3.141462047779    -2.092064506293     1.515112749525     1.007825032230
         H           -4.047967047779     0.581029493707    -1.733463250475     1.007825032230
         H           -4.720829047779    -1.284197506293    -0.231401250475     1.007825032230
         H            2.491315952221    -2.796236506293    -0.733878250475     1.007825032230
         H            4.428598952221     0.941938493707     0.161570749525     1.007825032230
         H            4.622246952221    -1.484423506293    -0.420858250475     1.007825032230

  Basis Set: AUG-CC-PVTZ
    Blend: AUG-CC-PVTZ
  Basis Set: (AUG-CC-PVTZ AUX)
    Blend: AUG-CC-PVTZ-JKFIT
	 Reference Energy          =    -570.4821219686903078 [Eh]
	 Singles Energy            =      -0.0000000000000000 [Eh]
	 Same-Spin Energy          =      -0.6366873656088746 [Eh]
	 Opposite-Spin Energy      =      -1.9734700001438181 [Eh]
	 Correlation Energy        =      -2.6101573657526926 [Eh]
	 Total Energy              =    -573.0922793344429920 [Eh]

	 ================> DF-SCS-MP2 Energies <==================
	-----------------------------------------------------------
	 SCS Same-Spin Scale       =       0.3333333333333333 [-]
	 SCS Opposite-Spin Scale   =       1.2000000000000000 [-]
	 SCS Same-Spin Energy      =      -0.2122291218696249 [Eh]
	 SCS Opposite-Spin Energy  =      -2.3681640001725817 [Eh]
	 SCS Correlation Energy    =      -2.5803931220422065 [Eh]
	 SCS Total Energy          =    -573.0625150907325178 [Eh]
	-----------------------------------------------------------

  Dipole Moment: [D]
     X:    -1.5196      Y:    -0.9585      Z:    -0.4474     Total:     1.8515

*** Psi4 exiting successfully. Buy a developer a beer!
