                               Psi4 1.3.2 release

  ==> Input File <==

--------------------------------------------------------------------------
#psi4
#
memory 32 gb

molecule  {
0 1
  N        0.0678190     0.9536280     0.3022870
  N        2.3787710     0.9561460     0.2207080
  C       -1.1991060     0.3426720     0.1363540
  C        1.3108677     0.3730810     0.0742626
  C        0.1402100     2.4122570     0.3330790
  C       -1.5868590    -0.6993050     0.9921800
  C       -2.0897480     0.7954790    -0.8469150
  C        1.2497210    -1.1235430    -0.2722420
  C       -2.8402720    -1.2929990     0.8487880
  C       -3.3529590     0.2138150    -0.9676140
  C       -3.7300960    -0.8357430    -0.1274420
  C        2.4727450    -1.7522840    -0.4525030
  C        3.5488610     0.3171890     0.0404760
  C        3.6581100    -1.0291840    -0.2852360
  H        0.8914220     2.7227450     1.0594170
  H       -0.8398030     2.7868350     0.6320060
  H        0.4165240     2.8365740    -0.6404330
  H       -0.9028320    -1.0219250     1.7735780
  H       -1.7862700     1.5949720    -1.5186410
  H        0.3236690    -1.6661200    -0.4241870
  H       -3.1324200    -2.0992380     1.5176810
  H       -4.0389250     0.5738560    -1.7308950
  H       -4.7117870    -1.2913710    -0.2288330
  H        2.5003580    -2.8034100    -0.7313100
  H        4.4376410     0.9347650     0.1641390
  H        4.6312890    -1.4915970    -0.4182900
units angstrom
no_reorient  #important for SAPT in psi4, default
symmetry c1  #important for SAPT in psi4, default
}

set PROPERTIES_ORIGIN ["COM"]
properties('MP2/aug-cc-pvtz', properties = ['dipole'])
--------------------------------------------------------------------------

    Molecular point group: c1
  Charge       = 0
  Multiplicity = 1
  Basis Set: AUG-CC-PVTZ
    Blend: AUG-CC-PVTZ
  Basis Set: (AUG-CC-PVTZ AUX)
    Blend: AUG-CC-PVTZ-JKFIT

    Orbital Energies [Eh]
    ---------------------

    Doubly Occupied:

       1A    -15.576417     2A    -15.539552     3A    -11.316674
       4A    -11.283271     5A    -11.272487     6A    -11.248358
       7A    -11.246952     8A    -11.244413     9A    -11.243908
      10A    -11.240613    11A    -11.239286    12A    -11.238699
      13A    -11.236396    14A    -11.224902    15A     -1.312085
      16A     -1.236367    17A     -1.145437    18A     -1.082434
      19A     -1.023894    20A     -1.020752    21A     -1.000463
      22A     -0.924872    23A     -0.869257    24A     -0.840513
      25A     -0.831499    26A     -0.789021    27A     -0.734187
      28A     -0.694062    29A     -0.675196    30A     -0.661181
      31A     -0.649827    32A     -0.629822    33A     -0.611320
      34A     -0.604878    35A     -0.591218    36A     -0.579267
      37A     -0.569187    38A     -0.543735    39A     -0.536552
      40A     -0.526185    41A     -0.515260    42A     -0.506525
      43A     -0.501590    44A     -0.429057    45A     -0.403270
      46A     -0.385044    47A     -0.344355    48A     -0.335262
      49A     -0.288352

  @DF-RHF Final Energy:  -570.46279106562315

   => Energetics <=

    Nuclear Repulsion Energy =            819.8415366761787482
    One-Electron Energy =               -2399.5209445349055386
    Two-Electron Energy =                1009.2166167931036398
    Total Energy =                       -570.4627910656231506
  Basis Set: (AUG-CC-PVTZ AUX)
    Blend: AUG-CC-PVTZ-RI
    Molecular point group: c1

    Geometry (in Angstrom), charge = 0, multiplicity = 1:

       Center              X                  Y                   Z               Mass
    ------------   -----------------  -----------------  -----------------  -----------------
         N            0.051474403353     0.950996642401     0.299833169919    14.003074004430
         N            2.362426403353     0.953514642401     0.218254169919    14.003074004430
         C           -1.215450596647     0.340040642401     0.133900169919    12.000000000000
         C            1.294523103353     0.370449642401     0.071808769919    12.000000000000
         C            0.123865403353     2.409625642401     0.330625169919    12.000000000000
         C           -1.603203596647    -0.701936357599     0.989726169919    12.000000000000
         C           -2.106092596647     0.792847642401    -0.849368830081    12.000000000000
         C            1.233376403353    -1.126174357599    -0.274695830081    12.000000000000
         C           -2.856616596647    -1.295630357599     0.846334169919    12.000000000000
         C           -3.369303596647     0.211183642401    -0.970067830081    12.000000000000
         C           -3.746440596647    -0.838374357599    -0.129895830081    12.000000000000
         C            2.456400403353    -1.754915357599    -0.454956830081    12.000000000000
         C            3.532516403353     0.314557642401     0.038022169919    12.000000000000
         C            3.641765403353    -1.031815357599    -0.287689830081    12.000000000000
         H            0.875077403353     2.720113642401     1.056963169919     1.007825032230
         H           -0.856147596647     2.784203642401     0.629552169919     1.007825032230
         H            0.400179403353     2.833942642401    -0.642886830081     1.007825032230
         H           -0.919176596647    -1.024556357599     1.771124169919     1.007825032230
         H           -1.802614596647     1.592340642401    -1.521094830081     1.007825032230
         H            0.307324403353    -1.668751357599    -0.426640830081     1.007825032230
         H           -3.148764596647    -2.101869357599     1.515227169919     1.007825032230
         H           -4.055269596647     0.571224642401    -1.733348830081     1.007825032230
         H           -4.728131596647    -1.294002357599    -0.231286830081     1.007825032230
         H            2.484013403353    -2.806041357599    -0.733763830081     1.007825032230
         H            4.421296403353     0.932133642401     0.161685169919     1.007825032230
         H            4.614944403353    -1.494228357599    -0.420743830081     1.007825032230

  Basis Set: AUG-CC-PVTZ
    Blend: AUG-CC-PVTZ
  Basis Set: (AUG-CC-PVTZ AUX)
    Blend: AUG-CC-PVTZ-JKFIT
	 Reference Energy          =    -570.4627910656231506 [Eh]
	 Singles Energy            =      -0.0000000000000000 [Eh]
	 Same-Spin Energy          =      -0.6353930079369197 [Eh]
	 Opposite-Spin Energy      =      -1.9728823560193873 [Eh]
	 Correlation Energy        =      -2.6082753639563068 [Eh]
	 Total Energy              =    -573.0710664295794459 [Eh]

	 ================> DF-SCS-MP2 Energies <==================
	-----------------------------------------------------------
	 SCS Same-Spin Scale       =       0.3333333333333333 [-]
	 SCS Opposite-Spin Scale   =       1.2000000000000000 [-]
	 SCS Same-Spin Energy      =      -0.2117976693123065 [Eh]
	 SCS Opposite-Spin Energy  =      -2.3674588272232646 [Eh]
	 SCS Correlation Energy    =      -2.5792564965355713 [Eh]
	 SCS Total Energy          =    -573.0420475621587002 [Eh]
	-----------------------------------------------------------

  Dipole Moment: [D]
     X:    -1.2120      Y:    -0.8463      Z:    -0.4440     Total:     1.5434

*** Psi4 exiting successfully. Buy a developer a beer!
