                               Psi4 1.3.2 release

  ==> Input File <==

--------------------------------------------------------------------------
#psi4
#
memory 32 gb

molecule  {
0 1
  N        0.0678190     0.9536280     0.3022870
  N        2.3787710     0.9561460     0.2207080
  C       -1.1991060     0.3426720     0.1363540
  C        1.3278287     0.2970734     0.0921816
  C        0.1402100     2.4122570     0.3330790
  C       -1.5868590    -0.6993050     0.9921800
  C       -2.0897480     0.7954790    -0.8469150
  C        1.2497210    -1.1235430    -0.2722420
  C       -2.8402720    -1.2929990     0.8487880
  C       -3.3529590     0.2138150    -0.9676140
  C       -3.7300960    -0.8357430    -0.1274420
  C        2.4727450    -1.7522840    -0.4525030
  C        3.5488610     0.3171890     0.0404760
  C        3.6581100    -1.0291840    -0.2852360
  H        0.8914220     2.7227450     1.0594170
  H       -0.8398030     2.7868350     0.6320060
  H        0.4165240     2.8365740    -0.6404330
  H       -0.9028320    -1.0219250     1.7735780
  H       -1.7862700     1.5949720    -1.5186410
  H        0.3236690    -1.6661200    -0.4241870
  H       -3.1324200    -2.0992380     1.5176810
  H       -4.0389250     0.5738560    -1.7308950
  H       -4.7117870    -1.2913710    -0.2288330
  H        2.5003580    -2.8034100    -0.7313100
  H        4.4376410     0.9347650     0.1641390
  H        4.6312890    -1.4915970    -0.4182900
units angstrom
no_reorient  #important for SAPT in psi4, default
symmetry c1  #important for SAPT in psi4, default
}

set PROPERTIES_ORIGIN ["COM"]
properties('MP2/aug-cc-pvtz', properties = ['dipole'])
--------------------------------------------------------------------------

    Molecular point group: c1
  Charge       = 0
  Multiplicity = 1
  Basis Set: AUG-CC-PVTZ
    Blend: AUG-CC-PVTZ
  Basis Set: (AUG-CC-PVTZ AUX)
    Blend: AUG-CC-PVTZ-JKFIT

    Orbital Energies [Eh]
    ---------------------

    Doubly Occupied:

       1A    -15.570794     2A    -15.546653     3A    -11.316334
       4A    -11.278908     5A    -11.275682     6A    -11.254059
       7A    -11.244428     8A    -11.241927     9A    -11.241610
      10A    -11.236874    11A    -11.236171    12A    -11.235927
      13A    -11.235341    14A    -11.228145    15A     -1.305462
      16A     -1.229058    17A     -1.140852    18A     -1.086938
      19A     -1.024829    20A     -1.018416    21A     -1.001902
      22A     -0.919177    23A     -0.868154    24A     -0.840864
      25A     -0.830398    26A     -0.790649    27A     -0.729619
      28A     -0.693878    29A     -0.672846    30A     -0.659486
      31A     -0.645101    32A     -0.629093    33A     -0.612250
      34A     -0.602593    35A     -0.589190    36A     -0.581147
      37A     -0.569551    38A     -0.544723    39A     -0.538314
      40A     -0.525140    41A     -0.510735    42A     -0.503420
      43A     -0.498890    44A     -0.424111    45A     -0.416601
      46A     -0.385664    47A     -0.342354    48A     -0.335925
      49A     -0.290450

  @DF-RHF Final Energy:  -570.47397378296137

   => Energetics <=

    Nuclear Repulsion Energy =            819.6844718068687143
    One-Electron Energy =               -2399.3156235455412570
    Two-Electron Energy =                1009.1571779557111768
    Total Energy =                       -570.4739737829613659
  Basis Set: (AUG-CC-PVTZ AUX)
    Blend: AUG-CC-PVTZ-RI
    Molecular point group: c1

    Geometry (in Angstrom), charge = 0, multiplicity = 1:

       Center              X                  Y                   Z               Mass
    ------------   -----------------  -----------------  -----------------  -----------------
         N            0.050368852313     0.955950965922     0.298665174571    14.003074004430
         N            2.361320852313     0.958468965922     0.217086174571    14.003074004430
         C           -1.216556147687     0.344994965922     0.132732174571    12.000000000000
         C            1.310378552313     0.299396365922     0.088559774571    12.000000000000
         C            0.122759852313     2.414579965922     0.329457174571    12.000000000000
         C           -1.604309147687    -0.696982034078     0.988558174571    12.000000000000
         C           -2.107198147687     0.797801965922    -0.850536825429    12.000000000000
         C            1.232270852313    -1.121220034078    -0.275863825429    12.000000000000
         C           -2.857722147687    -1.290676034078     0.845166174571    12.000000000000
         C           -3.370409147687     0.216137965922    -0.971235825429    12.000000000000
         C           -3.747546147687    -0.833420034078    -0.131063825429    12.000000000000
         C            2.455294852313    -1.749961034078    -0.456124825429    12.000000000000
         C            3.531410852313     0.319511965922     0.036854174571    12.000000000000
         C            3.640659852313    -1.026861034078    -0.288857825429    12.000000000000
         H            0.873971852313     2.725067965922     1.055795174571     1.007825032230
         H           -0.857253147687     2.789157965922     0.628384174571     1.007825032230
         H            0.399073852313     2.838896965922    -0.644054825429     1.007825032230
         H           -0.920282147687    -1.019602034078     1.769956174571     1.007825032230
         H           -1.803720147687     1.597294965922    -1.522262825429     1.007825032230
         H            0.306218852313    -1.663797034078    -0.427808825429     1.007825032230
         H           -3.149870147687    -2.096915034078     1.514059174571     1.007825032230
         H           -4.056375147687     0.576178965922    -1.734516825429     1.007825032230
         H           -4.729237147687    -1.289048034078    -0.232454825429     1.007825032230
         H            2.482907852313    -2.801087034078    -0.734931825429     1.007825032230
         H            4.420190852313     0.937087965922     0.160517174571     1.007825032230
         H            4.613838852313    -1.489274034078    -0.421911825429     1.007825032230

  Basis Set: AUG-CC-PVTZ
    Blend: AUG-CC-PVTZ
  Basis Set: (AUG-CC-PVTZ AUX)
    Blend: AUG-CC-PVTZ-JKFIT
	 Reference Energy          =    -570.4739737829613659 [Eh]
	 Singles Energy            =      -0.0000000000000000 [Eh]
	 Same-Spin Energy          =      -0.6358654240912713 [Eh]
	 Opposite-Spin Energy      =      -1.9726125194232804 [Eh]
	 Correlation Energy        =      -2.6084779435145515 [Eh]
	 Total Energy              =    -573.0824517264759379 [Eh]

	 ================> DF-SCS-MP2 Energies <==================
	-----------------------------------------------------------
	 SCS Same-Spin Scale       =       0.3333333333333333 [-]
	 SCS Opposite-Spin Scale   =       1.2000000000000000 [-]
	 SCS Same-Spin Energy      =      -0.2119551413637571 [Eh]
	 SCS Opposite-Spin Energy  =      -2.3671350233079362 [Eh]
	 SCS Correlation Energy    =      -2.5790901646716935 [Eh]
	 SCS Total Energy          =    -573.0530639476330634 [Eh]
	-----------------------------------------------------------

  Dipole Moment: [D]
     X:    -0.7299      Y:    -1.0467      Z:    -0.4871     Total:     1.3658

*** Psi4 exiting successfully. Buy a developer a beer!
