                               Psi4 1.4a3.dev225

  ==> Input File <==

--------------------------------------------------------------------------
#psi4
#
memory 32 gb

molecule  {
0 1
  N        0.0678190     0.9536280     0.3022870
  N        2.3787710     0.9561460     0.2207080
  C       -1.1991060     0.3426720     0.1363540
  C        1.2435610     0.2442270     0.0818760
  C        0.1402100     2.4122570     0.3330790
  C       -1.5868590    -0.6993050     0.9921800
  C       -2.0897480     0.7954790    -0.8469150
  C        1.2497210    -1.1235430    -0.2722420
  C       -2.8402720    -1.2929990     0.8487880
  C       -3.3529590     0.2138150    -0.9676140
  C       -3.7300960    -0.8357430    -0.1274420
  C        2.4727450    -1.7522840    -0.4525030
  C        3.5923487     0.2934414     0.0337775
  C        3.6581100    -1.0291840    -0.2852360
  H        0.8914220     2.7227450     1.0594170
  H       -0.8398030     2.7868350     0.6320060
  H        0.4165240     2.8365740    -0.6404330
  H       -0.9028320    -1.0219250     1.7735780
  H       -1.7862700     1.5949720    -1.5186410
  H        0.3236690    -1.6661200    -0.4241870
  H       -3.1324200    -2.0992380     1.5176810
  H       -4.0389250     0.5738560    -1.7308950
  H       -4.7117870    -1.2913710    -0.2288330
  H        2.5003580    -2.8034100    -0.7313100
  H        4.4376410     0.9347650     0.1641390
  H        4.6312890    -1.4915970    -0.4182900
units angstrom
no_reorient  #important for SAPT in psi4, default
symmetry c1  #important for SAPT in psi4, default
}

set PROPERTIES_ORIGIN ["COM"]
properties('MP2/aug-cc-pvtz', properties = ['dipole'])
--------------------------------------------------------------------------

    Molecular point group: c1
  Charge       = 0
  Multiplicity = 1
  Basis Set: AUG-CC-PVTZ
    Blend: AUG-CC-PVTZ
  Basis Set: (AUG-CC-PVTZ AUX)
    Blend: AUG-CC-PVTZ-JKFIT

    Orbital Energies [Eh]
    ---------------------

    Doubly Occupied:

       1A    -15.578348     2A    -15.548732     3A    -11.316043
       4A    -11.280110     5A    -11.270782     6A    -11.256541
       7A    -11.248788     8A    -11.243693     9A    -11.243409
      10A    -11.239126    11A    -11.238194    12A    -11.237765
      13A    -11.229978    14A    -11.222237    15A     -1.290974
      16A     -1.210886    17A     -1.143399    18A     -1.077654
      19A     -1.030030    20A     -1.020388    21A     -1.005932
      22A     -0.927990    23A     -0.857564    24A     -0.845725
      25A     -0.833332    26A     -0.790360    27A     -0.730727
      28A     -0.693551    29A     -0.667452    30A     -0.658495
      31A     -0.647624    32A     -0.627761    33A     -0.618634
      34A     -0.601950    35A     -0.591390    36A     -0.584825
      37A     -0.568001    38A     -0.538397    39A     -0.531719
      40A     -0.526747    41A     -0.510457    42A     -0.504107
      43A     -0.500915    44A     -0.430501    45A     -0.413667
      46A     -0.371015    47A     -0.344534    48A     -0.340161
      49A     -0.291802

  @DF-RHF Final Energy:  -570.47994538984221

   => Energetics <=

    Nuclear Repulsion Energy =            819.0159864196627950
    One-Electron Energy =               -2398.0270443960580451
    Two-Electron Energy =                1008.5311125865530357
    Total Energy =                       -570.4799453898422144
  Basis Set: (AUG-CC-PVTZ AUX)
    Blend: AUG-CC-PVTZ-RI
    Molecular point group: c1

    Geometry (in Angstrom), charge = 0, multiplicity = 1:

       Center              X                  Y                   Z               Mass
    ------------   -----------------  -----------------  -----------------  -----------------
         N            0.053026972201     0.960943512138     0.299773534953    14.003074004430
         N            2.363978972201     0.963461512138     0.218194534953    14.003074004430
         C           -1.213898027799     0.349987512138     0.133840534953    12.000000000000
         C            1.228768972201     0.251542512138     0.079362534953    12.000000000000
         C            0.125417972201     2.419572512138     0.330565534953    12.000000000000
         C           -1.601651027799    -0.691989487862     0.989666534953    12.000000000000
         C           -2.104540027799     0.802794512138    -0.849428465047    12.000000000000
         C            1.234928972201    -1.116227487862    -0.274755465047    12.000000000000
         C           -2.855064027799    -1.285683487862     0.846274534953    12.000000000000
         C           -3.367751027799     0.221130512138    -0.970127465047    12.000000000000
         C           -3.744888027799    -0.828427487862    -0.129955465047    12.000000000000
         C            2.457952972201    -1.744968487862    -0.455016465047    12.000000000000
         C            3.577556672201     0.300756912138     0.031264034953    12.000000000000
         C            3.643317972201    -1.021868487862    -0.287749465047    12.000000000000
         H            0.876629972201     2.730060512138     1.056903534953     1.007825032230
         H           -0.854595027799     2.794150512138     0.629492534953     1.007825032230
         H            0.401731972201     2.843889512138    -0.642946465047     1.007825032230
         H           -0.917624027799    -1.014609487862     1.771064534953     1.007825032230
         H           -1.801062027799     1.602287512138    -1.521154465047     1.007825032230
         H            0.308876972201    -1.658804487862    -0.426700465047     1.007825032230
         H           -3.147212027799    -2.091922487862     1.515167534953     1.007825032230
         H           -4.053717027799     0.581171512138    -1.733408465047     1.007825032230
         H           -4.726579027799    -1.284055487862    -0.231346465047     1.007825032230
         H            2.485565972201    -2.796094487862    -0.733823465047     1.007825032230
         H            4.422848972201     0.942080512138     0.161625534953     1.007825032230
         H            4.616496972201    -1.484281487862    -0.420803465047     1.007825032230

  Basis Set: AUG-CC-PVTZ
    Blend: AUG-CC-PVTZ
  Basis Set: (AUG-CC-PVTZ AUX)
    Blend: AUG-CC-PVTZ-JKFIT
	 Reference Energy          =    -570.4799453898422144 [Eh]
	 Singles Energy            =      -0.0000000000000000 [Eh]
	 Same-Spin Energy          =      -0.6372332365897201 [Eh]
	 Opposite-Spin Energy      =      -1.9749825079590742 [Eh]
	 Correlation Energy        =      -2.6122157445487941 [Eh]
	 Total Energy              =    -573.0921611343910627 [Eh]

	 ================> DF-SCS-MP2 Energies <==================
	-----------------------------------------------------------
	 SCS Same-Spin Scale       =       0.3333333333333333 [-]
	 SCS Opposite-Spin Scale   =       1.2000000000000000 [-]
	 SCS Same-Spin Energy      =      -0.2124110788632400 [Eh]
	 SCS Opposite-Spin Energy  =      -2.3699790095508888 [Eh]
	 SCS Correlation Energy    =      -2.5823900884141286 [Eh]
	 SCS Total Energy          =    -573.0623354782563865 [Eh]
	-----------------------------------------------------------

  Dipole Moment: [D]
     X:    -1.1491      Y:    -0.9632      Z:    -0.4580     Total:     1.5678

*** Psi4 exiting successfully. Buy a developer a beer!
