                               Psi4 1.3.2 release

  ==> Input File <==

--------------------------------------------------------------------------
#psi4
#
memory 32 gb

molecule  {
0 1
  N        0.0678190     0.9536280     0.3022870
  N        2.3787710     0.9561460     0.2207080
  C       -1.2885593     0.2995345     0.1246380
  C        1.2435610     0.2442270     0.0818760
  C        0.1402100     2.4122570     0.3330790
  C       -1.5868590    -0.6993050     0.9921800
  C       -2.0897480     0.7954790    -0.8469150
  C        1.2497210    -1.1235430    -0.2722420
  C       -2.8402720    -1.2929990     0.8487880
  C       -3.3529590     0.2138150    -0.9676140
  C       -3.7300960    -0.8357430    -0.1274420
  C        2.4727450    -1.7522840    -0.4525030
  C        3.5488610     0.3171890     0.0404760
  C        3.6581100    -1.0291840    -0.2852360
  H        0.8914220     2.7227450     1.0594170
  H       -0.8398030     2.7868350     0.6320060
  H        0.4165240     2.8365740    -0.6404330
  H       -0.9028320    -1.0219250     1.7735780
  H       -1.7862700     1.5949720    -1.5186410
  H        0.3236690    -1.6661200    -0.4241870
  H       -3.1324200    -2.0992380     1.5176810
  H       -4.0389250     0.5738560    -1.7308950
  H       -4.7117870    -1.2913710    -0.2288330
  H        2.5003580    -2.8034100    -0.7313100
  H        4.4376410     0.9347650     0.1641390
  H        4.6312890    -1.4915970    -0.4182900
units angstrom
no_reorient  #important for SAPT in psi4, default
symmetry c1  #important for SAPT in psi4, default
}

set PROPERTIES_ORIGIN ["COM"]
properties('MP2/aug-cc-pvtz', properties = ['dipole'])
--------------------------------------------------------------------------

    Molecular point group: c1
  Charge       = 0
  Multiplicity = 1
  Basis Set: AUG-CC-PVTZ
    Blend: AUG-CC-PVTZ
  Basis Set: (AUG-CC-PVTZ AUX)
    Blend: AUG-CC-PVTZ-JKFIT

    Orbital Energies [Eh]
    ---------------------

    Doubly Occupied:

       1A    -15.573481     2A    -15.544275     3A    -11.312654
       4A    -11.278554     5A    -11.269513     6A    -11.252232
       7A    -11.247414     8A    -11.247065     9A    -11.245219
      10A    -11.241464    11A    -11.239339    12A    -11.237972
      13A    -11.223940    14A    -11.218901    15A     -1.281034
      16A     -1.210427    17A     -1.154167    18A     -1.075616
      19A     -1.032838    20A     -1.026096    21A     -1.006144
      22A     -0.918654    23A     -0.853550    24A     -0.844775
      25A     -0.835108    26A     -0.793121    27A     -0.726493
      28A     -0.693437    29A     -0.664157    30A     -0.653389
      31A     -0.647412    32A     -0.630356    33A     -0.611803
      34A     -0.609876    35A     -0.591286    36A     -0.581584
      37A     -0.563493    38A     -0.535282    39A     -0.531696
      40A     -0.524958    41A     -0.517959    42A     -0.514008
      43A     -0.494546    44A     -0.425308    45A     -0.409269
      46A     -0.374437    47A     -0.349259    48A     -0.346936
      49A     -0.287671

  @DF-RHF Final Energy:  -570.47427140381114

   => Energetics <=

    Nuclear Repulsion Energy =            819.4899470078645436
    One-Electron Energy =               -2399.0320880352292079
    Two-Electron Energy =                1009.0678696235536336
    Total Energy =                       -570.4742714038111444
  Basis Set: (AUG-CC-PVTZ AUX)
    Blend: AUG-CC-PVTZ-RI
    Molecular point group: c1

    Geometry (in Angstrom), charge = 0, multiplicity = 1:

       Center              X                  Y                   Z               Mass
    ------------   -----------------  -----------------  -----------------  -----------------
         N            0.061692325708     0.962207383614     0.300100585383    14.003074004430
         N            2.372644325708     0.964725383614     0.218521585383    14.003074004430
         C           -1.294685974292     0.308113883614     0.122451585383    12.000000000000
         C            1.237434325708     0.252806383614     0.079689585383    12.000000000000
         C            0.134083325708     2.420836383614     0.330892585383    12.000000000000
         C           -1.592985674292    -0.690725616386     0.989993585383    12.000000000000
         C           -2.095874674292     0.804058383614    -0.849101414617    12.000000000000
         C            1.243594325708    -1.114963616386    -0.274428414617    12.000000000000
         C           -2.846398674292    -1.284419616386     0.846601585383    12.000000000000
         C           -3.359085674292     0.222394383614    -0.969800414617    12.000000000000
         C           -3.736222674292    -0.827163616386    -0.129628414617    12.000000000000
         C            2.466618325708    -1.743704616386    -0.454689414617    12.000000000000
         C            3.542734325708     0.325768383614     0.038289585383    12.000000000000
         C            3.651983325708    -1.020604616386    -0.287422414617    12.000000000000
         H            0.885295325708     2.731324383614     1.057230585383     1.007825032230
         H           -0.845929674292     2.795414383614     0.629819585383     1.007825032230
         H            0.410397325708     2.845153383614    -0.642619414617     1.007825032230
         H           -0.908958674292    -1.013345616386     1.771391585383     1.007825032230
         H           -1.792396674292     1.603551383614    -1.520827414617     1.007825032230
         H            0.317542325708    -1.657540616386    -0.426373414617     1.007825032230
         H           -3.138546674292    -2.090658616386     1.515494585383     1.007825032230
         H           -4.045051674292     0.582435383614    -1.733081414617     1.007825032230
         H           -4.717913674292    -1.282791616386    -0.231019414617     1.007825032230
         H            2.494231325708    -2.794830616386    -0.733496414617     1.007825032230
         H            4.431514325708     0.943344383614     0.161952585383     1.007825032230
         H            4.625162325708    -1.483017616386    -0.420476414617     1.007825032230

  Basis Set: AUG-CC-PVTZ
    Blend: AUG-CC-PVTZ
  Basis Set: (AUG-CC-PVTZ AUX)
    Blend: AUG-CC-PVTZ-JKFIT
	 Reference Energy          =    -570.4742714038111444 [Eh]
	 Singles Energy            =      -0.0000000000000000 [Eh]
	 Same-Spin Energy          =      -0.6365685555398467 [Eh]
	 Opposite-Spin Energy      =      -1.9734955207859808 [Eh]
	 Correlation Energy        =      -2.6100640763258274 [Eh]
	 Total Energy              =    -573.0843354801369287 [Eh]

	 ================> DF-SCS-MP2 Energies <==================
	-----------------------------------------------------------
	 SCS Same-Spin Scale       =       0.3333333333333333 [-]
	 SCS Opposite-Spin Scale   =       1.2000000000000000 [-]
	 SCS Same-Spin Energy      =      -0.2121895185132822 [Eh]
	 SCS Opposite-Spin Energy  =      -2.3681946249431767 [Eh]
	 SCS Correlation Energy    =      -2.5803841434564587 [Eh]
	 SCS Total Energy          =    -573.0546555472676573 [Eh]
	-----------------------------------------------------------

  Dipole Moment: [D]
     X:    -1.8221      Y:    -1.0133      Z:    -0.4554     Total:     2.1340

*** Psi4 exiting successfully. Buy a developer a beer!
