                               Psi4 1.3.2 release

  ==> Input File <==

--------------------------------------------------------------------------
#psi4
#
memory 32 gb

molecule  {
0 1
  N        0.0678190     0.9536280     0.3022870
  N        2.3255398     1.0306442     0.2421091
  C       -1.1991060     0.3426720     0.1363540
  C        1.2435610     0.2442270     0.0818760
  C        0.1402100     2.4122570     0.3330790
  C       -1.5868590    -0.6993050     0.9921800
  C       -2.0897480     0.7954790    -0.8469150
  C        1.2497210    -1.1235430    -0.2722420
  C       -2.8402720    -1.2929990     0.8487880
  C       -3.3529590     0.2138150    -0.9676140
  C       -3.7300960    -0.8357430    -0.1274420
  C        2.4727450    -1.7522840    -0.4525030
  C        3.5488610     0.3171890     0.0404760
  C        3.6581100    -1.0291840    -0.2852360
  H        0.8914220     2.7227450     1.0594170
  H       -0.8398030     2.7868350     0.6320060
  H        0.4165240     2.8365740    -0.6404330
  H       -0.9028320    -1.0219250     1.7735780
  H       -1.7862700     1.5949720    -1.5186410
  H        0.3236690    -1.6661200    -0.4241870
  H       -3.1324200    -2.0992380     1.5176810
  H       -4.0389250     0.5738560    -1.7308950
  H       -4.7117870    -1.2913710    -0.2288330
  H        2.5003580    -2.8034100    -0.7313100
  H        4.4376410     0.9347650     0.1641390
  H        4.6312890    -1.4915970    -0.4182900
units angstrom
no_reorient  #important for SAPT in psi4, default
symmetry c1  #important for SAPT in psi4, default
}

set PROPERTIES_ORIGIN ["COM"]
properties('MP2/aug-cc-pvtz', properties = ['dipole'])
--------------------------------------------------------------------------

    Molecular point group: c1
  Charge       = 0
  Multiplicity = 1
  Basis Set: AUG-CC-PVTZ
    Blend: AUG-CC-PVTZ
  Basis Set: (AUG-CC-PVTZ AUX)
    Blend: AUG-CC-PVTZ-JKFIT

    Orbital Energies [Eh]
    ---------------------

    Doubly Occupied:

       1A    -15.575875     2A    -15.557202     3A    -11.316659
       4A    -11.281477     5A    -11.278592     6A    -11.259632
       7A    -11.247104     8A    -11.242958     9A    -11.242743
      10A    -11.238075    11A    -11.237369    12A    -11.236860
      13A    -11.230856    14A    -11.227762    15A     -1.292431
      16A     -1.204530    17A     -1.141724    18A     -1.082493
      19A     -1.025371    20A     -1.018746    21A     -1.004079
      22A     -0.926429    23A     -0.857396    24A     -0.844927
      25A     -0.832570    26A     -0.785942    27A     -0.727934
      28A     -0.693538    29A     -0.666499    30A     -0.657770
      31A     -0.646646    32A     -0.626298    33A     -0.613212
      34A     -0.600347    35A     -0.590211    36A     -0.582937
      37A     -0.568243    38A     -0.536675    39A     -0.529009
      40A     -0.525525    41A     -0.508026    42A     -0.502354
      43A     -0.500318    44A     -0.430303    45A     -0.424735
      46A     -0.372712    47A     -0.343743    48A     -0.338553
      49A     -0.291236

  @DF-RHF Final Energy:  -570.47165915902178

   => Energetics <=

    Nuclear Repulsion Energy =            818.8136451591469722
    One-Electron Energy =               -2397.6373515609320748
    Two-Electron Energy =                1008.3520472427633194
    Total Energy =                       -570.4716591590217831
  Basis Set: (AUG-CC-PVTZ AUX)
    Blend: AUG-CC-PVTZ-RI
    Molecular point group: c1

    Geometry (in Angstrom), charge = 0, multiplicity = 1:

       Center              X                  Y                   Z               Mass
    ------------   -----------------  -----------------  -----------------  -----------------
         N            0.059910473015     0.953729092482     0.297709096674    14.003074004430
         N            2.317631273015     1.030745292482     0.237531196674    14.003074004430
         C           -1.207014526985     0.342773092482     0.131776096674    12.000000000000
         C            1.235652473015     0.244328092482     0.077298096674    12.000000000000
         C            0.132301473015     2.412358092482     0.328501096674    12.000000000000
         C           -1.594767526985    -0.699203907518     0.987602096674    12.000000000000
         C           -2.097656526985     0.795580092482    -0.851492903326    12.000000000000
         C            1.241812473015    -1.123441907518    -0.276819903326    12.000000000000
         C           -2.848180526985    -1.292897907518     0.844210096674    12.000000000000
         C           -3.360867526985     0.213916092482    -0.972191903326    12.000000000000
         C           -3.738004526985    -0.835641907518    -0.132019903326    12.000000000000
         C            2.464836473015    -1.752182907518    -0.457080903326    12.000000000000
         C            3.540952473015     0.317290092482     0.035898096674    12.000000000000
         C            3.650201473015    -1.029082907518    -0.289813903326    12.000000000000
         H            0.883513473015     2.722846092482     1.054839096674     1.007825032230
         H           -0.847711526985     2.786936092482     0.627428096674     1.007825032230
         H            0.408615473015     2.836675092482    -0.645010903326     1.007825032230
         H           -0.910740526985    -1.021823907518     1.769000096674     1.007825032230
         H           -1.794178526985     1.595073092482    -1.523218903326     1.007825032230
         H            0.315760473015    -1.666018907518    -0.428764903326     1.007825032230
         H           -3.140328526985    -2.099136907518     1.513103096674     1.007825032230
         H           -4.046833526985     0.573957092482    -1.735472903326     1.007825032230
         H           -4.719695526985    -1.291269907518    -0.233410903326     1.007825032230
         H            2.492449473015    -2.803308907518    -0.735887903326     1.007825032230
         H            4.429732473015     0.934866092482     0.159561096674     1.007825032230
         H            4.623380473015    -1.491495907518    -0.422867903326     1.007825032230

  Basis Set: AUG-CC-PVTZ
    Blend: AUG-CC-PVTZ
  Basis Set: (AUG-CC-PVTZ AUX)
    Blend: AUG-CC-PVTZ-JKFIT
	 Reference Energy          =    -570.4716591590217831 [Eh]
	 Singles Energy            =      -0.0000000000000000 [Eh]
	 Same-Spin Energy          =      -0.6378382486705284 [Eh]
	 Opposite-Spin Energy      =      -1.9771765935264805 [Eh]
	 Correlation Energy        =      -2.6150148421970090 [Eh]
	 Total Energy              =    -573.0866740012187392 [Eh]

	 ================> DF-SCS-MP2 Energies <==================
	-----------------------------------------------------------
	 SCS Same-Spin Scale       =       0.3333333333333333 [-]
	 SCS Opposite-Spin Scale   =       1.2000000000000000 [-]
	 SCS Same-Spin Energy      =      -0.2126127495568428 [Eh]
	 SCS Opposite-Spin Energy  =      -2.3726119122317764 [Eh]
	 SCS Correlation Energy    =      -2.5852246617886192 [Eh]
	 SCS Total Energy          =    -573.0568838208104125 [Eh]
	-----------------------------------------------------------

  Dipole Moment: [D]
     X:    -1.0429      Y:    -1.0935      Z:    -0.4942     Total:     1.5899

*** Psi4 exiting successfully. Buy a developer a beer!
