                               Psi4 1.3.2 release

  ==> Input File <==

--------------------------------------------------------------------------
#psi4
#
memory 32 gb

molecule  {
0 1
  N        0.0809356     0.9735395     0.3068329
  N        2.3787710     0.9561460     0.2207080
  C       -1.1991060     0.3426720     0.1363540
  C        1.2435610     0.2442270     0.0818760
  C        0.1402100     2.4122570     0.3330790
  C       -1.5868590    -0.6993050     0.9921800
  C       -2.0897480     0.7954790    -0.8469150
  C        1.2497210    -1.1235430    -0.2722420
  C       -2.8402720    -1.2929990     0.8487880
  C       -3.3529590     0.2138150    -0.9676140
  C       -3.7300960    -0.8357430    -0.1274420
  C        2.4727450    -1.7522840    -0.4525030
  C        3.5488610     0.3171890     0.0404760
  C        3.6581100    -1.0291840    -0.2852360
  H        0.8914220     2.7227450     1.0594170
  H       -0.8398030     2.7868350     0.6320060
  H        0.4165240     2.8365740    -0.6404330
  H       -0.9028320    -1.0219250     1.7735780
  H       -1.7862700     1.5949720    -1.5186410
  H        0.3236690    -1.6661200    -0.4241870
  H       -3.1324200    -2.0992380     1.5176810
  H       -4.0389250     0.5738560    -1.7308950
  H       -4.7117870    -1.2913710    -0.2288330
  H        2.5003580    -2.8034100    -0.7313100
  H        4.4376410     0.9347650     0.1641390
  H        4.6312890    -1.4915970    -0.4182900
units angstrom
no_reorient  #important for SAPT in psi4, default
symmetry c1  #important for SAPT in psi4, default
}

set PROPERTIES_ORIGIN ["COM"]
properties('MP2/aug-cc-pvtz', properties = ['dipole'])
--------------------------------------------------------------------------

    Molecular point group: c1
  Charge       = 0
  Multiplicity = 1
  Basis Set: AUG-CC-PVTZ
    Blend: AUG-CC-PVTZ
  Basis Set: (AUG-CC-PVTZ AUX)
    Blend: AUG-CC-PVTZ-JKFIT

    Orbital Energies [Eh]
    ---------------------

    Doubly Occupied:

       1A    -15.578946     2A    -15.548305     3A    -11.316787
       4A    -11.281664     5A    -11.272245     6A    -11.255265
       7A    -11.247485     8A    -11.244247     9A    -11.244035
      10A    -11.240194    11A    -11.239120    12A    -11.238960
      13A    -11.227912    14A    -11.222660    15A     -1.294440
      16A     -1.218939    17A     -1.145210    18A     -1.079123
      19A     -1.028174    20A     -1.020771    21A     -1.007029
      22A     -0.926011    23A     -0.859798    24A     -0.841964
      25A     -0.833191    26A     -0.792357    27A     -0.729231
      28A     -0.694379    29A     -0.669496    30A     -0.657300
      31A     -0.647656    32A     -0.630239    33A     -0.615157
      34A     -0.603284    35A     -0.592101    36A     -0.585967
      37A     -0.567858    38A     -0.538601    39A     -0.534938
      40A     -0.528372    41A     -0.510427    42A     -0.504159
      43A     -0.501909    44A     -0.428561    45A     -0.413389
      46A     -0.377150    47A     -0.344613    48A     -0.339931
      49A     -0.289006

  @DF-RHF Final Energy:  -570.48346885062915

   => Energetics <=

    Nuclear Repulsion Energy =            819.5770569607395828
    One-Electron Energy =               -2399.1039459119597268
    Two-Electron Energy =                1009.0434201005909927
    Total Energy =                       -570.4834688506291513
  Basis Set: (AUG-CC-PVTZ AUX)
    Blend: AUG-CC-PVTZ-RI
    Molecular point group: c1

    Geometry (in Angstrom), charge = 0, multiplicity = 1:

       Center              X                  Y                   Z               Mass
    ------------   -----------------  -----------------  -----------------  -----------------
         N            0.067980506425     0.977792582698     0.303537042035    14.003074004430
         N            2.365815906425     0.960399082698     0.217412142035    14.003074004430
         C           -1.212061093575     0.346925082698     0.133058142035    12.000000000000
         C            1.230605906425     0.248480082698     0.078580142035    12.000000000000
         C            0.127254906425     2.416510082698     0.329783142035    12.000000000000
         C           -1.599814093575    -0.695051917302     0.988884142035    12.000000000000
         C           -2.102703093575     0.799732082698    -0.850210857965    12.000000000000
         C            1.236765906425    -1.119289917302    -0.275537857965    12.000000000000
         C           -2.853227093575    -1.288745917302     0.845492142035    12.000000000000
         C           -3.365914093575     0.218068082698    -0.970909857965    12.000000000000
         C           -3.743051093575    -0.831489917302    -0.130737857965    12.000000000000
         C            2.459789906425    -1.748030917302    -0.455798857965    12.000000000000
         C            3.535905906425     0.321442082698     0.037180142035    12.000000000000
         C            3.645154906425    -1.024930917302    -0.288531857965    12.000000000000
         H            0.878466906425     2.726998082698     1.056121142035     1.007825032230
         H           -0.852758093575     2.791088082698     0.628710142035     1.007825032230
         H            0.403568906425     2.840827082698    -0.643728857965     1.007825032230
         H           -0.915787093575    -1.017671917302     1.770282142035     1.007825032230
         H           -1.799225093575     1.599225082698    -1.521936857965     1.007825032230
         H            0.310713906425    -1.661866917302    -0.427482857965     1.007825032230
         H           -3.145375093575    -2.094984917302     1.514385142035     1.007825032230
         H           -4.051880093575     0.578109082698    -1.734190857965     1.007825032230
         H           -4.724742093575    -1.287117917302    -0.232128857965     1.007825032230
         H            2.487402906425    -2.799156917302    -0.734605857965     1.007825032230
         H            4.424685906425     0.939018082698     0.160843142035     1.007825032230
         H            4.618333906425    -1.487343917302    -0.421585857965     1.007825032230

  Basis Set: AUG-CC-PVTZ
    Blend: AUG-CC-PVTZ
  Basis Set: (AUG-CC-PVTZ AUX)
    Blend: AUG-CC-PVTZ-JKFIT
	 Reference Energy          =    -570.4834688506291513 [Eh]
	 Singles Energy            =      -0.0000000000000000 [Eh]
	 Same-Spin Energy          =      -0.6370631674872815 [Eh]
	 Opposite-Spin Energy      =      -1.9738925525816695 [Eh]
	 Correlation Energy        =      -2.6109557200689508 [Eh]
	 Total Energy              =    -573.0944245706981519 [Eh]

	 ================> DF-SCS-MP2 Energies <==================
	-----------------------------------------------------------
	 SCS Same-Spin Scale       =       0.3333333333333333 [-]
	 SCS Opposite-Spin Scale   =       1.2000000000000000 [-]
	 SCS Same-Spin Energy      =      -0.2123543891624272 [Eh]
	 SCS Opposite-Spin Energy  =      -2.3686710630980032 [Eh]
	 SCS Correlation Energy    =      -2.5810254522604303 [Eh]
	 SCS Total Energy          =    -573.0644943028895568 [Eh]
	-----------------------------------------------------------

  Dipole Moment: [D]
     X:    -1.2655      Y:    -0.9572      Z:    -0.4434     Total:     1.6476

*** Psi4 exiting successfully. Buy a developer a beer!
