                               Psi4 1.3.2 release

  ==> Input File <==

--------------------------------------------------------------------------
#psi4
#
memory 32 gb

molecule  {
0 1
  N        0.0678190     0.9536280     0.3022870
  N        2.3787710     0.9561460     0.2207080
  C       -1.1991060     0.3426720     0.1363540
  C        1.1592933     0.1913806     0.0715704
  C        0.1402100     2.4122570     0.3330790
  C       -1.5868590    -0.6993050     0.9921800
  C       -2.0897480     0.7954790    -0.8469150
  C        1.2497210    -1.1235430    -0.2722420
  C       -2.8402720    -1.2929990     0.8487880
  C       -3.3529590     0.2138150    -0.9676140
  C       -3.7300960    -0.8357430    -0.1274420
  C        2.4727450    -1.7522840    -0.4525030
  C        3.5488610     0.3171890     0.0404760
  C        3.6581100    -1.0291840    -0.2852360
  H        0.8914220     2.7227450     1.0594170
  H       -0.8398030     2.7868350     0.6320060
  H        0.4165240     2.8365740    -0.6404330
  H       -0.9028320    -1.0219250     1.7735780
  H       -1.7862700     1.5949720    -1.5186410
  H        0.3236690    -1.6661200    -0.4241870
  H       -3.1324200    -2.0992380     1.5176810
  H       -4.0389250     0.5738560    -1.7308950
  H       -4.7117870    -1.2913710    -0.2288330
  H        2.5003580    -2.8034100    -0.7313100
  H        4.4376410     0.9347650     0.1641390
  H        4.6312890    -1.4915970    -0.4182900
units angstrom
no_reorient  #important for SAPT in psi4, default
symmetry c1  #important for SAPT in psi4, default
}

set PROPERTIES_ORIGIN ["COM"]
properties('MP2/aug-cc-pvtz', properties = ['dipole'])
--------------------------------------------------------------------------

    Molecular point group: c1
  Charge       = 0
  Multiplicity = 1
  Basis Set: AUG-CC-PVTZ
    Blend: AUG-CC-PVTZ
  Basis Set: (AUG-CC-PVTZ AUX)
    Blend: AUG-CC-PVTZ-JKFIT

    Orbital Energies [Eh]
    ---------------------

    Doubly Occupied:

       1A    -15.585481     2A    -15.550479     3A    -11.315908
       4A    -11.281001     5A    -11.269785     6A    -11.255765
       7A    -11.254733     8A    -11.245097     9A    -11.244779
      10A    -11.241081    11A    -11.239863    12A    -11.239704
      13A    -11.219259    14A    -11.219015    15A     -1.298848
      16A     -1.205932    17A     -1.146194    18A     -1.073911
      19A     -1.031277    20A     -1.022102    21A     -1.007548
      22A     -0.934291    23A     -0.856328    24A     -0.845272
      25A     -0.835495    26A     -0.790023    27A     -0.731017
      28A     -0.695010    29A     -0.670645    30A     -0.655298
      31A     -0.648553    32A     -0.629080    33A     -0.616658
      34A     -0.600841    35A     -0.592464    36A     -0.587945
      37A     -0.568083    38A     -0.544658    39A     -0.529813
      40A     -0.525218    41A     -0.510058    42A     -0.504468
      43A     -0.502520    44A     -0.436542    45A     -0.405312
      46A     -0.371625    47A     -0.345224    48A     -0.341529
      49A     -0.286432

  @DF-RHF Final Energy:  -570.46964430630032

   => Energetics <=

    Nuclear Repulsion Energy =            820.0150160328727225
    One-Electron Energy =               -2399.9529973219032399
    Two-Electron Energy =                1009.4683369827303068
    Total Energy =                       -570.4696443063003244
  Basis Set: (AUG-CC-PVTZ AUX)
    Blend: AUG-CC-PVTZ-RI
    Molecular point group: c1

    Geometry (in Angstrom), charge = 0, multiplicity = 1:

       Center              X                  Y                   Z               Mass
    ------------   -----------------  -----------------  -----------------  -----------------
         N            0.061354318192     0.962840228641     0.300008652762    14.003074004430
         N            2.372306318192     0.965358228641     0.218429652762    14.003074004430
         C           -1.205570681808     0.351884228641     0.134075652762    12.000000000000
         C            1.152828618192     0.200592828641     0.069292052762    12.000000000000
         C            0.133745318192     2.421469228641     0.330800652762    12.000000000000
         C           -1.593323681808    -0.690092771359     0.989901652762    12.000000000000
         C           -2.096212681808     0.804691228641    -0.849193347238    12.000000000000
         C            1.243256318192    -1.114330771359    -0.274520347238    12.000000000000
         C           -2.846736681808    -1.283786771359     0.846509652762    12.000000000000
         C           -3.359423681808     0.223027228641    -0.969892347238    12.000000000000
         C           -3.736560681808    -0.826530771359    -0.129720347238    12.000000000000
         C            2.466280318192    -1.743071771359    -0.454781347238    12.000000000000
         C            3.542396318192     0.326401228641     0.038197652762    12.000000000000
         C            3.651645318192    -1.019971771359    -0.287514347238    12.000000000000
         H            0.884957318192     2.731957228641     1.057138652762     1.007825032230
         H           -0.846267681808     2.796047228641     0.629727652762     1.007825032230
         H            0.410059318192     2.845786228641    -0.642711347238     1.007825032230
         H           -0.909296681808    -1.012712771359     1.771299652762     1.007825032230
         H           -1.792734681808     1.604184228641    -1.520919347238     1.007825032230
         H            0.317204318192    -1.656907771359    -0.426465347238     1.007825032230
         H           -3.138884681808    -2.090025771359     1.515402652762     1.007825032230
         H           -4.045389681808     0.583068228641    -1.733173347238     1.007825032230
         H           -4.718251681808    -1.282158771359    -0.231111347238     1.007825032230
         H            2.493893318192    -2.794197771359    -0.733588347238     1.007825032230
         H            4.431176318192     0.943977228641     0.161860652762     1.007825032230
         H            4.624824318192    -1.482384771359    -0.420568347238     1.007825032230

  Basis Set: AUG-CC-PVTZ
    Blend: AUG-CC-PVTZ
  Basis Set: (AUG-CC-PVTZ AUX)
    Blend: AUG-CC-PVTZ-JKFIT
	 Reference Energy          =    -570.4696443063003244 [Eh]
	 Singles Energy            =      -0.0000000000000000 [Eh]
	 Same-Spin Energy          =      -0.6382341717499561 [Eh]
	 Opposite-Spin Energy      =      -1.9765562241551224 [Eh]
	 Correlation Energy        =      -2.6147903959050787 [Eh]
	 Total Energy              =    -573.0844347022053853 [Eh]

	 ================> DF-SCS-MP2 Energies <==================
	-----------------------------------------------------------
	 SCS Same-Spin Scale       =       0.3333333333333333 [-]
	 SCS Opposite-Spin Scale   =       1.2000000000000000 [-]
	 SCS Same-Spin Energy      =      -0.2127447239166520 [Eh]
	 SCS Opposite-Spin Energy  =      -2.3718674689861468 [Eh]
	 SCS Correlation Energy    =      -2.5846121929027990 [Eh]
	 SCS Total Energy          =    -573.0542564992031203 [Eh]
	-----------------------------------------------------------

  Dipole Moment: [D]
     X:    -1.5473      Y:    -0.7178      Z:    -0.3851     Total:     1.7486

*** Psi4 exiting successfully. Buy a developer a beer!
