                               Psi4 1.3.2 release

  ==> Input File <==

--------------------------------------------------------------------------
#psi4
#
memory 32 gb

molecule  {
0 1
  N        0.0678190     0.9536280     0.3022870
  N        2.3787710     0.9561460     0.2207080
  C       -1.3780126     0.2563969     0.1129221
  C        1.2435610     0.2442270     0.0818760
  C        0.1402100     2.4122570     0.3330790
  C       -1.5868590    -0.6993050     0.9921800
  C       -2.0897480     0.7954790    -0.8469150
  C        1.2497210    -1.1235430    -0.2722420
  C       -2.8402720    -1.2929990     0.8487880
  C       -3.3529590     0.2138150    -0.9676140
  C       -3.7300960    -0.8357430    -0.1274420
  C        2.4727450    -1.7522840    -0.4525030
  C        3.5488610     0.3171890     0.0404760
  C        3.6581100    -1.0291840    -0.2852360
  H        0.8914220     2.7227450     1.0594170
  H       -0.8398030     2.7868350     0.6320060
  H        0.4165240     2.8365740    -0.6404330
  H       -0.9028320    -1.0219250     1.7735780
  H       -1.7862700     1.5949720    -1.5186410
  H        0.3236690    -1.6661200    -0.4241870
  H       -3.1324200    -2.0992380     1.5176810
  H       -4.0389250     0.5738560    -1.7308950
  H       -4.7117870    -1.2913710    -0.2288330
  H        2.5003580    -2.8034100    -0.7313100
  H        4.4376410     0.9347650     0.1641390
  H        4.6312890    -1.4915970    -0.4182900
units angstrom
no_reorient  #important for SAPT in psi4, default
symmetry c1  #important for SAPT in psi4, default
}

set PROPERTIES_ORIGIN ["COM"]
properties('MP2/aug-cc-pvtz', properties = ['dipole'])
--------------------------------------------------------------------------

    Molecular point group: c1
  Charge       = 0
  Multiplicity = 1
  Basis Set: AUG-CC-PVTZ
    Blend: AUG-CC-PVTZ
  Basis Set: (AUG-CC-PVTZ AUX)
    Blend: AUG-CC-PVTZ-JKFIT

    Orbital Energies [Eh]
    ---------------------

    Doubly Occupied:

       1A    -15.565478     2A    -15.539630     3A    -11.307847
       4A    -11.279918     5A    -11.266407     6A    -11.251752
       7A    -11.251370     8A    -11.249398     9A    -11.244288
      10A    -11.240701    11A    -11.240136    12A    -11.238913
      13A    -11.220501    14A    -11.215129    15A     -1.271290
      16A     -1.207663    17A     -1.160174    18A     -1.072151
      19A     -1.044776    20A     -1.029223    21A     -1.004206
      22A     -0.911234    23A     -0.853823    24A     -0.848194
      25A     -0.831194    26A     -0.792894    27A     -0.726773
      28A     -0.691063    29A     -0.661674    30A     -0.656311
      31A     -0.645940    32A     -0.631297    33A     -0.619160
      34A     -0.607286    35A     -0.587444    36A     -0.577995
      37A     -0.560032    38A     -0.533920    39A     -0.530909
      40A     -0.526710    41A     -0.525099    42A     -0.518619
      43A     -0.473897    44A     -0.419121    45A     -0.404973
      46A     -0.371684    47A     -0.355836    48A     -0.354090
      49A     -0.284199

  @DF-RHF Final Energy:  -570.44373284225401

   => Energetics <=

    Nuclear Repulsion Energy =            819.3687568383325015
    One-Electron Energy =               -2398.8203319416206796
    Two-Electron Energy =                1009.0078422610341704
    Total Energy =                       -570.4437328422540077
  Basis Set: (AUG-CC-PVTZ AUX)
    Blend: AUG-CC-PVTZ-RI
    Molecular point group: c1

    Geometry (in Angstrom), charge = 0, multiplicity = 1:

       Center              X                  Y                   Z               Mass
    ------------   -----------------  -----------------  -----------------  -----------------
         N            0.067523066163     0.965019176466     0.300864250582    14.003074004430
         N            2.378475066163     0.967537176466     0.219285250582    14.003074004430
         C           -1.378308533837     0.267788076466     0.111499350582    12.000000000000
         C            1.243265066163     0.255618176466     0.080453250582    12.000000000000
         C            0.139914066163     2.423648176466     0.331656250582    12.000000000000
         C           -1.587154933837    -0.687913823534     0.990757250582    12.000000000000
         C           -2.090043933837     0.806870176466    -0.848337749418    12.000000000000
         C            1.249425066163    -1.112151823534    -0.273664749418    12.000000000000
         C           -2.840567933837    -1.281607823534     0.847365250582    12.000000000000
         C           -3.353254933837     0.225206176466    -0.969036749418    12.000000000000
         C           -3.730391933837    -0.824351823534    -0.128864749418    12.000000000000
         C            2.472449066163    -1.740892823534    -0.453925749418    12.000000000000
         C            3.548565066163     0.328580176466     0.039053250582    12.000000000000
         C            3.657814066163    -1.017792823534    -0.286658749418    12.000000000000
         H            0.891126066163     2.734136176466     1.057994250582     1.007825032230
         H           -0.840098933837     2.798226176466     0.630583250582     1.007825032230
         H            0.416228066163     2.847965176466    -0.641855749418     1.007825032230
         H           -0.903127933837    -1.010533823534     1.772155250582     1.007825032230
         H           -1.786565933837     1.606363176466    -1.520063749418     1.007825032230
         H            0.323373066163    -1.654728823534    -0.425609749418     1.007825032230
         H           -3.132715933837    -2.087846823534     1.516258250582     1.007825032230
         H           -4.039220933837     0.585247176466    -1.732317749418     1.007825032230
         H           -4.712082933837    -1.279979823534    -0.230255749418     1.007825032230
         H            2.500062066163    -2.792018823534    -0.732732749418     1.007825032230
         H            4.437345066163     0.946156176466     0.162716250582     1.007825032230
         H            4.630993066163    -1.480205823534    -0.419712749418     1.007825032230

  Basis Set: AUG-CC-PVTZ
    Blend: AUG-CC-PVTZ
  Basis Set: (AUG-CC-PVTZ AUX)
    Blend: AUG-CC-PVTZ-JKFIT
	 Reference Energy          =    -570.4437328422540077 [Eh]
	 Singles Energy            =      -0.0000000000000000 [Eh]
	 Same-Spin Energy          =      -0.6371831532813803 [Eh]
	 Opposite-Spin Energy      =      -1.9748834259991837 [Eh]
	 Correlation Energy        =      -2.6120665792805640 [Eh]
	 Total Energy              =    -573.0557994215345161 [Eh]

	 ================> DF-SCS-MP2 Energies <==================
	-----------------------------------------------------------
	 SCS Same-Spin Scale       =       0.3333333333333333 [-]
	 SCS Opposite-Spin Scale   =       1.2000000000000000 [-]
	 SCS Same-Spin Energy      =      -0.2123943844271268 [Eh]
	 SCS Opposite-Spin Energy  =      -2.3698601111990203 [Eh]
	 SCS Correlation Energy    =      -2.5822544956261471 [Eh]
	 SCS Total Energy          =    -573.0259873378801103 [Eh]
	-----------------------------------------------------------

  Dipole Moment: [D]
     X:    -2.4060      Y:    -1.1185      Z:    -0.4696     Total:     2.6945

*** Psi4 exiting successfully. Buy a developer a beer!
