                               Psi4 1.3.2 release

  ==> Input File <==

--------------------------------------------------------------------------
#psi4
#
memory 32 gb

molecule  {
0 1
  N        0.0678190     0.9536280     0.3022870
  N        2.3787710     0.9561460     0.2207080
  C       -1.1882893     0.3204683     0.1373603
  C        1.2435610     0.2442270     0.0818760
  C        0.1402100     2.4122570     0.3330790
  C       -1.5868590    -0.6993050     0.9921800
  C       -2.0897480     0.7954790    -0.8469150
  C        1.2497210    -1.1235430    -0.2722420
  C       -2.8402720    -1.2929990     0.8487880
  C       -3.3529590     0.2138150    -0.9676140
  C       -3.7300960    -0.8357430    -0.1274420
  C        2.4727450    -1.7522840    -0.4525030
  C        3.5488610     0.3171890     0.0404760
  C        3.6581100    -1.0291840    -0.2852360
  H        0.8914220     2.7227450     1.0594170
  H       -0.8398030     2.7868350     0.6320060
  H        0.4165240     2.8365740    -0.6404330
  H       -0.9028320    -1.0219250     1.7735780
  H       -1.7862700     1.5949720    -1.5186410
  H        0.3236690    -1.6661200    -0.4241870
  H       -3.1324200    -2.0992380     1.5176810
  H       -4.0389250     0.5738560    -1.7308950
  H       -4.7117870    -1.2913710    -0.2288330
  H        2.5003580    -2.8034100    -0.7313100
  H        4.4376410     0.9347650     0.1641390
  H        4.6312890    -1.4915970    -0.4182900
units angstrom
no_reorient  #important for SAPT in psi4, default
symmetry c1  #important for SAPT in psi4, default
}

set PROPERTIES_ORIGIN ["COM"]
properties('MP2/aug-cc-pvtz', properties = ['dipole'])
--------------------------------------------------------------------------

    Molecular point group: c1
  Charge       = 0
  Multiplicity = 1
  Basis Set: AUG-CC-PVTZ
    Blend: AUG-CC-PVTZ
  Basis Set: (AUG-CC-PVTZ AUX)
    Blend: AUG-CC-PVTZ-JKFIT

    Orbital Energies [Eh]
    ---------------------

    Doubly Occupied:

       1A    -15.579107     2A    -15.548705     3A    -11.316648
       4A    -11.280222     5A    -11.272420     6A    -11.254975
       7A    -11.250304     8A    -11.243650     9A    -11.243520
      10A    -11.240702    11A    -11.238316    12A    -11.236510
      13A    -11.227309    14A    -11.222636    15A     -1.294806
      16A     -1.220158    17A     -1.143948    18A     -1.079087
      19A     -1.027298    20A     -1.022064    21A     -1.004395
      22A     -0.927203    23A     -0.860056    24A     -0.842761
      25A     -0.833517    26A     -0.792011    27A     -0.729715
      28A     -0.693676    29A     -0.669385    30A     -0.657957
      31A     -0.647683    32A     -0.629272    33A     -0.615038
      34A     -0.601411    35A     -0.592143    36A     -0.584268
      37A     -0.568725    38A     -0.538929    39A     -0.535367
      40A     -0.528004    41A     -0.511371    42A     -0.504716
      43A     -0.501391    44A     -0.429721    45A     -0.413420
      46A     -0.377187    47A     -0.345511    48A     -0.337844
      49A     -0.288437

  @DF-RHF Final Energy:  -570.48360747785568

   => Energetics <=

    Nuclear Repulsion Energy =            819.8557071464969113
    One-Electron Energy =               -2399.6716335051582973
    Two-Electron Energy =                1009.3323188808055875
    Total Energy =                       -570.4836074778556849
  Basis Set: (AUG-CC-PVTZ AUX)
    Blend: AUG-CC-PVTZ-RI
    Molecular point group: c1

    Geometry (in Angstrom), charge = 0, multiplicity = 1:

       Center              X                  Y                   Z               Mass
    ------------   -----------------  -----------------  -----------------  -----------------
         N            0.055156531663     0.960842877727     0.299271321071    14.003074004430
         N            2.366108531663     0.963360877727     0.217692321071    14.003074004430
         C           -1.200951768337     0.327683177727     0.134344621071    12.000000000000
         C            1.230898531663     0.251441877727     0.078860321071    12.000000000000
         C            0.127547531663     2.419471877727     0.330063321071    12.000000000000
         C           -1.599521468337    -0.692090122273     0.989164321071    12.000000000000
         C           -2.102410468337     0.802693877727    -0.849930678929    12.000000000000
         C            1.237058531663    -1.116328122273    -0.275257678929    12.000000000000
         C           -2.852934468337    -1.285784122273     0.845772321071    12.000000000000
         C           -3.365621468337     0.221029877727    -0.970629678929    12.000000000000
         C           -3.742758468337    -0.828528122273    -0.130457678929    12.000000000000
         C            2.460082531663    -1.745069122273    -0.455518678929    12.000000000000
         C            3.536198531663     0.324403877727     0.037460321071    12.000000000000
         C            3.645447531663    -1.021969122273    -0.288251678929    12.000000000000
         H            0.878759531663     2.729959877727     1.056401321071     1.007825032230
         H           -0.852465468337     2.794049877727     0.628990321071     1.007825032230
         H            0.403861531663     2.843788877727    -0.643448678929     1.007825032230
         H           -0.915494468337    -1.014710122273     1.770562321071     1.007825032230
         H           -1.798932468337     1.602186877727    -1.521656678929     1.007825032230
         H            0.311006531663    -1.658905122273    -0.427202678929     1.007825032230
         H           -3.145082468337    -2.092023122273     1.514665321071     1.007825032230
         H           -4.051587468337     0.581070877727    -1.733910678929     1.007825032230
         H           -4.724449468337    -1.284156122273    -0.231848678929     1.007825032230
         H            2.487695531663    -2.796195122273    -0.734325678929     1.007825032230
         H            4.424978531663     0.941979877727     0.161123321071     1.007825032230
         H            4.618626531663    -1.484382122273    -0.421305678929     1.007825032230

  Basis Set: AUG-CC-PVTZ
    Blend: AUG-CC-PVTZ
  Basis Set: (AUG-CC-PVTZ AUX)
    Blend: AUG-CC-PVTZ-JKFIT
	 Reference Energy          =    -570.4836074778556849 [Eh]
	 Singles Energy            =      -0.0000000000000000 [Eh]
	 Same-Spin Energy          =      -0.6371543694582067 [Eh]
	 Opposite-Spin Energy      =      -1.9740154621378727 [Eh]
	 Correlation Energy        =      -2.6111698315960794 [Eh]
	 Total Energy              =    -573.0947773094517288 [Eh]

	 ================> DF-SCS-MP2 Energies <==================
	-----------------------------------------------------------
	 SCS Same-Spin Scale       =       0.3333333333333333 [-]
	 SCS Opposite-Spin Scale   =       1.2000000000000000 [-]
	 SCS Same-Spin Energy      =      -0.2123847898194022 [Eh]
	 SCS Opposite-Spin Energy  =      -2.3688185545654470 [Eh]
	 SCS Correlation Energy    =      -2.5812033443848490 [Eh]
	 SCS Total Energy          =    -573.0648108222405881 [Eh]
	-----------------------------------------------------------

  Dipole Moment: [D]
     X:    -1.2052      Y:    -0.8876      Z:    -0.4302     Total:     1.5574

*** Psi4 exiting successfully. Buy a developer a beer!
