                               Psi4 1.3.2 release

  ==> Input File <==

--------------------------------------------------------------------------
#psi4
#
memory 32 gb

molecule  {
0 1
  N       -0.0032275     0.8298382     0.2736518
  N        2.3787710     0.9561460     0.2207080
  C       -1.1991060     0.3426720     0.1363540
  C        1.2435610     0.2442270     0.0818760
  C        0.1402100     2.4122570     0.3330790
  C       -1.5868590    -0.6993050     0.9921800
  C       -2.0897480     0.7954790    -0.8469150
  C        1.2497210    -1.1235430    -0.2722420
  C       -2.8402720    -1.2929990     0.8487880
  C       -3.3529590     0.2138150    -0.9676140
  C       -3.7300960    -0.8357430    -0.1274420
  C        2.4727450    -1.7522840    -0.4525030
  C        3.5488610     0.3171890     0.0404760
  C        3.6581100    -1.0291840    -0.2852360
  H        0.8914220     2.7227450     1.0594170
  H       -0.8398030     2.7868350     0.6320060
  H        0.4165240     2.8365740    -0.6404330
  H       -0.9028320    -1.0219250     1.7735780
  H       -1.7862700     1.5949720    -1.5186410
  H        0.3236690    -1.6661200    -0.4241870
  H       -3.1324200    -2.0992380     1.5176810
  H       -4.0389250     0.5738560    -1.7308950
  H       -4.7117870    -1.2913710    -0.2288330
  H        2.5003580    -2.8034100    -0.7313100
  H        4.4376410     0.9347650     0.1641390
  H        4.6312890    -1.4915970    -0.4182900
units angstrom
no_reorient  #important for SAPT in psi4, default
symmetry c1  #important for SAPT in psi4, default
}

set PROPERTIES_ORIGIN ["COM"]
properties('MP2/aug-cc-pvtz', properties = ['dipole'])
--------------------------------------------------------------------------

    Molecular point group: c1
  Charge       = 0
  Multiplicity = 1
  Basis Set: AUG-CC-PVTZ
    Blend: AUG-CC-PVTZ
  Basis Set: (AUG-CC-PVTZ AUX)
    Blend: AUG-CC-PVTZ-JKFIT

    Orbital Energies [Eh]
    ---------------------

    Doubly Occupied:

       1A    -15.579581     2A    -15.553626     3A    -11.321935
       4A    -11.274861     5A    -11.271403     6A    -11.262920
       7A    -11.254321     8A    -11.240522     9A    -11.239272
      10A    -11.233263    11A    -11.232653    12A    -11.230072
      13A    -11.225820    14A    -11.224147    15A     -1.303713
      16A     -1.232434    17A     -1.136856    18A     -1.079802
      19A     -1.034140    20A     -1.017663    21A     -0.991742
      22A     -0.932216    23A     -0.867806    24A     -0.849748
      25A     -0.833301    26A     -0.789340    27A     -0.737590
      28A     -0.688415    29A     -0.670041    30A     -0.663173
      31A     -0.651148    32A     -0.623749    33A     -0.614032
      34A     -0.600909    35A     -0.587114    36A     -0.577257
      37A     -0.571257    38A     -0.541385    39A     -0.536742
      40A     -0.525786    41A     -0.514239    42A     -0.507251
      43A     -0.491016    44A     -0.434183    45A     -0.414633
      46A     -0.378883    47A     -0.340704    48A     -0.335208
      49A     -0.283413

  @DF-RHF Final Energy:  -570.45746353942820

   => Energetics <=

    Nuclear Repulsion Energy =            821.1169253911989472
    One-Electron Energy =               -2402.1462092410406512
    Two-Electron Energy =                1010.5718203104135000
    Total Energy =                       -570.4574635394282041
  Basis Set: (AUG-CC-PVTZ AUX)
    Blend: AUG-CC-PVTZ-RI
    Molecular point group: c1

    Geometry (in Angstrom), charge = 0, multiplicity = 1:

       Center              X                  Y                   Z               Mass
    ------------   -----------------  -----------------  -----------------  -----------------
         N           -0.009780954206     0.845021534787     0.272879772978    14.003074004430
         N            2.372217545794     0.971329334787     0.219935972978    14.003074004430
         C           -1.205659454206     0.357855334787     0.135581972978    12.000000000000
         C            1.237007545794     0.259410334787     0.081103972978    12.000000000000
         C            0.133656545794     2.427440334787     0.332306972978    12.000000000000
         C           -1.593412454206    -0.684121665213     0.991407972978    12.000000000000
         C           -2.096301454206     0.810662334787    -0.847687027022    12.000000000000
         C            1.243167545794    -1.108359665213    -0.273014027022    12.000000000000
         C           -2.846825454206    -1.277815665213     0.848015972978    12.000000000000
         C           -3.359512454206     0.228998334787    -0.968386027022    12.000000000000
         C           -3.736649454206    -0.820559665213    -0.128214027022    12.000000000000
         C            2.466191545794    -1.737100665213    -0.453275027022    12.000000000000
         C            3.542307545794     0.332372334787     0.039703972978    12.000000000000
         C            3.651556545794    -1.014000665213    -0.286008027022    12.000000000000
         H            0.884868545794     2.737928334787     1.058644972978     1.007825032230
         H           -0.846356454206     2.802018334787     0.631233972978     1.007825032230
         H            0.409970545794     2.851757334787    -0.641205027022     1.007825032230
         H           -0.909385454206    -1.006741665213     1.772805972978     1.007825032230
         H           -1.792823454206     1.610155334787    -1.519413027022     1.007825032230
         H            0.317115545794    -1.650936665213    -0.424959027022     1.007825032230
         H           -3.138973454206    -2.084054665213     1.516908972978     1.007825032230
         H           -4.045478454206     0.589039334787    -1.731667027022     1.007825032230
         H           -4.718340454206    -1.276187665213    -0.229605027022     1.007825032230
         H            2.493804545794    -2.788226665213    -0.732082027022     1.007825032230
         H            4.431087545794     0.949948334787     0.163366972978     1.007825032230
         H            4.624735545794    -1.476413665213    -0.419062027022     1.007825032230

  Basis Set: AUG-CC-PVTZ
    Blend: AUG-CC-PVTZ
  Basis Set: (AUG-CC-PVTZ AUX)
    Blend: AUG-CC-PVTZ-JKFIT
	 Reference Energy          =    -570.4574635394282041 [Eh]
	 Singles Energy            =      -0.0000000000000000 [Eh]
	 Same-Spin Energy          =      -0.6387875845345383 [Eh]
	 Opposite-Spin Energy      =      -1.9766769157665189 [Eh]
	 Correlation Energy        =      -2.6154645003010573 [Eh]
	 Total Energy              =    -573.0729280397292769 [Eh]

	 ================> DF-SCS-MP2 Energies <==================
	-----------------------------------------------------------
	 SCS Same-Spin Scale       =       0.3333333333333333 [-]
	 SCS Opposite-Spin Scale   =       1.2000000000000000 [-]
	 SCS Same-Spin Energy      =      -0.2129291948448461 [Eh]
	 SCS Opposite-Spin Energy  =      -2.3720122989198225 [Eh]
	 SCS Correlation Energy    =      -2.5849414937646684 [Eh]
	 SCS Total Energy          =    -573.0424050331928356 [Eh]
	-----------------------------------------------------------

  Dipole Moment: [D]
     X:    -0.7469      Y:    -0.5725      Z:    -0.4025     Total:     1.0235

*** Psi4 exiting successfully. Buy a developer a beer!
