                               Psi4 1.3.2 release

  ==> Input File <==

--------------------------------------------------------------------------
#psi4
#
memory 32 gb

molecule  {
0 1
  N        0.0678190     0.9536280     0.3022870
  N        2.3528311     0.9938517     0.2314997
  C       -1.1991060     0.3426720     0.1363540
  C        1.2435610     0.2442270     0.0818760
  C        0.1402100     2.4122570     0.3330790
  C       -1.5868590    -0.6993050     0.9921800
  C       -2.0897480     0.7954790    -0.8469150
  C        1.2497210    -1.1235430    -0.2722420
  C       -2.8402720    -1.2929990     0.8487880
  C       -3.3529590     0.2138150    -0.9676140
  C       -3.7300960    -0.8357430    -0.1274420
  C        2.4727450    -1.7522840    -0.4525030
  C        3.5488610     0.3171890     0.0404760
  C        3.6581100    -1.0291840    -0.2852360
  H        0.8914220     2.7227450     1.0594170
  H       -0.8398030     2.7868350     0.6320060
  H        0.4165240     2.8365740    -0.6404330
  H       -0.9028320    -1.0219250     1.7735780
  H       -1.7862700     1.5949720    -1.5186410
  H        0.3236690    -1.6661200    -0.4241870
  H       -3.1324200    -2.0992380     1.5176810
  H       -4.0389250     0.5738560    -1.7308950
  H       -4.7117870    -1.2913710    -0.2288330
  H        2.5003580    -2.8034100    -0.7313100
  H        4.4376410     0.9347650     0.1641390
  H        4.6312890    -1.4915970    -0.4182900
units angstrom
no_reorient  #important for SAPT in psi4, default
symmetry c1  #important for SAPT in psi4, default
}

set PROPERTIES_ORIGIN ["COM"]
properties('MP2/aug-cc-pvtz', properties = ['dipole'])
--------------------------------------------------------------------------

    Molecular point group: c1
  Charge       = 0
  Multiplicity = 1
  Basis Set: AUG-CC-PVTZ
    Blend: AUG-CC-PVTZ
  Basis Set: (AUG-CC-PVTZ AUX)
    Blend: AUG-CC-PVTZ-JKFIT

    Orbital Energies [Eh]
    ---------------------

    Doubly Occupied:

       1A    -15.577476     2A    -15.553223     3A    -11.316824
       4A    -11.279441     5A    -11.277231     6A    -11.257383
       7A    -11.248372     8A    -11.243355     9A    -11.243086
      10A    -11.238703    11A    -11.237835    12A    -11.237369
      13A    -11.229160    14A    -11.225305    15A     -1.293338
      16A     -1.212134    17A     -1.142884    18A     -1.080805
      19A     -1.026858    20A     -1.019720    21A     -1.004449
      22A     -0.926597    23A     -0.858416    24A     -0.844494
      25A     -0.832979    26A     -0.788936    27A     -0.729059
      28A     -0.693444    29A     -0.667710    30A     -0.657936
      31A     -0.647239    32A     -0.627741    33A     -0.614018
      34A     -0.601545    35A     -0.590692    36A     -0.583444
      37A     -0.568366    38A     -0.537725    39A     -0.532077
      40A     -0.526867    41A     -0.509618    42A     -0.504076
      43A     -0.500729    44A     -0.429357    45A     -0.420234
      46A     -0.375015    47A     -0.343935    48A     -0.338991
      49A     -0.289911

  @DF-RHF Final Energy:  -570.47973230627099

   => Energetics <=

    Nuclear Repulsion Energy =            819.2628859984864675
    One-Electron Energy =               -2398.5130337107020750
    Two-Electron Energy =                1008.7704154059445045
    Total Energy =                       -570.4797323062709893
  Basis Set: (AUG-CC-PVTZ AUX)
    Blend: AUG-CC-PVTZ-RI
    Molecular point group: c1

    Geometry (in Angstrom), charge = 0, multiplicity = 1:

       Center              X                  Y                   Z               Mass
    ------------   -----------------  -----------------  -----------------  -----------------
         N            0.057834633834     0.956527614833     0.298516072091    14.003074004430
         N            2.342846733834     0.996751314833     0.227728772091    14.003074004430
         C           -1.209090366166     0.345571614833     0.132583072091    12.000000000000
         C            1.233576633834     0.247126614833     0.078105072091    12.000000000000
         C            0.130225633834     2.415156614833     0.329308072091    12.000000000000
         C           -1.596843366166    -0.696405385167     0.988409072091    12.000000000000
         C           -2.099732366166     0.798378614833    -0.850685927909    12.000000000000
         C            1.239736633834    -1.120643385167    -0.276012927909    12.000000000000
         C           -2.850256366166    -1.290099385167     0.845017072091    12.000000000000
         C           -3.362943366166     0.216714614833    -0.971384927909    12.000000000000
         C           -3.740080366166    -0.832843385167    -0.131212927909    12.000000000000
         C            2.462760633834    -1.749384385167    -0.456273927909    12.000000000000
         C            3.538876633834     0.320088614833     0.036705072091    12.000000000000
         C            3.648125633834    -1.026284385167    -0.289006927909    12.000000000000
         H            0.881437633834     2.725644614833     1.055646072091     1.007825032230
         H           -0.849787366166     2.789734614833     0.628235072091     1.007825032230
         H            0.406539633834     2.839473614833    -0.644203927909     1.007825032230
         H           -0.912816366166    -1.019025385167     1.769807072091     1.007825032230
         H           -1.796254366166     1.597871614833    -1.522411927909     1.007825032230
         H            0.313684633834    -1.663220385167    -0.427957927909     1.007825032230
         H           -3.142404366166    -2.096338385167     1.513910072091     1.007825032230
         H           -4.048909366166     0.576755614833    -1.734665927909     1.007825032230
         H           -4.721771366166    -1.288471385167    -0.232603927909     1.007825032230
         H            2.490373633834    -2.800510385167    -0.735080927909     1.007825032230
         H            4.427656633834     0.937664614833     0.160368072091     1.007825032230
         H            4.621304633834    -1.488697385167    -0.422060927909     1.007825032230

  Basis Set: AUG-CC-PVTZ
    Blend: AUG-CC-PVTZ
  Basis Set: (AUG-CC-PVTZ AUX)
    Blend: AUG-CC-PVTZ-JKFIT
	 Reference Energy          =    -570.4797323062709893 [Eh]
	 Singles Energy            =      -0.0000000000000000 [Eh]
	 Same-Spin Energy          =      -0.6374299252384275 [Eh]
	 Opposite-Spin Energy      =      -1.9754191790730116 [Eh]
	 Correlation Energy        =      -2.6128491043114392 [Eh]
	 Total Energy              =    -573.0925814105823974 [Eh]

	 ================> DF-SCS-MP2 Energies <==================
	-----------------------------------------------------------
	 SCS Same-Spin Scale       =       0.3333333333333333 [-]
	 SCS Opposite-Spin Scale   =       1.2000000000000000 [-]
	 SCS Same-Spin Energy      =      -0.2124766417461425 [Eh]
	 SCS Opposite-Spin Energy  =      -2.3705030148876136 [Eh]
	 SCS Correlation Energy    =      -2.5829796566337562 [Eh]
	 SCS Total Energy          =    -573.0627119629047002 [Eh]
	-----------------------------------------------------------

  Dipole Moment: [D]
     X:    -1.1199      Y:    -1.0009      Z:    -0.4676     Total:     1.5731

*** Psi4 exiting successfully. Buy a developer a beer!
