                               Psi4 1.4a3.dev225

  ==> Input File <==

--------------------------------------------------------------------------
#psi4
#
memory 32 gb

molecule  {
0 1
  N        0.0678190     0.9536280     0.3022870
  N        2.3787710     0.9561460     0.2207080
  C       -1.1991060     0.3426720     0.1363540
  C        1.2858309     0.2187228     0.0739519
  C        0.1402100     2.4122570     0.3330790
  C       -1.5868590    -0.6993050     0.9921800
  C       -2.0897480     0.7954790    -0.8469150
  C        1.2497210    -1.1235430    -0.2722420
  C       -2.8402720    -1.2929990     0.8487880
  C       -3.3529590     0.2138150    -0.9676140
  C       -3.7300960    -0.8357430    -0.1274420
  C        2.4727450    -1.7522840    -0.4525030
  C        3.5488610     0.3171890     0.0404760
  C        3.6581100    -1.0291840    -0.2852360
  H        0.8914220     2.7227450     1.0594170
  H       -0.8398030     2.7868350     0.6320060
  H        0.4165240     2.8365740    -0.6404330
  H       -0.9028320    -1.0219250     1.7735780
  H       -1.7862700     1.5949720    -1.5186410
  H        0.3236690    -1.6661200    -0.4241870
  H       -3.1324200    -2.0992380     1.5176810
  H       -4.0389250     0.5738560    -1.7308950
  H       -4.7117870    -1.2913710    -0.2288330
  H        2.5003580    -2.8034100    -0.7313100
  H        4.4376410     0.9347650     0.1641390
  H        4.6312890    -1.4915970    -0.4182900
units angstrom
no_reorient  #important for SAPT in psi4, default
symmetry c1  #important for SAPT in psi4, default
}

set PROPERTIES_ORIGIN ["COM"]
properties('MP2/aug-cc-pvtz', properties = ['dipole'])
--------------------------------------------------------------------------

    Molecular point group: c1
  Charge       = 0
  Multiplicity = 1
  Basis Set: AUG-CC-PVTZ
    Blend: AUG-CC-PVTZ
  Basis Set: (AUG-CC-PVTZ AUX)
    Blend: AUG-CC-PVTZ-JKFIT

    Orbital Energies [Eh]
    ---------------------

    Doubly Occupied:

       1A    -15.571585     2A    -15.553347     3A    -11.315687
       4A    -11.276504     5A    -11.276001     6A    -11.258576
       7A    -11.245641     8A    -11.241251     9A    -11.241053
      10A    -11.235785    11A    -11.235409    12A    -11.234569
      13A    -11.228847    14A    -11.227680    15A     -1.290215
      16A     -1.221375    17A     -1.139638    18A     -1.086436
      19A     -1.030045    20A     -1.017941    21A     -1.002961
      22A     -0.919743    23A     -0.861675    24A     -0.845396
      25A     -0.830971    26A     -0.791052    27A     -0.727312
      28A     -0.693097    29A     -0.670355    30A     -0.656047
      31A     -0.643809    32A     -0.628683    33A     -0.615302
      34A     -0.601001    35A     -0.589455    36A     -0.581686
      37A     -0.569123    38A     -0.540191    39A     -0.537742
      40A     -0.526201    41A     -0.507718    42A     -0.501942
      43A     -0.498258    44A     -0.425342    45A     -0.420928
      46A     -0.381499    47A     -0.342515    48A     -0.338321
      49A     -0.291128

  @DF-RHF Final Energy:  -570.48144318311620

   => Energetics <=

    Nuclear Repulsion Energy =            819.6324871261434737
    One-Electron Energy =               -2399.2937890347170651
    Two-Electron Energy =                1009.1798587254572794
    Total Energy =                       -570.4814431831161983
  Basis Set: (AUG-CC-PVTZ AUX)
    Blend: AUG-CC-PVTZ-RI
    Molecular point group: c1

    Geometry (in Angstrom), charge = 0, multiplicity = 1:

       Center              X                  Y                   Z               Mass
    ------------   -----------------  -----------------  -----------------  -----------------
         N            0.053106350779     0.961058010750     0.299853421950    14.003074004430
         N            2.364058350779     0.963576010750     0.218274421950    14.003074004430
         C           -1.213818649221     0.350102010750     0.133920421950    12.000000000000
         C            1.271118250779     0.226152810750     0.071518321950    12.000000000000
         C            0.125497350779     2.419687010750     0.330645421950    12.000000000000
         C           -1.601571649221    -0.691874989250     0.989746421950    12.000000000000
         C           -2.104460649221     0.802909010750    -0.849348578050    12.000000000000
         C            1.235008350779    -1.116112989250    -0.274675578050    12.000000000000
         C           -2.854984649221    -1.285568989250     0.846354421950    12.000000000000
         C           -3.367671649221     0.221245010750    -0.970047578050    12.000000000000
         C           -3.744808649221    -0.828312989250    -0.129875578050    12.000000000000
         C            2.458032350779    -1.744853989250    -0.454936578050    12.000000000000
         C            3.534148350779     0.324619010750     0.038042421950    12.000000000000
         C            3.643397350779    -1.021753989250    -0.287669578050    12.000000000000
         H            0.876709350779     2.730175010750     1.056983421950     1.007825032230
         H           -0.854515649221     2.794265010750     0.629572421950     1.007825032230
         H            0.401811350779     2.844004010750    -0.642866578050     1.007825032230
         H           -0.917544649221    -1.014494989250     1.771144421950     1.007825032230
         H           -1.800982649221     1.602402010750    -1.521074578050     1.007825032230
         H            0.308956350779    -1.658689989250    -0.426620578050     1.007825032230
         H           -3.147132649221    -2.091807989250     1.515247421950     1.007825032230
         H           -4.053637649221     0.581286010750    -1.733328578050     1.007825032230
         H           -4.726499649221    -1.283940989250    -0.231266578050     1.007825032230
         H            2.485645350779    -2.795979989250    -0.733743578050     1.007825032230
         H            4.422928350779     0.942195010750     0.161705421950     1.007825032230
         H            4.616576350779    -1.484166989250    -0.420723578050     1.007825032230

  Basis Set: AUG-CC-PVTZ
    Blend: AUG-CC-PVTZ
  Basis Set: (AUG-CC-PVTZ AUX)
    Blend: AUG-CC-PVTZ-JKFIT
	 Reference Energy          =    -570.4814431831161983 [Eh]
	 Singles Energy            =      -0.0000000000000000 [Eh]
	 Same-Spin Energy          =      -0.6369916661221900 [Eh]
	 Opposite-Spin Energy      =      -1.9736899848077425 [Eh]
	 Correlation Energy        =      -2.6106816509299327 [Eh]
	 Total Energy              =    -573.0921248340461034 [Eh]

	 ================> DF-SCS-MP2 Energies <==================
	-----------------------------------------------------------
	 SCS Same-Spin Scale       =       0.3333333333333333 [-]
	 SCS Opposite-Spin Scale   =       1.2000000000000000 [-]
	 SCS Same-Spin Energy      =      -0.2123305553740633 [Eh]
	 SCS Opposite-Spin Energy  =      -2.3684279817692908 [Eh]
	 SCS Correlation Energy    =      -2.5807585371433541 [Eh]
	 SCS Total Energy          =    -573.0622017202595089 [Eh]
	-----------------------------------------------------------

  Dipole Moment: [D]
     X:    -0.6794      Y:    -1.0909      Z:    -0.5048     Total:     1.3807

*** Psi4 exiting successfully. Buy a developer a beer!
