                               Psi4 1.3.2 release

  ==> Input File <==

--------------------------------------------------------------------------
#psi4
#
memory 32 gb

molecule  {
0 1
  N        0.0678190     0.9536280     0.3022870
  N        2.3787710     0.9561460     0.2207080
  C       -1.1535571     0.2550413     0.1406792
  C        1.2435610     0.2442270     0.0818760
  C        0.1402100     2.4122570     0.3330790
  C       -1.5868590    -0.6993050     0.9921800
  C       -2.0897480     0.7954790    -0.8469150
  C        1.2497210    -1.1235430    -0.2722420
  C       -2.8402720    -1.2929990     0.8487880
  C       -3.3529590     0.2138150    -0.9676140
  C       -3.7300960    -0.8357430    -0.1274420
  C        2.4727450    -1.7522840    -0.4525030
  C        3.5488610     0.3171890     0.0404760
  C        3.6581100    -1.0291840    -0.2852360
  H        0.8914220     2.7227450     1.0594170
  H       -0.8398030     2.7868350     0.6320060
  H        0.4165240     2.8365740    -0.6404330
  H       -0.9028320    -1.0219250     1.7735780
  H       -1.7862700     1.5949720    -1.5186410
  H        0.3236690    -1.6661200    -0.4241870
  H       -3.1324200    -2.0992380     1.5176810
  H       -4.0389250     0.5738560    -1.7308950
  H       -4.7117870    -1.2913710    -0.2288330
  H        2.5003580    -2.8034100    -0.7313100
  H        4.4376410     0.9347650     0.1641390
  H        4.6312890    -1.4915970    -0.4182900
units angstrom
no_reorient  #important for SAPT in psi4, default
symmetry c1  #important for SAPT in psi4, default
}

set PROPERTIES_ORIGIN ["COM"]
properties('MP2/aug-cc-pvtz', properties = ['dipole'])
--------------------------------------------------------------------------

    Molecular point group: c1
  Charge       = 0
  Multiplicity = 1
  Basis Set: AUG-CC-PVTZ
    Blend: AUG-CC-PVTZ
  Basis Set: (AUG-CC-PVTZ AUX)
    Blend: AUG-CC-PVTZ-JKFIT

    Orbital Energies [Eh]
    ---------------------

    Doubly Occupied:

       1A    -15.579162     2A    -15.547948     3A    -11.315117
       4A    -11.280128     5A    -11.272019     6A    -11.254712
       7A    -11.252278     8A    -11.245232     9A    -11.243814
      10A    -11.242675    11A    -11.238772    12A    -11.232591
      13A    -11.226760    14A    -11.222200    15A     -1.294978
      16A     -1.219539    17A     -1.144000    18A     -1.078886
      19A     -1.027548    20A     -1.023785    21A     -1.002271
      22A     -0.928458    23A     -0.859278    24A     -0.841198
      25A     -0.834579    26A     -0.791189    27A     -0.727748
      28A     -0.694571    29A     -0.669855    30A     -0.657961
      31A     -0.646594    32A     -0.629287    33A     -0.615587
      34A     -0.598551    35A     -0.593873    36A     -0.584872
      37A     -0.569161    38A     -0.538984    39A     -0.535358
      40A     -0.528107    41A     -0.513000    42A     -0.505392
      43A     -0.496707    44A     -0.429072    45A     -0.413012
      46A     -0.376766    47A     -0.350359    48A     -0.332851
      49A     -0.288259

  @DF-RHF Final Energy:  -570.47567284991055

   => Energetics <=

    Nuclear Repulsion Energy =            820.0888260174111792
    One-Electron Energy =               -2400.1389105163771092
    Two-Electron Energy =                1009.5744116490554916
    Total Energy =                       -570.4756728499105520
  Basis Set: (AUG-CC-PVTZ AUX)
    Blend: AUG-CC-PVTZ-RI
    Molecular point group: c1

    Geometry (in Angstrom), charge = 0, multiplicity = 1:

       Center              X                  Y                   Z               Mass
    ------------   -----------------  -----------------  -----------------  -----------------
         N            0.052892619167     0.965107537116     0.299054988700    14.003074004430
         N            2.363844619167     0.967625537116     0.217475988700    14.003074004430
         C           -1.168483480833     0.266520837116     0.137447188700    12.000000000000
         C            1.228634619167     0.255706537116     0.078643988700    12.000000000000
         C            0.125283619167     2.423736537116     0.329846988700    12.000000000000
         C           -1.601785380833    -0.687825462884     0.988947988700    12.000000000000
         C           -2.104674380833     0.806958537116    -0.850147011300    12.000000000000
         C            1.234794619167    -1.112063462884    -0.275474011300    12.000000000000
         C           -2.855198380833    -1.281519462884     0.845555988700    12.000000000000
         C           -3.367885380833     0.225294537116    -0.970846011300    12.000000000000
         C           -3.745022380833    -0.824263462884    -0.130674011300    12.000000000000
         C            2.457818619167    -1.740804462884    -0.455735011300    12.000000000000
         C            3.533934619167     0.328668537116     0.037243988700    12.000000000000
         C            3.643183619167    -1.017704462884    -0.288468011300    12.000000000000
         H            0.876495619167     2.734224537116     1.056184988700     1.007825032230
         H           -0.854729380833     2.798314537116     0.628773988700     1.007825032230
         H            0.401597619167     2.848053537116    -0.643665011300     1.007825032230
         H           -0.917758380833    -1.010445462884     1.770345988700     1.007825032230
         H           -1.801196380833     1.606451537116    -1.521873011300     1.007825032230
         H            0.308742619167    -1.654640462884    -0.427419011300     1.007825032230
         H           -3.147346380833    -2.087758462884     1.514448988700     1.007825032230
         H           -4.053851380833     0.585335537116    -1.734127011300     1.007825032230
         H           -4.726713380833    -1.279891462884    -0.232065011300     1.007825032230
         H            2.485431619167    -2.791930462884    -0.734542011300     1.007825032230
         H            4.422714619167     0.946244537116     0.160906988700     1.007825032230
         H            4.616362619167    -1.480117462884    -0.421522011300     1.007825032230

  Basis Set: AUG-CC-PVTZ
    Blend: AUG-CC-PVTZ
  Basis Set: (AUG-CC-PVTZ AUX)
    Blend: AUG-CC-PVTZ-JKFIT
	 Reference Energy          =    -570.4756728499105520 [Eh]
	 Singles Energy            =      -0.0000000000000000 [Eh]
	 Same-Spin Energy          =      -0.6373083258114671 [Eh]
	 Opposite-Spin Energy      =      -1.9747551497203071 [Eh]
	 Correlation Energy        =      -2.6120634755317740 [Eh]
	 Total Energy              =    -573.0877363254422789 [Eh]

	 ================> DF-SCS-MP2 Energies <==================
	-----------------------------------------------------------
	 SCS Same-Spin Scale       =       0.3333333333333333 [-]
	 SCS Opposite-Spin Scale   =       1.2000000000000000 [-]
	 SCS Same-Spin Energy      =      -0.2124361086038224 [Eh]
	 SCS Opposite-Spin Energy  =      -2.3697061796643686 [Eh]
	 SCS Correlation Energy    =      -2.5821422882681908 [Eh]
	 SCS Total Energy          =    -573.0578151381787393 [Eh]
	-----------------------------------------------------------

  Dipole Moment: [D]
     X:    -1.2284      Y:    -0.8534      Z:    -0.4057     Total:     1.5498

*** Psi4 exiting successfully. Buy a developer a beer!
