                               Psi4 1.4a3.dev225

  ==> Input File <==

--------------------------------------------------------------------------
#psi4
#
memory 32 gb

molecule  {
0 1
  N        0.0678190     0.9536280     0.3022870
  N        2.3787710     0.9561460     0.2207080
  C       -1.1991060     0.3426720     0.1363540
  C        1.2435610     0.2442270     0.0818760
  C        0.1402100     2.4122570     0.3330790
  C       -1.5868590    -0.6993050     0.9921800
  C       -2.0897480     0.7954790    -0.8469150
  C        1.2497210    -1.1235430    -0.2722420
  C       -2.8402720    -1.2929990     0.8487880
  C       -3.3529590     0.2138150    -0.9676140
  C       -3.7300960    -0.8357430    -0.1274420
  C        2.4727450    -1.7522840    -0.4525030
  C        3.5053733     0.3409366     0.0471745
  C        3.6581100    -1.0291840    -0.2852360
  H        0.8914220     2.7227450     1.0594170
  H       -0.8398030     2.7868350     0.6320060
  H        0.4165240     2.8365740    -0.6404330
  H       -0.9028320    -1.0219250     1.7735780
  H       -1.7862700     1.5949720    -1.5186410
  H        0.3236690    -1.6661200    -0.4241870
  H       -3.1324200    -2.0992380     1.5176810
  H       -4.0389250     0.5738560    -1.7308950
  H       -4.7117870    -1.2913710    -0.2288330
  H        2.5003580    -2.8034100    -0.7313100
  H        4.4376410     0.9347650     0.1641390
  H        4.6312890    -1.4915970    -0.4182900
units angstrom
no_reorient  #important for SAPT in psi4, default
symmetry c1  #important for SAPT in psi4, default
}

set PROPERTIES_ORIGIN ["COM"]
properties('MP2/aug-cc-pvtz', properties = ['dipole'])
--------------------------------------------------------------------------

    Molecular point group: c1
  Charge       = 0
  Multiplicity = 1
  Basis Set: AUG-CC-PVTZ
    Blend: AUG-CC-PVTZ
  Basis Set: (AUG-CC-PVTZ AUX)
    Blend: AUG-CC-PVTZ-JKFIT

    Orbital Energies [Eh]
    ---------------------

    Doubly Occupied:

       1A    -15.579907     2A    -15.548694     3A    -11.318345
       4A    -11.280478     5A    -11.273906     6A    -11.253421
       7A    -11.250655     8A    -11.243835     9A    -11.243468
      10A    -11.239564    11A    -11.238430    12A    -11.238015
      13A    -11.225114    14A    -11.223321    15A     -1.300265
      16A     -1.230901    17A     -1.144607    18A     -1.080714
      19A     -1.027398    20A     -1.020789    21A     -1.003377
      22A     -0.925562    23A     -0.864085    24A     -0.840291
      25A     -0.832724    26A     -0.793936    27A     -0.730118
      28A     -0.693480    29A     -0.671810    30A     -0.657575
      31A     -0.648466    32A     -0.630439    33A     -0.611429
      34A     -0.603504    35A     -0.591026    36A     -0.582986
      37A     -0.569098    38A     -0.540661    39A     -0.538942
      40A     -0.529275    41A     -0.512141    42A     -0.505910
      43A     -0.501221    44A     -0.429660    45A     -0.411110
      46A     -0.383991    47A     -0.343959    48A     -0.338582
      49A     -0.285076

  @DF-RHF Final Energy:  -570.48242937352336

   => Energetics <=

    Nuclear Repulsion Energy =            820.5717314167666245
    One-Electron Energy =               -2401.0437957998055936
    Two-Electron Energy =                1009.9896350095156095
    Total Energy =                       -570.4824293735233596
  Basis Set: (AUG-CC-PVTZ AUX)
    Blend: AUG-CC-PVTZ-RI
    Molecular point group: c1

    Geometry (in Angstrom), charge = 0, multiplicity = 1:

       Center              X                  Y                   Z               Mass
    ------------   -----------------  -----------------  -----------------  -----------------
         N            0.058696198304     0.957847682425     0.298900292380    14.003074004430
         N            2.369648198304     0.960365682425     0.217321292380    14.003074004430
         C           -1.208228801696     0.346891682425     0.132967292380    12.000000000000
         C            1.234438198304     0.248446682425     0.078489292380    12.000000000000
         C            0.131087198304     2.416476682425     0.329692292380    12.000000000000
         C           -1.595981801696    -0.695085317575     0.988793292380    12.000000000000
         C           -2.098870801696     0.799698682425    -0.850301707620    12.000000000000
         C            1.240598198304    -1.119323317575    -0.275628707620    12.000000000000
         C           -2.849394801696    -1.288779317575     0.845401292380    12.000000000000
         C           -3.362081801696     0.218034682425    -0.971000707620    12.000000000000
         C           -3.739218801696    -0.831523317575    -0.130828707620    12.000000000000
         C            2.463622198304    -1.748064317575    -0.455889707620    12.000000000000
         C            3.496250498304     0.345156282425     0.043787792380    12.000000000000
         C            3.648987198304    -1.024964317575    -0.288622707620    12.000000000000
         H            0.882299198304     2.726964682425     1.056030292380     1.007825032230
         H           -0.848925801696     2.791054682425     0.628619292380     1.007825032230
         H            0.407401198304     2.840793682425    -0.643819707620     1.007825032230
         H           -0.911954801696    -1.017705317575     1.770191292380     1.007825032230
         H           -1.795392801696     1.599191682425    -1.522027707620     1.007825032230
         H            0.314546198304    -1.661900317575    -0.427573707620     1.007825032230
         H           -3.141542801696    -2.095018317575     1.514294292380     1.007825032230
         H           -4.048047801696     0.578075682425    -1.734281707620     1.007825032230
         H           -4.720909801696    -1.287151317575    -0.232219707620     1.007825032230
         H            2.491235198304    -2.799190317575    -0.734696707620     1.007825032230
         H            4.428518198304     0.938984682425     0.160752292380     1.007825032230
         H            4.622166198304    -1.487377317575    -0.421676707620     1.007825032230

  Basis Set: AUG-CC-PVTZ
    Blend: AUG-CC-PVTZ
  Basis Set: (AUG-CC-PVTZ AUX)
    Blend: AUG-CC-PVTZ-JKFIT
	 Reference Energy          =    -570.4824293735233596 [Eh]
	 Singles Energy            =      -0.0000000000000000 [Eh]
	 Same-Spin Energy          =      -0.6368891951452094 [Eh]
	 Opposite-Spin Energy      =      -1.9731133388220585 [Eh]
	 Correlation Energy        =      -2.6100025339672679 [Eh]
	 Total Energy              =    -573.0924319074906634 [Eh]

	 ================> DF-SCS-MP2 Energies <==================
	-----------------------------------------------------------
	 SCS Same-Spin Scale       =       0.3333333333333333 [-]
	 SCS Opposite-Spin Scale   =       1.2000000000000000 [-]
	 SCS Same-Spin Energy      =      -0.2122963983817364 [Eh]
	 SCS Opposite-Spin Energy  =      -2.3677360065864703 [Eh]
	 SCS Correlation Energy    =      -2.5800324049682066 [Eh]
	 SCS Total Energy          =    -573.0624617784915245 [Eh]
	-----------------------------------------------------------

  Dipole Moment: [D]
     X:    -1.2578      Y:    -0.8271      Z:    -0.4166     Total:     1.5619

*** Psi4 exiting successfully. Buy a developer a beer!
