                               Psi4 1.3.2 release

  ==> Input File <==

--------------------------------------------------------------------------
#psi4
#
memory 32 gb

molecule  {
0 1
  N        0.0678190     0.9536280     0.3022870
  N        2.3787710     0.9561460     0.2207080
  C       -1.1991060     0.3426720     0.1363540
  C        1.2435610     0.2442270     0.0818760
  C        0.1402100     2.4122570     0.3330790
  C       -1.5868590    -0.6993050     0.9921800
  C       -2.0897480     0.7954790    -0.8469150
  C        1.2497210    -1.1235430    -0.2722420
  C       -2.8402720    -1.2929990     0.8487880
  C       -3.3529590     0.2138150    -0.9676140
  C       -3.7300960    -0.8357430    -0.1274420
  C        2.4727450    -1.7522840    -0.4525030
  C        3.5488610     0.3171890     0.0404760
  C        3.6581100    -1.0291840    -0.2852360
  H        0.8914220     2.7227450     1.0594170
  H       -0.8398030     2.7868350     0.6320060
  H        0.4165240     2.8365740    -0.6404330
  H       -0.9028320    -1.0219250     1.7735780
  H       -1.7862700     1.5949720    -1.5186410
  H        0.3236690    -1.6661200    -0.4241870
  H       -3.1324200    -2.0992380     1.5176810
  H       -4.0389250     0.5738560    -1.7308950
  H       -4.7117870    -1.2913710    -0.2288330
  H        2.5003580    -2.8034100    -0.7313100
  H        4.4376410     0.9347650     0.1641390
  H        4.6312890    -1.4915970    -0.4182900
units angstrom
no_reorient  #important for SAPT in psi4, default
symmetry c1  #important for SAPT in psi4, default
}

set PROPERTIES_ORIGIN ["COM"]
properties('MP2/aug-cc-pvtz', properties = ['dipole'])
--------------------------------------------------------------------------

    Molecular point group: c1
  Charge       = 0
  Multiplicity = 1
  Basis Set: AUG-CC-PVTZ
    Blend: AUG-CC-PVTZ
  Basis Set: (AUG-CC-PVTZ AUX)
    Blend: AUG-CC-PVTZ-JKFIT

    Orbital Energies [Eh]
    ---------------------

    Doubly Occupied:

       1A    -15.579071     2A    -15.548949     3A    -11.317166
       4A    -11.280269     5A    -11.272554     6A    -11.255064
       7A    -11.249667     8A    -11.243744     9A    -11.243419
      10A    -11.239320    11A    -11.238291    12A    -11.237866
      13A    -11.227485    14A    -11.222777    15A     -1.294762
      16A     -1.220366    17A     -1.143962    18A     -1.079161
      19A     -1.028506    20A     -1.020535    21A     -1.004836
      22A     -0.926821    23A     -0.860332    24A     -0.843266
      25A     -0.833228    26A     -0.792018    27A     -0.730338
      28A     -0.693461    29A     -0.669345    30A     -0.657994
      31A     -0.647917    32A     -0.629232    33A     -0.614873
      34A     -0.602679    35A     -0.591134    36A     -0.584053
      37A     -0.568478    38A     -0.538931    39A     -0.535372
      40A     -0.528055    41A     -0.511293    42A     -0.505128
      43A     -0.501116    44A     -0.429802    45A     -0.413555
      46A     -0.377338    47A     -0.344121    48A     -0.339343
      49A     -0.288492

  @DF-RHF Final Energy:  -570.48418530341200

   => Energetics <=

    Nuclear Repulsion Energy =            819.7694991456852449
    One-Electron Energy =               -2399.4963938856076311
    Two-Electron Energy =                1009.2427094365104949
    Total Energy =                       -570.4841853034120049
  Basis Set: (AUG-CC-PVTZ AUX)
    Blend: AUG-CC-PVTZ-RI
    Molecular point group: c1

    Geometry (in Angstrom), charge = 0, multiplicity = 1:

       Center              X                  Y                   Z               Mass
    ------------   -----------------  -----------------  -----------------  -----------------
         N            0.055861585253     0.959395597281     0.299336913667    14.003074004430
         N            2.366813585253     0.961913597281     0.217757913667    14.003074004430
         C           -1.211063414747     0.348439597281     0.133403913667    12.000000000000
         C            1.231603585253     0.249994597281     0.078925913667    12.000000000000
         C            0.128252585253     2.418024597281     0.330128913667    12.000000000000
         C           -1.598816414747    -0.693537402719     0.989229913667    12.000000000000
         C           -2.101705414747     0.801246597281    -0.849865086333    12.000000000000
         C            1.237763585253    -1.117775402719    -0.275192086333    12.000000000000
         C           -2.852229414747    -1.287231402719     0.845837913667    12.000000000000
         C           -3.364916414747     0.219582597281    -0.970564086333    12.000000000000
         C           -3.742053414747    -0.829975402719    -0.130392086333    12.000000000000
         C            2.460787585253    -1.746516402719    -0.455453086333    12.000000000000
         C            3.536903585253     0.322956597281     0.037525913667    12.000000000000
         C            3.646152585253    -1.023416402719    -0.288186086333    12.000000000000
         H            0.879464585253     2.728512597281     1.056466913667     1.007825032230
         H           -0.851760414747     2.792602597281     0.629055913667     1.007825032230
         H            0.404566585253     2.842341597281    -0.643383086333     1.007825032230
         H           -0.914789414747    -1.016157402719     1.770627913667     1.007825032230
         H           -1.798227414747     1.600739597281    -1.521591086333     1.007825032230
         H            0.311711585253    -1.660352402719    -0.427137086333     1.007825032230
         H           -3.144377414747    -2.093470402719     1.514730913667     1.007825032230
         H           -4.050882414747     0.579623597281    -1.733845086333     1.007825032230
         H           -4.723744414747    -1.285603402719    -0.231783086333     1.007825032230
         H            2.488400585253    -2.797642402719    -0.734260086333     1.007825032230
         H            4.425683585253     0.940532597281     0.161188913667     1.007825032230
         H            4.619331585253    -1.485829402719    -0.421240086333     1.007825032230

  Basis Set: AUG-CC-PVTZ
    Blend: AUG-CC-PVTZ
  Basis Set: (AUG-CC-PVTZ AUX)
    Blend: AUG-CC-PVTZ-JKFIT
	 Reference Energy          =    -570.4841853034120049 [Eh]
	 Singles Energy            =      -0.0000000000000000 [Eh]
	 Same-Spin Energy          =      -0.6371101695638018 [Eh]
	 Opposite-Spin Energy      =      -1.9739351955704325 [Eh]
	 Correlation Energy        =      -2.6110453651342342 [Eh]
	 Total Energy              =    -573.0952306685462645 [Eh]

	 ================> DF-SCS-MP2 Energies <==================
	-----------------------------------------------------------
	 SCS Same-Spin Scale       =       0.3333333333333333 [-]
	 SCS Opposite-Spin Scale   =       1.2000000000000000 [-]
	 SCS Same-Spin Energy      =      -0.2123700565212673 [Eh]
	 SCS Opposite-Spin Energy  =      -2.3687222346845189 [Eh]
	 SCS Correlation Energy    =      -2.5810922912057861 [Eh]
	 SCS Total Energy          =    -573.0652775946177826 [Eh]
	-----------------------------------------------------------

  Dipole Moment: [D]
     X:    -1.1990      Y:    -0.8995      Z:    -0.4386     Total:     1.5618

*** Psi4 exiting successfully. Buy a developer a beer!
