                               Psi4 1.3.2 release

  ==> Input File <==

--------------------------------------------------------------------------
#psi4
#
memory 32 gb

molecule  {
0 1
  N        0.0678190     0.9536280     0.3022870
  N        2.3787710     0.9561460     0.2207080
  C       -1.1991060     0.3426720     0.1363540
  C        1.2899119     0.3293516     0.0765264
  C        0.1402100     2.4122570     0.3330790
  C       -1.5868590    -0.6993050     0.9921800
  C       -2.0897480     0.7954790    -0.8469150
  C        1.2497210    -1.1235430    -0.2722420
  C       -2.8402720    -1.2929990     0.8487880
  C       -3.3529590     0.2138150    -0.9676140
  C       -3.7300960    -0.8357430    -0.1274420
  C        2.4727450    -1.7522840    -0.4525030
  C        3.5488610     0.3171890     0.0404760
  C        3.6581100    -1.0291840    -0.2852360
  H        0.8914220     2.7227450     1.0594170
  H       -0.8398030     2.7868350     0.6320060
  H        0.4165240     2.8365740    -0.6404330
  H       -0.9028320    -1.0219250     1.7735780
  H       -1.7862700     1.5949720    -1.5186410
  H        0.3236690    -1.6661200    -0.4241870
  H       -3.1324200    -2.0992380     1.5176810
  H       -4.0389250     0.5738560    -1.7308950
  H       -4.7117870    -1.2913710    -0.2288330
  H        2.5003580    -2.8034100    -0.7313100
  H        4.4376410     0.9347650     0.1641390
  H        4.6312890    -1.4915970    -0.4182900
units angstrom
no_reorient  #important for SAPT in psi4, default
symmetry c1  #important for SAPT in psi4, default
}

set PROPERTIES_ORIGIN ["COM"]
properties('MP2/aug-cc-pvtz', properties = ['dipole'])
--------------------------------------------------------------------------

    Molecular point group: c1
  Charge       = 0
  Multiplicity = 1
  Basis Set: AUG-CC-PVTZ
    Blend: AUG-CC-PVTZ
  Basis Set: (AUG-CC-PVTZ AUX)
    Blend: AUG-CC-PVTZ-JKFIT

    Orbital Energies [Eh]
    ---------------------

    Doubly Occupied:

       1A    -15.577479     2A    -15.542625     3A    -11.317402
       4A    -11.282335     5A    -11.272506     6A    -11.250765
       7A    -11.247795     8A    -11.244260     9A    -11.243814
      10A    -11.240276    11A    -11.239038    12A    -11.238512
      13A    -11.234137    14A    -11.223761    15A     -1.304987
      16A     -1.231397    17A     -1.145011    18A     -1.080985
      19A     -1.024996    20A     -1.020800    21A     -1.002216
      22A     -0.925458    23A     -0.866468    24A     -0.840690
      25A     -0.831968    26A     -0.790894    27A     -0.732801
      28A     -0.693555    29A     -0.672416    30A     -0.661318
      31A     -0.649270    32A     -0.629739    33A     -0.612016
      34A     -0.604341    35A     -0.591087    36A     -0.581125
      37A     -0.568757    38A     -0.540718    39A     -0.536395
      40A     -0.527886    41A     -0.514132    42A     -0.506266
      43A     -0.501508    44A     -0.429091    45A     -0.408116
      46A     -0.382257    47A     -0.344317    48A     -0.336845
      49A     -0.288318

  @DF-RHF Final Energy:  -570.47593240580818

   => Energetics <=

    Nuclear Repulsion Energy =            819.7926010023998060
    One-Electron Energy =               -2399.4713671740523750
    Two-Electron Energy =                1009.2028337658443888
    Total Energy =                       -570.4759324058081802
  Basis Set: (AUG-CC-PVTZ AUX)
    Blend: AUG-CC-PVTZ-RI
    Molecular point group: c1

    Geometry (in Angstrom), charge = 0, multiplicity = 1:

       Center              X                  Y                   Z               Mass
    ------------   -----------------  -----------------  -----------------  -----------------
         N            0.052840343244     0.953847009930     0.299685611022    14.003074004430
         N            2.363792343244     0.956365009930     0.218106611022    14.003074004430
         C           -1.214084656756     0.342891009930     0.133752611022    12.000000000000
         C            1.274933243244     0.329570609930     0.073925011022    12.000000000000
         C            0.125231343244     2.412476009930     0.330477611022    12.000000000000
         C           -1.601837656756    -0.699085990070     0.989578611022    12.000000000000
         C           -2.104726656756     0.795698009930    -0.849516388978    12.000000000000
         C            1.234742343244    -1.123323990070    -0.274843388978    12.000000000000
         C           -2.855250656756    -1.292779990070     0.846186611022    12.000000000000
         C           -3.367937656756     0.214034009930    -0.970215388978    12.000000000000
         C           -3.745074656756    -0.835523990070    -0.130043388978    12.000000000000
         C            2.457766343244    -1.752064990070    -0.455104388978    12.000000000000
         C            3.533882343244     0.317408009930     0.037874611022    12.000000000000
         C            3.643131343244    -1.028964990070    -0.287837388978    12.000000000000
         H            0.876443343244     2.722964009930     1.056815611022     1.007825032230
         H           -0.854781656756     2.787054009930     0.629404611022     1.007825032230
         H            0.401545343244     2.836793009930    -0.643034388978     1.007825032230
         H           -0.917810656756    -1.021705990070     1.770976611022     1.007825032230
         H           -1.801248656756     1.595191009930    -1.521242388978     1.007825032230
         H            0.308690343244    -1.665900990070    -0.426788388978     1.007825032230
         H           -3.147398656756    -2.099018990070     1.515079611022     1.007825032230
         H           -4.053903656756     0.574075009930    -1.733496388978     1.007825032230
         H           -4.726765656756    -1.291151990070    -0.231434388978     1.007825032230
         H            2.485379343244    -2.803190990070    -0.733911388978     1.007825032230
         H            4.422662343244     0.934984009930     0.161537611022     1.007825032230
         H            4.616310343244    -1.491377990070    -0.420891388978     1.007825032230

  Basis Set: AUG-CC-PVTZ
    Blend: AUG-CC-PVTZ
  Basis Set: (AUG-CC-PVTZ AUX)
    Blend: AUG-CC-PVTZ-JKFIT
	 Reference Energy          =    -570.4759324058081802 [Eh]
	 Singles Energy            =      -0.0000000000000000 [Eh]
	 Same-Spin Energy          =      -0.6359584059342624 [Eh]
	 Opposite-Spin Energy      =      -1.9729075189067553 [Eh]
	 Correlation Energy        =      -2.6088659248410178 [Eh]
	 Total Energy              =    -573.0847983306491642 [Eh]

	 ================> DF-SCS-MP2 Energies <==================
	-----------------------------------------------------------
	 SCS Same-Spin Scale       =       0.3333333333333333 [-]
	 SCS Opposite-Spin Scale   =       1.2000000000000000 [-]
	 SCS Same-Spin Energy      =      -0.2119861353114208 [Eh]
	 SCS Opposite-Spin Energy  =      -2.3674890226881065 [Eh]
	 SCS Correlation Energy    =      -2.5794751579995272 [Eh]
	 SCS Total Energy          =    -573.0554075638077620 [Eh]
	-----------------------------------------------------------

  Dipole Moment: [D]
     X:    -1.2249      Y:    -0.8820      Z:    -0.4449     Total:     1.5736

*** Psi4 exiting successfully. Buy a developer a beer!
