                               Psi4 1.3.2 release

  ==> Input File <==

--------------------------------------------------------------------------
#psi4
#
memory 32 gb

molecule  {
0 1
  N        0.0678190     0.9536280     0.3022870
  N        2.3787710     0.9561460     0.2207080
  C       -1.1762453     0.3006771     0.1237961
  C        1.2435610     0.2442270     0.0818760
  C        0.1402100     2.4122570     0.3330790
  C       -1.5868590    -0.6993050     0.9921800
  C       -2.0897480     0.7954790    -0.8469150
  C        1.2497210    -1.1235430    -0.2722420
  C       -2.8402720    -1.2929990     0.8487880
  C       -3.3529590     0.2138150    -0.9676140
  C       -3.7300960    -0.8357430    -0.1274420
  C        2.4727450    -1.7522840    -0.4525030
  C        3.5488610     0.3171890     0.0404760
  C        3.6581100    -1.0291840    -0.2852360
  H        0.8914220     2.7227450     1.0594170
  H       -0.8398030     2.7868350     0.6320060
  H        0.4165240     2.8365740    -0.6404330
  H       -0.9028320    -1.0219250     1.7735780
  H       -1.7862700     1.5949720    -1.5186410
  H        0.3236690    -1.6661200    -0.4241870
  H       -3.1324200    -2.0992380     1.5176810
  H       -4.0389250     0.5738560    -1.7308950
  H       -4.7117870    -1.2913710    -0.2288330
  H        2.5003580    -2.8034100    -0.7313100
  H        4.4376410     0.9347650     0.1641390
  H        4.6312890    -1.4915970    -0.4182900
units angstrom
no_reorient  #important for SAPT in psi4, default
symmetry c1  #important for SAPT in psi4, default
}

set PROPERTIES_ORIGIN ["COM"]
properties('MP2/aug-cc-pvtz', properties = ['dipole'])
--------------------------------------------------------------------------

    Molecular point group: c1
  Charge       = 0
  Multiplicity = 1
  Basis Set: AUG-CC-PVTZ
    Blend: AUG-CC-PVTZ
  Basis Set: (AUG-CC-PVTZ AUX)
    Blend: AUG-CC-PVTZ-JKFIT

    Orbital Energies [Eh]
    ---------------------

    Doubly Occupied:

       1A    -15.579194     2A    -15.548521     3A    -11.316141
       4A    -11.280244     5A    -11.272323     6A    -11.254929
       7A    -11.250879     8A    -11.243568     9A    -11.243443
      10A    -11.241200    11A    -11.238387    12A    -11.236325
      13A    -11.227169    14A    -11.222551    15A     -1.294946
      16A     -1.219994    17A     -1.143788    18A     -1.079055
      19A     -1.026706    20A     -1.022348    21A     -1.004353
      22A     -0.927662    23A     -0.859814    24A     -0.842459
      25A     -0.833340    26A     -0.791901    27A     -0.729048
      28A     -0.693824    29A     -0.669633    30A     -0.657682
      31A     -0.647429    32A     -0.629367    33A     -0.615164
      34A     -0.601128    35A     -0.592377    36A     -0.584362
      37A     -0.568862    38A     -0.538934    39A     -0.535404
      40A     -0.528080    41A     -0.510894    42A     -0.504950
      43A     -0.500966    44A     -0.429760    45A     -0.413343
      46A     -0.377103    47A     -0.345752    48A     -0.337227
      49A     -0.288482

  @DF-RHF Final Energy:  -570.48250444648147

   => Energetics <=

    Nuclear Repulsion Energy =            819.9385359473133121
    One-Electron Energy =               -2399.8400577297402378
    Two-Electron Energy =                1009.4190173359454548
    Total Energy =                       -570.4825044464814709
  Basis Set: (AUG-CC-PVTZ AUX)
    Blend: AUG-CC-PVTZ-RI
    Molecular point group: c1

    Geometry (in Angstrom), charge = 0, multiplicity = 1:

       Center              X                  Y                   Z               Mass
    ------------   -----------------  -----------------  -----------------  -----------------
         N            0.054371480267     0.962132906719     0.300155462066    14.003074004430
         N            2.365323480267     0.964650906719     0.218576462066    14.003074004430
         C           -1.189692819733     0.309182006719     0.121664562066    12.000000000000
         C            1.230113480267     0.252731906719     0.079744462066    12.000000000000
         C            0.126762480267     2.420761906719     0.330947462066    12.000000000000
         C           -1.600306519733    -0.690800093281     0.990048462066    12.000000000000
         C           -2.103195519733     0.803983906719    -0.849046537934    12.000000000000
         C            1.236273480267    -1.115038093281    -0.274373537934    12.000000000000
         C           -2.853719519733    -1.284494093281     0.846656462066    12.000000000000
         C           -3.366406519733     0.222319906719    -0.969745537934    12.000000000000
         C           -3.743543519733    -0.827238093281    -0.129573537934    12.000000000000
         C            2.459297480267    -1.743779093281    -0.454634537934    12.000000000000
         C            3.535413480267     0.325693906719     0.038344462066    12.000000000000
         C            3.644662480267    -1.020679093281    -0.287367537934    12.000000000000
         H            0.877974480267     2.731249906719     1.057285462066     1.007825032230
         H           -0.853250519733     2.795339906719     0.629874462066     1.007825032230
         H            0.403076480267     2.845078906719    -0.642564537934     1.007825032230
         H           -0.916279519733    -1.013420093281     1.771446462066     1.007825032230
         H           -1.799717519733     1.603476906719    -1.520772537934     1.007825032230
         H            0.310221480267    -1.657615093281    -0.426318537934     1.007825032230
         H           -3.145867519733    -2.090733093281     1.515549462066     1.007825032230
         H           -4.052372519733     0.582360906719    -1.733026537934     1.007825032230
         H           -4.725234519733    -1.282866093281    -0.230964537934     1.007825032230
         H            2.486910480267    -2.794905093281    -0.733441537934     1.007825032230
         H            4.424193480267     0.943269906719     0.162007462066     1.007825032230
         H            4.617841480267    -1.483092093281    -0.420421537934     1.007825032230

  Basis Set: AUG-CC-PVTZ
    Blend: AUG-CC-PVTZ
  Basis Set: (AUG-CC-PVTZ AUX)
    Blend: AUG-CC-PVTZ-JKFIT
	 Reference Energy          =    -570.4825044464814709 [Eh]
	 Singles Energy            =      -0.0000000000000000 [Eh]
	 Same-Spin Energy          =      -0.6372414654279503 [Eh]
	 Opposite-Spin Energy      =      -1.9742105831468286 [Eh]
	 Correlation Energy        =      -2.6114520485747788 [Eh]
	 Total Energy              =    -573.0939564950562044 [Eh]

	 ================> DF-SCS-MP2 Energies <==================
	-----------------------------------------------------------
	 SCS Same-Spin Scale       =       0.3333333333333333 [-]
	 SCS Opposite-Spin Scale   =       1.2000000000000000 [-]
	 SCS Same-Spin Energy      =      -0.2124138218093168 [Eh]
	 SCS Opposite-Spin Energy  =      -2.3690526997761943 [Eh]
	 SCS Correlation Energy    =      -2.5814665215855110 [Eh]
	 SCS Total Energy          =    -573.0639709680669966 [Eh]
	-----------------------------------------------------------

  Dipole Moment: [D]
     X:    -1.2078      Y:    -0.8755      Z:    -0.4276     Total:     1.5518

*** Psi4 exiting successfully. Buy a developer a beer!
