                               Psi4 1.3.2 release

  ==> Input File <==

--------------------------------------------------------------------------
#psi4
#
memory 32 gb

molecule  {
0 1
  N        0.0678190     0.9536280     0.3022870
  N        2.3787710     0.9561460     0.2207080
  C       -1.1991060     0.3426720     0.1363540
  C        1.4120964     0.3499199     0.1024873
  C        0.1402100     2.4122570     0.3330790
  C       -1.5868590    -0.6993050     0.9921800
  C       -2.0897480     0.7954790    -0.8469150
  C        1.2497210    -1.1235430    -0.2722420
  C       -2.8402720    -1.2929990     0.8487880
  C       -3.3529590     0.2138150    -0.9676140
  C       -3.7300960    -0.8357430    -0.1274420
  C        2.4727450    -1.7522840    -0.4525030
  C        3.5488610     0.3171890     0.0404760
  C        3.6581100    -1.0291840    -0.2852360
  H        0.8914220     2.7227450     1.0594170
  H       -0.8398030     2.7868350     0.6320060
  H        0.4165240     2.8365740    -0.6404330
  H       -0.9028320    -1.0219250     1.7735780
  H       -1.7862700     1.5949720    -1.5186410
  H        0.3236690    -1.6661200    -0.4241870
  H       -3.1324200    -2.0992380     1.5176810
  H       -4.0389250     0.5738560    -1.7308950
  H       -4.7117870    -1.2913710    -0.2288330
  H        2.5003580    -2.8034100    -0.7313100
  H        4.4376410     0.9347650     0.1641390
  H        4.6312890    -1.4915970    -0.4182900
units angstrom
no_reorient  #important for SAPT in psi4, default
symmetry c1  #important for SAPT in psi4, default
}

set PROPERTIES_ORIGIN ["COM"]
properties('MP2/aug-cc-pvtz', properties = ['dipole'])
--------------------------------------------------------------------------

    Molecular point group: c1
  Charge       = 0
  Multiplicity = 1
  Basis Set: AUG-CC-PVTZ
    Blend: AUG-CC-PVTZ
  Basis Set: (AUG-CC-PVTZ AUX)
    Blend: AUG-CC-PVTZ-JKFIT

    Orbital Energies [Eh]
    ---------------------

    Doubly Occupied:

       1A    -15.560512     2A    -15.544084     3A    -11.312903
       4A    -11.279595     5A    -11.276694     6A    -11.252711
       7A    -11.243382     8A    -11.239574     9A    -11.239276
      10A    -11.239233    11A    -11.235332    12A    -11.233676
      13A    -11.233375    14A    -11.232095    15A     -1.338406
      16A     -1.226047    17A     -1.136819    18A     -1.095917
      19A     -1.021075    20A     -1.015742    21A     -0.998970
      22A     -0.911270    23A     -0.878624    24A     -0.836763
      25A     -0.826696    26A     -0.787363    27A     -0.730208
      28A     -0.697829    29A     -0.675987    30A     -0.658207
      31A     -0.642277    32A     -0.627792    33A     -0.610022
      34A     -0.603923    35A     -0.586899    36A     -0.582296
      37A     -0.572563    38A     -0.554685    39A     -0.542114
      40A     -0.518404    41A     -0.508961    42A     -0.500539
      43A     -0.496283    44A     -0.422490    45A     -0.413137
      46A     -0.391858    47A     -0.340017    48A     -0.331948
      49A     -0.291355

  @DF-RHF Final Energy:  -570.42833256962115

   => Energetics <=

    Nuclear Repulsion Energy =            819.8318294408885549
    One-Electron Energy =               -2399.5284649016052754
    Two-Electron Energy =                1009.2683028910954590
    Total Energy =                       -570.4283325696211477
  Basis Set: (AUG-CC-PVTZ AUX)
    Blend: AUG-CC-PVTZ-RI
    Molecular point group: c1

    Geometry (in Angstrom), charge = 0, multiplicity = 1:

       Center              X                  Y                   Z               Mass
    ------------   -----------------  -----------------  -----------------  -----------------
         N            0.044876119373     0.952506328044     0.297993428957    14.003074004430
         N            2.355828119373     0.955024328044     0.216414428957    14.003074004430
         C           -1.222048880627     0.341550328044     0.132060428957    12.000000000000
         C            1.389153519373     0.348798228044     0.098193728957    12.000000000000
         C            0.117267119373     2.411135328044     0.328785428957    12.000000000000
         C           -1.609801880627    -0.700426671956     0.987886428957    12.000000000000
         C           -2.112690880627     0.794357328044    -0.851208571043    12.000000000000
         C            1.226778119373    -1.124664671956    -0.276535571043    12.000000000000
         C           -2.863214880627    -1.294120671956     0.844494428957    12.000000000000
         C           -3.375901880627     0.212693328044    -0.971907571043    12.000000000000
         C           -3.753038880627    -0.836864671956    -0.131735571043    12.000000000000
         C            2.449802119373    -1.753405671956    -0.456796571043    12.000000000000
         C            3.525918119373     0.316067328044     0.036182428957    12.000000000000
         C            3.635167119373    -1.030305671956    -0.289529571043    12.000000000000
         H            0.868479119373     2.721623328044     1.055123428957     1.007825032230
         H           -0.862745880627     2.785713328044     0.627712428957     1.007825032230
         H            0.393581119373     2.835452328044    -0.644726571043     1.007825032230
         H           -0.925774880627    -1.023046671956     1.769284428957     1.007825032230
         H           -1.809212880627     1.593850328044    -1.522934571043     1.007825032230
         H            0.300726119373    -1.667241671956    -0.428480571043     1.007825032230
         H           -3.155362880627    -2.100359671956     1.513387428957     1.007825032230
         H           -4.061867880627     0.572734328044    -1.735188571043     1.007825032230
         H           -4.734729880627    -1.292492671956    -0.233126571043     1.007825032230
         H            2.477415119373    -2.804531671956    -0.735603571043     1.007825032230
         H            4.414698119373     0.933643328044     0.159845428957     1.007825032230
         H            4.608346119373    -1.492718671956    -0.422583571043     1.007825032230

  Basis Set: AUG-CC-PVTZ
    Blend: AUG-CC-PVTZ
  Basis Set: (AUG-CC-PVTZ AUX)
    Blend: AUG-CC-PVTZ-JKFIT
	 Reference Energy          =    -570.4283325696211477 [Eh]
	 Singles Energy            =      -0.0000000000000000 [Eh]
	 Same-Spin Energy          =      -0.6345854078010918 [Eh]
	 Opposite-Spin Energy      =      -1.9724369965742961 [Eh]
	 Correlation Energy        =      -2.6070224043753880 [Eh]
	 Total Energy              =    -573.0353549739965047 [Eh]

	 ================> DF-SCS-MP2 Energies <==================
	-----------------------------------------------------------
	 SCS Same-Spin Scale       =       0.3333333333333333 [-]
	 SCS Opposite-Spin Scale   =       1.2000000000000000 [-]
	 SCS Same-Spin Energy      =      -0.2115284692670306 [Eh]
	 SCS Opposite-Spin Energy  =      -2.3669243958891553 [Eh]
	 SCS Correlation Energy    =      -2.5784528651561858 [Eh]
	 SCS Total Energy          =    -573.0067854347773846 [Eh]
	-----------------------------------------------------------

  Dipole Moment: [D]
     X:    -0.1113      Y:    -1.1323      Z:    -0.5240     Total:     1.2526

*** Psi4 exiting successfully. Buy a developer a beer!
