                               Psi4 1.3.2 release

  ==> Input File <==

--------------------------------------------------------------------------
#psi4
#
memory 32 gb

molecule  {
0 1
  N        0.0678190     0.9536280     0.3022870
  N        2.3787710     0.9561460     0.2207080
  C       -1.2195785     0.3876308     0.1344934
  C        1.2435610     0.2442270     0.0818760
  C        0.1402100     2.4122570     0.3330790
  C       -1.5868590    -0.6993050     0.9921800
  C       -2.0897480     0.7954790    -0.8469150
  C        1.2497210    -1.1235430    -0.2722420
  C       -2.8402720    -1.2929990     0.8487880
  C       -3.3529590     0.2138150    -0.9676140
  C       -3.7300960    -0.8357430    -0.1274420
  C        2.4727450    -1.7522840    -0.4525030
  C        3.5488610     0.3171890     0.0404760
  C        3.6581100    -1.0291840    -0.2852360
  H        0.8914220     2.7227450     1.0594170
  H       -0.8398030     2.7868350     0.6320060
  H        0.4165240     2.8365740    -0.6404330
  H       -0.9028320    -1.0219250     1.7735780
  H       -1.7862700     1.5949720    -1.5186410
  H        0.3236690    -1.6661200    -0.4241870
  H       -3.1324200    -2.0992380     1.5176810
  H       -4.0389250     0.5738560    -1.7308950
  H       -4.7117870    -1.2913710    -0.2288330
  H        2.5003580    -2.8034100    -0.7313100
  H        4.4376410     0.9347650     0.1641390
  H        4.6312890    -1.4915970    -0.4182900
units angstrom
no_reorient  #important for SAPT in psi4, default
symmetry c1  #important for SAPT in psi4, default
}

set PROPERTIES_ORIGIN ["COM"]
properties('MP2/aug-cc-pvtz', properties = ['dipole'])
--------------------------------------------------------------------------

    Molecular point group: c1
  Charge       = 0
  Multiplicity = 1
  Basis Set: AUG-CC-PVTZ
    Blend: AUG-CC-PVTZ
  Basis Set: (AUG-CC-PVTZ AUX)
    Blend: AUG-CC-PVTZ-JKFIT

    Orbital Energies [Eh]
    ---------------------

    Doubly Occupied:

       1A    -15.578970     2A    -15.549419     3A    -11.318207
       4A    -11.280382     5A    -11.272820     6A    -11.255241
       7A    -11.248435     8A    -11.243963     9A    -11.243146
      10A    -11.240584    11A    -11.238400    12A    -11.236542
      13A    -11.227819    14A    -11.223047    15A     -1.294689
      16A     -1.220784    17A     -1.144044    18A     -1.079313
      19A     -1.031187    20A     -1.017980    21A     -1.005057
      22A     -0.926106    23A     -0.860899    24A     -0.844231
      25A     -0.832799    26A     -0.791622    27A     -0.731530
      28A     -0.693181    29A     -0.669370    30A     -0.658270
      31A     -0.648076    32A     -0.629102    33A     -0.614572
      34A     -0.605015    35A     -0.589194    36A     -0.583557
      37A     -0.567808    38A     -0.538970    39A     -0.535387
      40A     -0.528257    41A     -0.512170    42A     -0.506287
      43A     -0.498103    44A     -0.429779    45A     -0.413824
      46A     -0.377654    47A     -0.344354    48A     -0.339424
      49A     -0.288597

  @DF-RHF Final Energy:  -570.48220298242154

   => Energetics <=

    Nuclear Repulsion Energy =            819.5842285204931841
    One-Electron Energy =               -2399.1165272087596350
    Two-Electron Energy =                1009.0500957058450240
    Total Energy =                       -570.4822029824215406
  Basis Set: (AUG-CC-PVTZ AUX)
    Blend: AUG-CC-PVTZ-RI
    Molecular point group: c1

    Geometry (in Angstrom), charge = 0, multiplicity = 1:

       Center              X                  Y                   Z               Mass
    ------------   -----------------  -----------------  -----------------  -----------------
         N            0.057196022707     0.956465095064     0.299458191201    14.003074004430
         N            2.368148022707     0.958983095064     0.217879191201    14.003074004430
         C           -1.230201477293     0.390467895064     0.131664591201    12.000000000000
         C            1.232938022707     0.247064095064     0.079047191201    12.000000000000
         C            0.129587022707     2.415094095064     0.330250191201    12.000000000000
         C           -1.597481977293    -0.696467904936     0.989351191201    12.000000000000
         C           -2.100370977293     0.798316095064    -0.849743808799    12.000000000000
         C            1.239098022707    -1.120705904936    -0.275070808799    12.000000000000
         C           -2.850894977293    -1.290161904936     0.845959191201    12.000000000000
         C           -3.363581977293     0.216652095064    -0.970442808799    12.000000000000
         C           -3.740718977293    -0.832905904936    -0.130270808799    12.000000000000
         C            2.462122022707    -1.749446904936    -0.455331808799    12.000000000000
         C            3.538238022707     0.320026095064     0.037647191201    12.000000000000
         C            3.647487022707    -1.026346904936    -0.288064808799    12.000000000000
         H            0.880799022707     2.725582095064     1.056588191201     1.007825032230
         H           -0.850425977293     2.789672095064     0.629177191201     1.007825032230
         H            0.405901022707     2.839411095064    -0.643261808799     1.007825032230
         H           -0.913454977293    -1.019087904936     1.770749191201     1.007825032230
         H           -1.796892977293     1.597809095064    -1.521469808799     1.007825032230
         H            0.313046022707    -1.663282904936    -0.427015808799     1.007825032230
         H           -3.143042977293    -2.096400904936     1.514852191201     1.007825032230
         H           -4.049547977293     0.576693095064    -1.733723808799     1.007825032230
         H           -4.722409977293    -1.288533904936    -0.231661808799     1.007825032230
         H            2.489735022707    -2.800572904936    -0.734138808799     1.007825032230
         H            4.427018022707     0.937602095064     0.161310191201     1.007825032230
         H            4.620666022707    -1.488759904936    -0.421118808799     1.007825032230

  Basis Set: AUG-CC-PVTZ
    Blend: AUG-CC-PVTZ
  Basis Set: (AUG-CC-PVTZ AUX)
    Blend: AUG-CC-PVTZ-JKFIT
	 Reference Energy          =    -570.4822029824215406 [Eh]
	 Singles Energy            =      -0.0000000000000000 [Eh]
	 Same-Spin Energy          =      -0.6370293021729305 [Eh]
	 Opposite-Spin Energy      =      -1.9740287978724418 [Eh]
	 Correlation Energy        =      -2.6110581000453723 [Eh]
	 Total Energy              =    -573.0932610824669382 [Eh]

	 ================> DF-SCS-MP2 Energies <==================
	-----------------------------------------------------------
	 SCS Same-Spin Scale       =       0.3333333333333333 [-]
	 SCS Opposite-Spin Scale   =       1.2000000000000000 [-]
	 SCS Same-Spin Energy      =      -0.2123431007243102 [Eh]
	 SCS Opposite-Spin Energy  =      -2.3688345574469301 [Eh]
	 SCS Correlation Energy    =      -2.5811776581712405 [Eh]
	 SCS Total Energy          =    -573.0633806405927544 [Eh]
	-----------------------------------------------------------

  Dipole Moment: [D]
     X:    -1.1898      Y:    -0.9232      Z:    -0.4559     Total:     1.5734

*** Psi4 exiting successfully. Buy a developer a beer!
