                               Psi4 1.3.2 release

  ==> Input File <==

--------------------------------------------------------------------------
#psi4
#
memory 32 gb

molecule  {
0 1
  N        0.0678190     0.9536280     0.3022870
  N        2.3787710     0.9561460     0.2207080
  C       -1.1991060     0.3426720     0.1363540
  C        1.3281008     0.1932187     0.0660277
  C        0.1402100     2.4122570     0.3330790
  C       -1.5868590    -0.6993050     0.9921800
  C       -2.0897480     0.7954790    -0.8469150
  C        1.2497210    -1.1235430    -0.2722420
  C       -2.8402720    -1.2929990     0.8487880
  C       -3.3529590     0.2138150    -0.9676140
  C       -3.7300960    -0.8357430    -0.1274420
  C        2.4727450    -1.7522840    -0.4525030
  C        3.5488610     0.3171890     0.0404760
  C        3.6581100    -1.0291840    -0.2852360
  H        0.8914220     2.7227450     1.0594170
  H       -0.8398030     2.7868350     0.6320060
  H        0.4165240     2.8365740    -0.6404330
  H       -0.9028320    -1.0219250     1.7735780
  H       -1.7862700     1.5949720    -1.5186410
  H        0.3236690    -1.6661200    -0.4241870
  H       -3.1324200    -2.0992380     1.5176810
  H       -4.0389250     0.5738560    -1.7308950
  H       -4.7117870    -1.2913710    -0.2288330
  H        2.5003580    -2.8034100    -0.7313100
  H        4.4376410     0.9347650     0.1641390
  H        4.6312890    -1.4915970    -0.4182900
units angstrom
no_reorient  #important for SAPT in psi4, default
symmetry c1  #important for SAPT in psi4, default
}

set PROPERTIES_ORIGIN ["COM"]
properties('MP2/aug-cc-pvtz', properties = ['dipole'])
--------------------------------------------------------------------------

    Molecular point group: c1
  Charge       = 0
  Multiplicity = 1
  Basis Set: AUG-CC-PVTZ
    Blend: AUG-CC-PVTZ
  Basis Set: (AUG-CC-PVTZ AUX)
    Blend: AUG-CC-PVTZ-JKFIT

    Orbital Energies [Eh]
    ---------------------

    Doubly Occupied:

       1A    -15.564164     2A    -15.557612     3A    -11.314702
       4A    -11.279497     5A    -11.272903     6A    -11.262099
       7A    -11.241876     8A    -11.238914     9A    -11.238806
      10A    -11.232706    11A    -11.232404    12A    -11.232102
      13A    -11.231453    14A    -11.230229    15A     -1.291711
      16A     -1.218499    17A     -1.135447    18A     -1.094170
      19A     -1.032831    20A     -1.015423    21A     -1.000263
      22A     -0.913245    23A     -0.865718    24A     -0.845935
      25A     -0.828531    26A     -0.789385    27A     -0.725770
      28A     -0.692656    29A     -0.672947    30A     -0.654000
      31A     -0.640214    32A     -0.628624    33A     -0.614064
      34A     -0.599514    35A     -0.587916    36A     -0.579982
      37A     -0.569229    38A     -0.545086    39A     -0.538928
      40A     -0.521556    41A     -0.504046    42A     -0.497833
      43A     -0.495112    44A     -0.432539    45A     -0.416298
      46A     -0.385626    47A     -0.342226    48A     -0.337187
      49A     -0.292151

  @DF-RHF Final Energy:  -570.47294885202166

   => Energetics <=

    Nuclear Repulsion Energy =            819.5408098462366979
    One-Electron Energy =               -2399.1592664536065058
    Two-Electron Energy =                1009.1455077553481487
    Total Energy =                       -570.4729488520216591
  Basis Set: (AUG-CC-PVTZ AUX)
    Blend: AUG-CC-PVTZ-RI
    Molecular point group: c1

    Geometry (in Angstrom), charge = 0, multiplicity = 1:

       Center              X                  Y                   Z               Mass
    ------------   -----------------  -----------------  -----------------  -----------------
         N            0.050351116305     0.962720417700     0.300369936752    14.003074004430
         N            2.361303116305     0.965238417700     0.218790936752    14.003074004430
         C           -1.216573883695     0.351764417700     0.134436936752    12.000000000000
         C            1.310632916305     0.202311117700     0.064110636752    12.000000000000
         C            0.122742116305     2.421349417700     0.331161936752    12.000000000000
         C           -1.604326883695    -0.690212582300     0.990262936752    12.000000000000
         C           -2.107215883695     0.804571417700    -0.848832063248    12.000000000000
         C            1.232253116305    -1.114450582300    -0.274159063248    12.000000000000
         C           -2.857739883695    -1.283906582300     0.846870936752    12.000000000000
         C           -3.370426883695     0.222907417700    -0.969531063248    12.000000000000
         C           -3.747563883695    -0.826650582300    -0.129359063248    12.000000000000
         C            2.455277116305    -1.743191582300    -0.454420063248    12.000000000000
         C            3.531393116305     0.326281417700     0.038558936752    12.000000000000
         C            3.640642116305    -1.020091582300    -0.287153063248    12.000000000000
         H            0.873954116305     2.731837417700     1.057499936752     1.007825032230
         H           -0.857270883695     2.795927417700     0.630088936752     1.007825032230
         H            0.399056116305     2.845666417700    -0.642350063248     1.007825032230
         H           -0.920299883695    -1.012832582300     1.771660936752     1.007825032230
         H           -1.803737883695     1.604064417700    -1.520558063248     1.007825032230
         H            0.306201116305    -1.657027582300    -0.426104063248     1.007825032230
         H           -3.149887883695    -2.090145582300     1.515763936752     1.007825032230
         H           -4.056392883695     0.582948417700    -1.732812063248     1.007825032230
         H           -4.729254883695    -1.282278582300    -0.230750063248     1.007825032230
         H            2.482890116305    -2.794317582300    -0.733227063248     1.007825032230
         H            4.420173116305     0.943857417700     0.162221936752     1.007825032230
         H            4.613821116305    -1.482504582300    -0.420207063248     1.007825032230

  Basis Set: AUG-CC-PVTZ
    Blend: AUG-CC-PVTZ
  Basis Set: (AUG-CC-PVTZ AUX)
    Blend: AUG-CC-PVTZ-JKFIT
	 Reference Energy          =    -570.4729488520216591 [Eh]
	 Singles Energy            =      -0.0000000000000000 [Eh]
	 Same-Spin Energy          =      -0.6370558078044709 [Eh]
	 Opposite-Spin Energy      =      -1.9738078613101804 [Eh]
	 Correlation Energy        =      -2.6108636691146514 [Eh]
	 Total Energy              =    -573.0838125211363376 [Eh]

	 ================> DF-SCS-MP2 Energies <==================
	-----------------------------------------------------------
	 SCS Same-Spin Scale       =       0.3333333333333333 [-]
	 SCS Opposite-Spin Scale   =       1.2000000000000000 [-]
	 SCS Same-Spin Energy      =      -0.2123519359348236 [Eh]
	 SCS Opposite-Spin Energy  =      -2.3685694335722163 [Eh]
	 SCS Correlation Energy    =      -2.5809213695070401 [Eh]
	 SCS Total Energy          =    -573.0538702215286548 [Eh]
	-----------------------------------------------------------

  Dipole Moment: [D]
     X:    -0.1760      Y:    -1.2742      Z:    -0.5684     Total:     1.4063

*** Psi4 exiting successfully. Buy a developer a beer!
