                               Psi4 1.3.2 release

  ==> Input File <==

--------------------------------------------------------------------------
#psi4
#
memory 32 gb

molecule  {
0 1
  N        0.0678190     0.9536280     0.3022870
  N        2.4264716     0.8781794     0.1986305
  C       -1.1991060     0.3426720     0.1363540
  C        1.2435610     0.2442270     0.0818760
  C        0.1402100     2.4122570     0.3330790
  C       -1.5868590    -0.6993050     0.9921800
  C       -2.0897480     0.7954790    -0.8469150
  C        1.2497210    -1.1235430    -0.2722420
  C       -2.8402720    -1.2929990     0.8487880
  C       -3.3529590     0.2138150    -0.9676140
  C       -3.7300960    -0.8357430    -0.1274420
  C        2.4727450    -1.7522840    -0.4525030
  C        3.5488610     0.3171890     0.0404760
  C        3.6581100    -1.0291840    -0.2852360
  H        0.8914220     2.7227450     1.0594170
  H       -0.8398030     2.7868350     0.6320060
  H        0.4165240     2.8365740    -0.6404330
  H       -0.9028320    -1.0219250     1.7735780
  H       -1.7862700     1.5949720    -1.5186410
  H        0.3236690    -1.6661200    -0.4241870
  H       -3.1324200    -2.0992380     1.5176810
  H       -4.0389250     0.5738560    -1.7308950
  H       -4.7117870    -1.2913710    -0.2288330
  H        2.5003580    -2.8034100    -0.7313100
  H        4.4376410     0.9347650     0.1641390
  H        4.6312890    -1.4915970    -0.4182900
units angstrom
no_reorient  #important for SAPT in psi4, default
symmetry c1  #important for SAPT in psi4, default
}

set PROPERTIES_ORIGIN ["COM"]
properties('MP2/aug-cc-pvtz', properties = ['dipole'])
--------------------------------------------------------------------------

    Molecular point group: c1
  Charge       = 0
  Multiplicity = 1
  Basis Set: AUG-CC-PVTZ
    Blend: AUG-CC-PVTZ
  Basis Set: (AUG-CC-PVTZ AUX)
    Blend: AUG-CC-PVTZ-JKFIT

    Orbital Energies [Eh]
    ---------------------

    Doubly Occupied:

       1A    -15.582153     2A    -15.539627     3A    -11.318353
       4A    -11.281847     5A    -11.262269     6A    -11.252291
       7A    -11.250236     8A    -11.244486     9A    -11.244046
      10A    -11.240500    11A    -11.239157    12A    -11.238806
      13A    -11.224344    14A    -11.217657    15A     -1.299767
      16A     -1.237703    17A     -1.145861    18A     -1.076350
      19A     -1.031887    20A     -1.021813    21A     -1.005690
      22A     -0.927416    23A     -0.865284    24A     -0.840397
      25A     -0.832724    26A     -0.798167    27A     -0.733332
      28A     -0.693874    29A     -0.673835    30A     -0.658063
      31A     -0.649441    32A     -0.631860    33A     -0.616676
      34A     -0.604679    35A     -0.591917    36A     -0.585574
      37A     -0.568499    38A     -0.543803    39A     -0.540753
      40A     -0.529507    41A     -0.514153    42A     -0.506412
      43A     -0.501827    44A     -0.432388    45A     -0.396951
      46A     -0.381582    47A     -0.344507    48A     -0.339783
      49A     -0.285488

  @DF-RHF Final Energy:  -570.48005816837292

   => Energetics <=

    Nuclear Repulsion Energy =            820.9479261014162148
    One-Electron Energy =               -2401.7684993091579599
    Two-Electron Energy =                1010.3405150393688245
    Total Energy =                       -570.4800581683729206
  Basis Set: (AUG-CC-PVTZ AUX)
    Blend: AUG-CC-PVTZ-RI
    Molecular point group: c1

    Geometry (in Angstrom), charge = 0, multiplicity = 1:

       Center              X                  Y                   Z               Mass
    ------------   -----------------  -----------------  -----------------  -----------------
         N            0.052233367674     0.965325916579     0.301016179202    14.003074004430
         N            2.410885967674     0.889877316579     0.197359679202    14.003074004430
         C           -1.214691632326     0.354369916579     0.135083179202    12.000000000000
         C            1.227975367674     0.255924916579     0.080605179202    12.000000000000
         C            0.124624367674     2.423954916579     0.331808179202    12.000000000000
         C           -1.602444632326    -0.687607083421     0.990909179202    12.000000000000
         C           -2.105333632326     0.807176916579    -0.848185820798    12.000000000000
         C            1.234135367674    -1.111845083421    -0.273512820798    12.000000000000
         C           -2.855857632326    -1.281301083421     0.847517179202    12.000000000000
         C           -3.368544632326     0.225512916579    -0.968884820798    12.000000000000
         C           -3.745681632326    -0.824045083421    -0.128712820798    12.000000000000
         C            2.457159367674    -1.740586083421    -0.453773820798    12.000000000000
         C            3.533275367674     0.328886916579     0.039205179202    12.000000000000
         C            3.642524367674    -1.017486083421    -0.286506820798    12.000000000000
         H            0.875836367674     2.734442916579     1.058146179202     1.007825032230
         H           -0.855388632326     2.798532916579     0.630735179202     1.007825032230
         H            0.400938367674     2.848271916579    -0.641703820798     1.007825032230
         H           -0.918417632326    -1.010227083421     1.772307179202     1.007825032230
         H           -1.801855632326     1.606669916579    -1.519911820798     1.007825032230
         H            0.308083367674    -1.654422083421    -0.425457820798     1.007825032230
         H           -3.148005632326    -2.087540083421     1.516410179202     1.007825032230
         H           -4.054510632326     0.585553916579    -1.732165820798     1.007825032230
         H           -4.727372632326    -1.279673083421    -0.230103820798     1.007825032230
         H            2.484772367674    -2.791712083421    -0.732580820798     1.007825032230
         H            4.422055367674     0.946462916579     0.162868179202     1.007825032230
         H            4.615703367674    -1.479899083421    -0.419560820798     1.007825032230

  Basis Set: AUG-CC-PVTZ
    Blend: AUG-CC-PVTZ
  Basis Set: (AUG-CC-PVTZ AUX)
    Blend: AUG-CC-PVTZ-JKFIT
	 Reference Energy          =    -570.4800581683729206 [Eh]
	 Singles Energy            =      -0.0000000000000000 [Eh]
	 Same-Spin Energy          =      -0.6367352990509612 [Eh]
	 Opposite-Spin Energy      =      -1.9718427795726003 [Eh]
	 Correlation Energy        =      -2.6085780786235615 [Eh]
	 Total Energy              =    -573.0886362469964297 [Eh]

	 ================> DF-SCS-MP2 Energies <==================
	-----------------------------------------------------------
	 SCS Same-Spin Scale       =       0.3333333333333333 [-]
	 SCS Opposite-Spin Scale   =       1.2000000000000000 [-]
	 SCS Same-Spin Energy      =      -0.2122450996836537 [Eh]
	 SCS Opposite-Spin Energy  =      -2.3662113354871201 [Eh]
	 SCS Correlation Energy    =      -2.5784564351707737 [Eh]
	 SCS Total Energy          =    -573.0585146035436992 [Eh]
	-----------------------------------------------------------

  Dipole Moment: [D]
     X:    -1.3705      Y:    -0.6704      Z:    -0.3735     Total:     1.5707

*** Psi4 exiting successfully. Buy a developer a beer!
