                               Psi4 1.3.2 release

  ==> Input File <==

--------------------------------------------------------------------------
#psi4
#
memory 32 gb

molecule  {
0 1
  N        0.0678190     0.9536280     0.3022870
  N        2.3787710     0.9561460     0.2207080
  C       -1.1991060     0.3426720     0.1363540
  C        1.0750256     0.1385341     0.0612647
  C        0.1402100     2.4122570     0.3330790
  C       -1.5868590    -0.6993050     0.9921800
  C       -2.0897480     0.7954790    -0.8469150
  C        1.2497210    -1.1235430    -0.2722420
  C       -2.8402720    -1.2929990     0.8487880
  C       -3.3529590     0.2138150    -0.9676140
  C       -3.7300960    -0.8357430    -0.1274420
  C        2.4727450    -1.7522840    -0.4525030
  C        3.5488610     0.3171890     0.0404760
  C        3.6581100    -1.0291840    -0.2852360
  H        0.8914220     2.7227450     1.0594170
  H       -0.8398030     2.7868350     0.6320060
  H        0.4165240     2.8365740    -0.6404330
  H       -0.9028320    -1.0219250     1.7735780
  H       -1.7862700     1.5949720    -1.5186410
  H        0.3236690    -1.6661200    -0.4241870
  H       -3.1324200    -2.0992380     1.5176810
  H       -4.0389250     0.5738560    -1.7308950
  H       -4.7117870    -1.2913710    -0.2288330
  H        2.5003580    -2.8034100    -0.7313100
  H        4.4376410     0.9347650     0.1641390
  H        4.6312890    -1.4915970    -0.4182900
units angstrom
no_reorient  #important for SAPT in psi4, default
symmetry c1  #important for SAPT in psi4, default
}

set PROPERTIES_ORIGIN ["COM"]
properties('MP2/aug-cc-pvtz', properties = ['dipole'])
--------------------------------------------------------------------------

    Molecular point group: c1
  Charge       = 0
  Multiplicity = 1
  Basis Set: AUG-CC-PVTZ
    Blend: AUG-CC-PVTZ
  Basis Set: (AUG-CC-PVTZ AUX)
    Blend: AUG-CC-PVTZ-JKFIT

    Orbital Energies [Eh]
    ---------------------

    Doubly Occupied:

       1A    -15.590384     2A    -15.550648     3A    -11.314218
       4A    -11.281442     5A    -11.266934     6A    -11.259468
       7A    -11.256104     8A    -11.246151     9A    -11.245865
      10A    -11.242344    11A    -11.241244    12A    -11.240880
      13A    -11.217471    14A    -11.211710    15A     -1.307701
      16A     -1.193139    17A     -1.147740    18A     -1.072115
      19A     -1.032525    20A     -1.023268    21A     -1.009918
      22A     -0.941969    23A     -0.854407    24A     -0.848981
      25A     -0.837231    26A     -0.785299    27A     -0.731104
      28A     -0.697432    29A     -0.673193    30A     -0.657503
      31A     -0.649601    32A     -0.627884    33A     -0.616702
      34A     -0.599437    35A     -0.592739    36A     -0.588850
      37A     -0.567863    38A     -0.549050    39A     -0.527908
      40A     -0.523026    41A     -0.508904    42A     -0.504407
      43A     -0.497988    44A     -0.442638    45A     -0.392385
      46A     -0.369040    47A     -0.345876    48A     -0.342217
      49A     -0.284845

  @DF-RHF Final Energy:  -570.43650261810683

   => Energetics <=

    Nuclear Repulsion Energy =            820.3574287828425895
    One-Electron Energy =               -2400.5683652453221839
    Two-Electron Energy =                1009.7744338443727656
    Total Energy =                       -570.4365026181068288
  Basis Set: (AUG-CC-PVTZ AUX)
    Blend: AUG-CC-PVTZ-RI
    Molecular point group: c1

    Geometry (in Angstrom), charge = 0, multiplicity = 1:

       Center              X                  Y                   Z               Mass
    ------------   -----------------  -----------------  -----------------  -----------------
         N            0.066847051132     0.966284866519     0.300680398376    14.003074004430
         N            2.377799051132     0.968802866519     0.219101398376    14.003074004430
         C           -1.200077948868     0.355328866519     0.134747398376    12.000000000000
         C            1.074053651132     0.151190966519     0.059658098376    12.000000000000
         C            0.139238051132     2.424913866519     0.331472398376    12.000000000000
         C           -1.587830948868    -0.686648133481     0.990573398376    12.000000000000
         C           -2.090719948868     0.808135866519    -0.848521601624    12.000000000000
         C            1.248749051132    -1.110886133481    -0.273848601624    12.000000000000
         C           -2.841243948868    -1.280342133481     0.847181398376    12.000000000000
         C           -3.353930948868     0.226471866519    -0.969220601624    12.000000000000
         C           -3.731067948868    -0.823086133481    -0.129048601624    12.000000000000
         C            2.471773051132    -1.739627133481    -0.454109601624    12.000000000000
         C            3.547889051132     0.329845866519     0.038869398376    12.000000000000
         C            3.657138051132    -1.016527133481    -0.286842601624    12.000000000000
         H            0.890450051132     2.735401866519     1.057810398376     1.007825032230
         H           -0.840774948868     2.799491866519     0.630399398376     1.007825032230
         H            0.415552051132     2.849230866519    -0.642039601624     1.007825032230
         H           -0.903803948868    -1.009268133481     1.771971398376     1.007825032230
         H           -1.787241948868     1.607628866519    -1.520247601624     1.007825032230
         H            0.322697051132    -1.653463133481    -0.425793601624     1.007825032230
         H           -3.133391948868    -2.086581133481     1.516074398376     1.007825032230
         H           -4.039896948868     0.586512866519    -1.732501601624     1.007825032230
         H           -4.712758948868    -1.278714133481    -0.230439601624     1.007825032230
         H            2.499386051132    -2.790753133481    -0.732916601624     1.007825032230
         H            4.436669051132     0.947421866519     0.162532398376     1.007825032230
         H            4.630317051132    -1.478940133481    -0.419896601624     1.007825032230

  Basis Set: AUG-CC-PVTZ
    Blend: AUG-CC-PVTZ
  Basis Set: (AUG-CC-PVTZ AUX)
    Blend: AUG-CC-PVTZ-JKFIT
	 Reference Energy          =    -570.4365026181068288 [Eh]
	 Singles Energy            =      -0.0000000000000000 [Eh]
	 Same-Spin Energy          =      -0.6395754525113319 [Eh]
	 Opposite-Spin Energy      =      -1.9806223811534833 [Eh]
	 Correlation Energy        =      -2.6201978336648151 [Eh]
	 Total Energy              =    -573.0567004517716896 [Eh]

	 ================> DF-SCS-MP2 Energies <==================
	-----------------------------------------------------------
	 SCS Same-Spin Scale       =       0.3333333333333333 [-]
	 SCS Opposite-Spin Scale   =       1.2000000000000000 [-]
	 SCS Same-Spin Energy      =      -0.2131918175037773 [Eh]
	 SCS Opposite-Spin Energy  =      -2.3767468573841799 [Eh]
	 SCS Correlation Energy    =      -2.5899386748879571 [Eh]
	 SCS Total Energy          =    -573.0264412929948321 [Eh]
	-----------------------------------------------------------

  Dipole Moment: [D]
     X:    -1.8074      Y:    -0.5317      Z:    -0.3335     Total:     1.9133

*** Psi4 exiting successfully. Buy a developer a beer!
