                               Psi4 1.3.2 release

  ==> Input File <==

--------------------------------------------------------------------------
#psi4
#
memory 32 gb

molecule  {
0 1
  N        0.0678190     0.9536280     0.3022870
  N        2.3787710     0.9561460     0.2207080
  C       -1.1991060     0.3426720     0.1363540
  C        1.2189656     0.2830921     0.0916551
  C        0.1402100     2.4122570     0.3330790
  C       -1.5868590    -0.6993050     0.9921800
  C       -2.0897480     0.7954790    -0.8469150
  C        1.2497210    -1.1235430    -0.2722420
  C       -2.8402720    -1.2929990     0.8487880
  C       -3.3529590     0.2138150    -0.9676140
  C       -3.7300960    -0.8357430    -0.1274420
  C        2.4727450    -1.7522840    -0.4525030
  C        3.5488610     0.3171890     0.0404760
  C        3.6581100    -1.0291840    -0.2852360
  H        0.8914220     2.7227450     1.0594170
  H       -0.8398030     2.7868350     0.6320060
  H        0.4165240     2.8365740    -0.6404330
  H       -0.9028320    -1.0219250     1.7735780
  H       -1.7862700     1.5949720    -1.5186410
  H        0.3236690    -1.6661200    -0.4241870
  H       -3.1324200    -2.0992380     1.5176810
  H       -4.0389250     0.5738560    -1.7308950
  H       -4.7117870    -1.2913710    -0.2288330
  H        2.5003580    -2.8034100    -0.7313100
  H        4.4376410     0.9347650     0.1641390
  H        4.6312890    -1.4915970    -0.4182900
units angstrom
no_reorient  #important for SAPT in psi4, default
symmetry c1  #important for SAPT in psi4, default
}

set PROPERTIES_ORIGIN ["COM"]
properties('MP2/aug-cc-pvtz', properties = ['dipole'])
--------------------------------------------------------------------------

    Molecular point group: c1
  Charge       = 0
  Multiplicity = 1
  Basis Set: AUG-CC-PVTZ
    Blend: AUG-CC-PVTZ
  Basis Set: (AUG-CC-PVTZ AUX)
    Blend: AUG-CC-PVTZ-JKFIT

    Orbital Energies [Eh]
    ---------------------

    Doubly Occupied:

       1A    -15.585277     2A    -15.543749     3A    -11.318867
       4A    -11.284127     5A    -11.269653     6A    -11.252896
       7A    -11.251195     8A    -11.246122     9A    -11.245647
      10A    -11.242704    11A    -11.241074    12A    -11.240906
      13A    -11.227796    14A    -11.218287    15A     -1.304645
      16A     -1.219322    17A     -1.147968    18A     -1.073676
      19A     -1.028168    20A     -1.022977    21A     -1.004695
      22A     -0.932655    23A     -0.862949    24A     -0.840773
      25A     -0.833356    26A     -0.792188    27A     -0.734312
      28A     -0.694010    29A     -0.670141    30A     -0.660246
      31A     -0.652372    32A     -0.629989    33A     -0.613165
      34A     -0.604908    35A     -0.592669    36A     -0.584749
      37A     -0.567708    38A     -0.540849    39A     -0.532725
      40A     -0.527820    41A     -0.514503    42A     -0.507522
      43A     -0.503545    44A     -0.435399    45A     -0.404325
      46A     -0.374751    47A     -0.346085    48A     -0.340267
      49A     -0.284957

  @DF-RHF Final Energy:  -570.48170626652495

   => Energetics <=

    Nuclear Repulsion Energy =            819.9161150765587536
    One-Electron Energy =               -2399.6982688619505097
    Two-Electron Energy =                1009.3004475188668039
    Total Energy =                       -570.4817062665249523
  Basis Set: (AUG-CC-PVTZ AUX)
    Blend: AUG-CC-PVTZ-RI
    Molecular point group: c1

    Geometry (in Angstrom), charge = 0, multiplicity = 1:

       Center              X                  Y                   Z               Mass
    ------------   -----------------  -----------------  -----------------  -----------------
         N            0.057464761366     0.956862294308     0.298699492867    14.003074004430
         N            2.368416761366     0.959380294308     0.217120492867    14.003074004430
         C           -1.209460238634     0.345906294308     0.132766492867    12.000000000000
         C            1.208611361366     0.286326394308     0.088067592867    12.000000000000
         C            0.129855761366     2.415491294308     0.329491492867    12.000000000000
         C           -1.597213238634    -0.696070705692     0.988592492867    12.000000000000
         C           -2.100102238634     0.798713294308    -0.850502507133    12.000000000000
         C            1.239366761366    -1.120308705692    -0.275829507133    12.000000000000
         C           -2.850626238634    -1.289764705692     0.845200492867    12.000000000000
         C           -3.363313238634     0.217049294308    -0.971201507133    12.000000000000
         C           -3.740450238634    -0.832508705692    -0.131029507133    12.000000000000
         C            2.462390761366    -1.749049705692    -0.456090507133    12.000000000000
         C            3.538506761366     0.320423294308     0.036888492867    12.000000000000
         C            3.647755761366    -1.025949705692    -0.288823507133    12.000000000000
         H            0.881067761366     2.725979294308     1.055829492867     1.007825032230
         H           -0.850157238634     2.790069294308     0.628418492867     1.007825032230
         H            0.406169761366     2.839808294308    -0.644020507133     1.007825032230
         H           -0.913186238634    -1.018690705692     1.769990492867     1.007825032230
         H           -1.796624238634     1.598206294308    -1.522228507133     1.007825032230
         H            0.313314761366    -1.662885705692    -0.427774507133     1.007825032230
         H           -3.142774238634    -2.096003705692     1.514093492867     1.007825032230
         H           -4.049279238634     0.577090294308    -1.734482507133     1.007825032230
         H           -4.722141238634    -1.288136705692    -0.232420507133     1.007825032230
         H            2.490003761366    -2.800175705692    -0.734897507133     1.007825032230
         H            4.427286761366     0.937999294308     0.160551492867     1.007825032230
         H            4.620934761366    -1.488362705692    -0.421877507133     1.007825032230

  Basis Set: AUG-CC-PVTZ
    Blend: AUG-CC-PVTZ
  Basis Set: (AUG-CC-PVTZ AUX)
    Blend: AUG-CC-PVTZ-JKFIT
	 Reference Energy          =    -570.4817062665249523 [Eh]
	 Singles Energy            =      -0.0000000000000000 [Eh]
	 Same-Spin Energy          =      -0.6370759173317956 [Eh]
	 Opposite-Spin Energy      =      -1.9740498159829547 [Eh]
	 Correlation Energy        =      -2.6111257333147502 [Eh]
	 Total Energy              =    -573.0928319998397455 [Eh]

	 ================> DF-SCS-MP2 Energies <==================
	-----------------------------------------------------------
	 SCS Same-Spin Scale       =       0.3333333333333333 [-]
	 SCS Opposite-Spin Scale   =       1.2000000000000000 [-]
	 SCS Same-Spin Energy      =      -0.2123586391105985 [Eh]
	 SCS Opposite-Spin Energy  =      -2.3688597791795454 [Eh]
	 SCS Correlation Energy    =      -2.5812184182901441 [Eh]
	 SCS Total Energy          =    -573.0629246848151297 [Eh]
	-----------------------------------------------------------

  Dipole Moment: [D]
     X:    -1.6596      Y:    -0.7337      Z:    -0.3805     Total:     1.8540

*** Psi4 exiting successfully. Buy a developer a beer!
