                               Psi4 1.4a3.dev225

  ==> Input File <==

--------------------------------------------------------------------------
#psi4
#
memory 32 gb

molecule  {
0 1
  N        0.0678190     0.9536280     0.3022870
  N        2.3787710     0.9561460     0.2207080
  C       -1.1991060     0.3426720     0.1363540
  C        1.2014271     0.2178038     0.0767232
  C        0.1402100     2.4122570     0.3330790
  C       -1.5868590    -0.6993050     0.9921800
  C       -2.0897480     0.7954790    -0.8469150
  C        1.2497210    -1.1235430    -0.2722420
  C       -2.8402720    -1.2929990     0.8487880
  C       -3.3529590     0.2138150    -0.9676140
  C       -3.7300960    -0.8357430    -0.1274420
  C        2.4727450    -1.7522840    -0.4525030
  C        3.5488610     0.3171890     0.0404760
  C        3.6581100    -1.0291840    -0.2852360
  H        0.8914220     2.7227450     1.0594170
  H       -0.8398030     2.7868350     0.6320060
  H        0.4165240     2.8365740    -0.6404330
  H       -0.9028320    -1.0219250     1.7735780
  H       -1.7862700     1.5949720    -1.5186410
  H        0.3236690    -1.6661200    -0.4241870
  H       -3.1324200    -2.0992380     1.5176810
  H       -4.0389250     0.5738560    -1.7308950
  H       -4.7117870    -1.2913710    -0.2288330
  H        2.5003580    -2.8034100    -0.7313100
  H        4.4376410     0.9347650     0.1641390
  H        4.6312890    -1.4915970    -0.4182900
units angstrom
no_reorient  #important for SAPT in psi4, default
symmetry c1  #important for SAPT in psi4, default
}

set PROPERTIES_ORIGIN ["COM"]
properties('MP2/aug-cc-pvtz', properties = ['dipole'])
--------------------------------------------------------------------------

    Molecular point group: c1
  Charge       = 0
  Multiplicity = 1
  Basis Set: AUG-CC-PVTZ
    Blend: AUG-CC-PVTZ
  Basis Set: (AUG-CC-PVTZ AUX)
    Blend: AUG-CC-PVTZ-JKFIT

    Orbital Energies [Eh]
    ---------------------

    Doubly Occupied:

       1A    -15.582495     2A    -15.549840     3A    -11.316714
       4A    -11.280696     5A    -11.271149     6A    -11.255452
       7A    -11.252234     8A    -11.244471     9A    -11.244147
      10A    -11.240279    11A    -11.239128    12A    -11.238872
      13A    -11.223180    14A    -11.220789    15A     -1.295762
      16A     -1.213220    17A     -1.145180    18A     -1.076140
      19A     -1.030055    20A     -1.021381    21A     -1.006232
      22A     -0.930556    23A     -0.857919    24A     -0.844158
      25A     -0.834427    26A     -0.791463    27A     -0.730731
      28A     -0.694088    29A     -0.669637    30A     -0.655982
      31A     -0.648678    32A     -0.629200    33A     -0.615959
      34A     -0.602021    35A     -0.591912    36A     -0.586066
      37A     -0.568235    38A     -0.541752    39A     -0.532137
      40A     -0.526726    41A     -0.510822    42A     -0.505196
      43A     -0.501986    44A     -0.433179    45A     -0.410009
      46A     -0.374052    47A     -0.344757    48A     -0.340616
      49A     -0.287429

  @DF-RHF Final Energy:  -570.47955905125070

   => Energetics <=

    Nuclear Repulsion Energy =            819.8763248935421188
    One-Electron Energy =               -2399.6975488775765371
    Two-Electron Energy =                1009.3416649327838286
    Total Energy =                       -570.4795590512507033
  Basis Set: (AUG-CC-PVTZ AUX)
    Blend: AUG-CC-PVTZ-RI
    Molecular point group: c1

    Geometry (in Angstrom), charge = 0, multiplicity = 1:

       Center              X                  Y                   Z               Mass
    ------------   -----------------  -----------------  -----------------  -----------------
         N            0.058607954981     0.961117912961     0.299672783214    14.003074004430
         N            2.369559954981     0.963635912961     0.218093783214    14.003074004430
         C           -1.208317045019     0.350161912961     0.133739783214    12.000000000000
         C            1.192216054981     0.225293712961     0.074108983214    12.000000000000
         C            0.130998954981     2.419746912961     0.330464783214    12.000000000000
         C           -1.596070045019    -0.691815087039     0.989565783214    12.000000000000
         C           -2.098959045019     0.802968912961    -0.849529216786    12.000000000000
         C            1.240509954981    -1.116053087039    -0.274856216786    12.000000000000
         C           -2.849483045019    -1.285509087039     0.846173783214    12.000000000000
         C           -3.362170045019     0.221304912961    -0.970228216786    12.000000000000
         C           -3.739307045019    -0.828253087039    -0.130056216786    12.000000000000
         C            2.463533954981    -1.744794087039    -0.455117216786    12.000000000000
         C            3.539649954981     0.324678912961     0.037861783214    12.000000000000
         C            3.648898954981    -1.021694087039    -0.287850216786    12.000000000000
         H            0.882210954981     2.730234912961     1.056802783214     1.007825032230
         H           -0.849014045019     2.794324912961     0.629391783214     1.007825032230
         H            0.407312954981     2.844063912961    -0.643047216786     1.007825032230
         H           -0.912043045019    -1.014435087039     1.770963783214     1.007825032230
         H           -1.795481045019     1.602461912961    -1.521255216786     1.007825032230
         H            0.314457954981    -1.658630087039    -0.426801216786     1.007825032230
         H           -3.141631045019    -2.091748087039     1.515066783214     1.007825032230
         H           -4.048136045019     0.581345912961    -1.733509216786     1.007825032230
         H           -4.720998045019    -1.283881087039    -0.231447216786     1.007825032230
         H            2.491146954981    -2.795920087039    -0.733924216786     1.007825032230
         H            4.428429954981     0.942254912961     0.161524783214     1.007825032230
         H            4.622077954981    -1.484107087039    -0.420904216786     1.007825032230

  Basis Set: AUG-CC-PVTZ
    Blend: AUG-CC-PVTZ
  Basis Set: (AUG-CC-PVTZ AUX)
    Blend: AUG-CC-PVTZ-JKFIT
	 Reference Energy          =    -570.4795590512507033 [Eh]
	 Singles Energy            =      -0.0000000000000000 [Eh]
	 Same-Spin Energy          =      -0.6376728164959250 [Eh]
	 Opposite-Spin Energy      =      -1.9750731495322396 [Eh]
	 Correlation Energy        =      -2.6127459660281644 [Eh]
	 Total Energy              =    -573.0923050172788180 [Eh]

	 ================> DF-SCS-MP2 Energies <==================
	-----------------------------------------------------------
	 SCS Same-Spin Scale       =       0.3333333333333333 [-]
	 SCS Opposite-Spin Scale   =       1.2000000000000000 [-]
	 SCS Same-Spin Energy      =      -0.2125576054986417 [Eh]
	 SCS Opposite-Spin Energy  =      -2.3700877794386872 [Eh]
	 SCS Correlation Energy    =      -2.5826453849373290 [Eh]
	 SCS Total Energy          =    -573.0622044361880398 [Eh]
	-----------------------------------------------------------

  Dipole Moment: [D]
     X:    -1.3862      Y:    -0.8110      Z:    -0.4120     Total:     1.6580

*** Psi4 exiting successfully. Buy a developer a beer!
