                               Psi4 1.3.2 release

  ==> Input File <==

--------------------------------------------------------------------------
#psi4
#
memory 32 gb

molecule  {
0 1
  N        0.0678190     0.9536280     0.3022870
  N        2.3787710     0.9561460     0.2207080
  C       -1.1991060     0.3426720     0.1363540
  C        1.4126406     0.1422103     0.0501794
  C        0.1402100     2.4122570     0.3330790
  C       -1.5868590    -0.6993050     0.9921800
  C       -2.0897480     0.7954790    -0.8469150
  C        1.2497210    -1.1235430    -0.2722420
  C       -2.8402720    -1.2929990     0.8487880
  C       -3.3529590     0.2138150    -0.9676140
  C       -3.7300960    -0.8357430    -0.1274420
  C        2.4727450    -1.7522840    -0.4525030
  C        3.5488610     0.3171890     0.0404760
  C        3.6581100    -1.0291840    -0.2852360
  H        0.8914220     2.7227450     1.0594170
  H       -0.8398030     2.7868350     0.6320060
  H        0.4165240     2.8365740    -0.6404330
  H       -0.9028320    -1.0219250     1.7735780
  H       -1.7862700     1.5949720    -1.5186410
  H        0.3236690    -1.6661200    -0.4241870
  H       -3.1324200    -2.0992380     1.5176810
  H       -4.0389250     0.5738560    -1.7308950
  H       -4.7117870    -1.2913710    -0.2288330
  H        2.5003580    -2.8034100    -0.7313100
  H        4.4376410     0.9347650     0.1641390
  H        4.6312890    -1.4915970    -0.4182900
units angstrom
no_reorient  #important for SAPT in psi4, default
symmetry c1  #important for SAPT in psi4, default
}

set PROPERTIES_ORIGIN ["COM"]
properties('MP2/aug-cc-pvtz', properties = ['dipole'])
--------------------------------------------------------------------------

    Molecular point group: c1
  Charge       = 0
  Multiplicity = 1
  Basis Set: AUG-CC-PVTZ
    Blend: AUG-CC-PVTZ
  Basis Set: (AUG-CC-PVTZ AUX)
    Blend: AUG-CC-PVTZ-JKFIT

    Orbital Energies [Eh]
    ---------------------

    Doubly Occupied:

       1A    -15.566368     2A    -15.548870     3A    -11.315203
       4A    -11.286965     5A    -11.269500     6A    -11.265923
       7A    -11.239963     8A    -11.234816     9A    -11.234632
      10A    -11.234386    11A    -11.233623    12A    -11.227452
      13A    -11.226021    14A    -11.225549    15A     -1.305905
      16A     -1.206698    17A     -1.127373    18A     -1.111543
      19A     -1.039772    20A     -1.010490    21A     -0.993962
      22A     -0.902822    23A     -0.875532    24A     -0.846392
      25A     -0.823607    26A     -0.784781    27A     -0.727622
      28A     -0.690211    29A     -0.680932    30A     -0.651870
      31A     -0.633876    32A     -0.627863    33A     -0.609082
      34A     -0.597844    35A     -0.586665    36A     -0.578422
      37A     -0.569515    38A     -0.552238    39A     -0.541413
      40A     -0.511827    41A     -0.498050    42A     -0.491107
      43A     -0.483980    44A     -0.444103    45A     -0.407053
      46A     -0.393474    47A     -0.345103    48A     -0.333626
      49A     -0.289877

  @DF-RHF Final Energy:  -570.44114734673769

   => Energetics <=

    Nuclear Repulsion Energy =            819.4640710779295887
    One-Electron Energy =               -2399.0426422810824079
    Two-Electron Energy =                1009.1374238564152392
    Total Energy =                       -570.4411473467376936
  Basis Set: (AUG-CC-PVTZ AUX)
    Blend: AUG-CC-PVTZ-RI
    Molecular point group: c1

    Geometry (in Angstrom), charge = 0, multiplicity = 1:

       Center              X                  Y                   Z               Mass
    ------------   -----------------  -----------------  -----------------  -----------------
         N            0.044840647357     0.966045244637     0.301402959837    14.003074004430
         N            2.355792647357     0.968563244637     0.219823959837    14.003074004430
         C           -1.222084352643     0.355089244637     0.135469959837    12.000000000000
         C            1.389662247357     0.154627544637     0.049295359837    12.000000000000
         C            0.117231647357     2.424674244637     0.332194959837    12.000000000000
         C           -1.609837352643    -0.686887755363     0.991295959837    12.000000000000
         C           -2.112726352643     0.807896244637    -0.847799040163    12.000000000000
         C            1.226742647357    -1.111125755363    -0.273126040163    12.000000000000
         C           -2.863250352643    -1.280581755363     0.847903959837    12.000000000000
         C           -3.375937352643     0.226232244637    -0.968498040163    12.000000000000
         C           -3.753074352643    -0.823325755363    -0.128326040163    12.000000000000
         C            2.449766647357    -1.739866755363    -0.453387040163    12.000000000000
         C            3.525882647357     0.329606244637     0.039591959837    12.000000000000
         C            3.635131647357    -1.016766755363    -0.286120040163    12.000000000000
         H            0.868443647357     2.735162244637     1.058532959837     1.007825032230
         H           -0.862781352643     2.799252244637     0.631121959837     1.007825032230
         H            0.393545647357     2.848991244637    -0.641317040163     1.007825032230
         H           -0.925810352643    -1.009507755363     1.772693959837     1.007825032230
         H           -1.809248352643     1.607389244637    -1.519525040163     1.007825032230
         H            0.300690647357    -1.653702755363    -0.425071040163     1.007825032230
         H           -3.155398352643    -2.086820755363     1.516796959837     1.007825032230
         H           -4.061903352643     0.586273244637    -1.731779040163     1.007825032230
         H           -4.734765352643    -1.278953755363    -0.229717040163     1.007825032230
         H            2.477379647357    -2.790992755363    -0.732194040163     1.007825032230
         H            4.414662647357     0.947182244637     0.163254959837     1.007825032230
         H            4.608310647357    -1.479179755363    -0.419174040163     1.007825032230

  Basis Set: AUG-CC-PVTZ
    Blend: AUG-CC-PVTZ
  Basis Set: (AUG-CC-PVTZ AUX)
    Blend: AUG-CC-PVTZ-JKFIT
	 Reference Energy          =    -570.4411473467376936 [Eh]
	 Singles Energy            =      -0.0000000000000000 [Eh]
	 Same-Spin Energy          =      -0.6378425903613931 [Eh]
	 Opposite-Spin Energy      =      -1.9751851991434557 [Eh]
	 Correlation Energy        =      -2.6130277895048488 [Eh]
	 Total Energy              =    -573.0541751362425202 [Eh]

	 ================> DF-SCS-MP2 Energies <==================
	-----------------------------------------------------------
	 SCS Same-Spin Scale       =       0.3333333333333333 [-]
	 SCS Opposite-Spin Scale   =       1.2000000000000000 [-]
	 SCS Same-Spin Energy      =      -0.2126141967871310 [Eh]
	 SCS Opposite-Spin Energy  =      -2.3702222389721466 [Eh]
	 SCS Correlation Energy    =      -2.5828364357592775 [Eh]
	 SCS Total Energy          =    -573.0239837824969982 [Eh]
	-----------------------------------------------------------

  Dipole Moment: [D]
     X:     0.7901      Y:    -1.6185      Z:    -0.6888     Total:     1.9283

*** Psi4 exiting successfully. Buy a developer a beer!
