                               Psi4 1.3.2 release

  ==> Input File <==

--------------------------------------------------------------------------
#psi4
#
memory 32 gb

molecule  {
0 1
  N        0.0894262     0.8601433     0.4152950
  N        2.3787710     0.9561460     0.2207080
  C       -1.1991060     0.3426720     0.1363540
  C        1.2435610     0.2442270     0.0818760
  C        0.1402100     2.4122570     0.3330790
  C       -1.5868590    -0.6993050     0.9921800
  C       -2.0897480     0.7954790    -0.8469150
  C        1.2497210    -1.1235430    -0.2722420
  C       -2.8402720    -1.2929990     0.8487880
  C       -3.3529590     0.2138150    -0.9676140
  C       -3.7300960    -0.8357430    -0.1274420
  C        2.4727450    -1.7522840    -0.4525030
  C        3.5488610     0.3171890     0.0404760
  C        3.6581100    -1.0291840    -0.2852360
  H        0.8914220     2.7227450     1.0594170
  H       -0.8398030     2.7868350     0.6320060
  H        0.4165240     2.8365740    -0.6404330
  H       -0.9028320    -1.0219250     1.7735780
  H       -1.7862700     1.5949720    -1.5186410
  H        0.3236690    -1.6661200    -0.4241870
  H       -3.1324200    -2.0992380     1.5176810
  H       -4.0389250     0.5738560    -1.7308950
  H       -4.7117870    -1.2913710    -0.2288330
  H        2.5003580    -2.8034100    -0.7313100
  H        4.4376410     0.9347650     0.1641390
  H        4.6312890    -1.4915970    -0.4182900
units angstrom
no_reorient  #important for SAPT in psi4, default
symmetry c1  #important for SAPT in psi4, default
}

set PROPERTIES_ORIGIN ["COM"]
properties('MP2/aug-cc-pvtz', properties = ['dipole'])
--------------------------------------------------------------------------

    Molecular point group: c1
  Charge       = 0
  Multiplicity = 1
  Basis Set: AUG-CC-PVTZ
    Blend: AUG-CC-PVTZ
  Basis Set: (AUG-CC-PVTZ AUX)
    Blend: AUG-CC-PVTZ-JKFIT

    Orbital Energies [Eh]
    ---------------------

    Doubly Occupied:

       1A    -15.584101     2A    -15.546702     3A    -11.313117
       4A    -11.280523     5A    -11.271401     6A    -11.257463
       7A    -11.253009     8A    -11.245297     9A    -11.242981
      10A    -11.242344    11A    -11.238873    12A    -11.235640
      13A    -11.223761    14A    -11.220455    15A     -1.297501
      16A     -1.217273    17A     -1.143859    18A     -1.077340
      19A     -1.028840    20A     -1.021487    21A     -0.996477
      22A     -0.929995    23A     -0.861538    24A     -0.842610
      25A     -0.834294    26A     -0.791909    27A     -0.731739
      28A     -0.691453    29A     -0.668394    30A     -0.658917
      31A     -0.647309    32A     -0.625947    33A     -0.611730
      34A     -0.603650    35A     -0.589863    36A     -0.577776
      37A     -0.560156    38A     -0.545176    39A     -0.534260
      40A     -0.523359    41A     -0.511799    42A     -0.507217
      43A     -0.495921    44A     -0.440541    45A     -0.410884
      46A     -0.375883    47A     -0.344091    48A     -0.337549
      49A     -0.290466

  @DF-RHF Final Energy:  -570.47222113700479

   => Energetics <=

    Nuclear Repulsion Energy =            819.7611157911707096
    One-Electron Energy =               -2399.5009332900772279
    Two-Electron Energy =                1009.2675963619018376
    Total Energy =                       -570.4722211370047944
  Basis Set: (AUG-CC-PVTZ AUX)
    Blend: AUG-CC-PVTZ-RI
    Molecular point group: c1

    Geometry (in Angstrom), charge = 0, multiplicity = 1:

       Center              X                  Y                   Z               Mass
    ------------   -----------------  -----------------  -----------------  -----------------
         N            0.075825291819     0.873021559032     0.403749264720    14.003074004430
         N            2.365170091819     0.969024259032     0.209162264720    14.003074004430
         C           -1.212706908181     0.355550259032     0.124808264720    12.000000000000
         C            1.229960091819     0.257105259032     0.070330264720    12.000000000000
         C            0.126609091819     2.425135259032     0.321533264720    12.000000000000
         C           -1.600459908181    -0.686426740968     0.980634264720    12.000000000000
         C           -2.103348908181     0.808357259032    -0.858460735280    12.000000000000
         C            1.236120091819    -1.110664740968    -0.283787735280    12.000000000000
         C           -2.853872908181    -1.280120740968     0.837242264720    12.000000000000
         C           -3.366559908181     0.226693259032    -0.979159735280    12.000000000000
         C           -3.743696908181    -0.822864740968    -0.138987735280    12.000000000000
         C            2.459144091819    -1.739405740968    -0.464048735280    12.000000000000
         C            3.535260091819     0.330067259032     0.028930264720    12.000000000000
         C            3.644509091819    -1.016305740968    -0.296781735280    12.000000000000
         H            0.877821091819     2.735623259032     1.047871264720     1.007825032230
         H           -0.853403908181     2.799713259032     0.620460264720     1.007825032230
         H            0.402923091819     2.849452259032    -0.651978735280     1.007825032230
         H           -0.916432908181    -1.009046740968     1.762032264720     1.007825032230
         H           -1.799870908181     1.607850259032    -1.530186735280     1.007825032230
         H            0.310068091819    -1.653241740968    -0.435732735280     1.007825032230
         H           -3.146020908181    -2.086359740968     1.506135264720     1.007825032230
         H           -4.052525908181     0.586734259032    -1.742440735280     1.007825032230
         H           -4.725387908181    -1.278492740968    -0.240378735280     1.007825032230
         H            2.486757091819    -2.790531740968    -0.742855735280     1.007825032230
         H            4.424040091819     0.947643259032     0.152593264720     1.007825032230
         H            4.617688091819    -1.478718740968    -0.429835735280     1.007825032230

  Basis Set: AUG-CC-PVTZ
    Blend: AUG-CC-PVTZ
  Basis Set: (AUG-CC-PVTZ AUX)
    Blend: AUG-CC-PVTZ-JKFIT
	 Reference Energy          =    -570.4722211370047944 [Eh]
	 Singles Energy            =      -0.0000000000000000 [Eh]
	 Same-Spin Energy          =      -0.6373467853882218 [Eh]
	 Opposite-Spin Energy      =      -1.9752769968368247 [Eh]
	 Correlation Energy        =      -2.6126237822250467 [Eh]
	 Total Energy              =    -573.0848449192297949 [Eh]

	 ================> DF-SCS-MP2 Energies <==================
	-----------------------------------------------------------
	 SCS Same-Spin Scale       =       0.3333333333333333 [-]
	 SCS Opposite-Spin Scale   =       1.2000000000000000 [-]
	 SCS Same-Spin Energy      =      -0.2124489284627406 [Eh]
	 SCS Opposite-Spin Energy  =      -2.3703323962041893 [Eh]
	 SCS Correlation Energy    =      -2.5827813246669300 [Eh]
	 SCS Total Energy          =    -573.0550024616717337 [Eh]
	-----------------------------------------------------------

  Dipole Moment: [D]
     X:    -1.3296      Y:    -0.7118      Z:    -0.5745     Total:     1.6139

*** Psi4 exiting successfully. Buy a developer a beer!
