                               Psi4 1.3.2 release

  ==> Input File <==

--------------------------------------------------------------------------
#psi4
#
memory 32 gb

molecule  {
0 1
  N        0.0678190     0.9536280     0.3022870
  N        2.2969302     1.0664785     0.2525233
  C       -1.1991060     0.3426720     0.1363540
  C        1.2435610     0.2442270     0.0818760
  C        0.1402100     2.4122570     0.3330790
  C       -1.5868590    -0.6993050     0.9921800
  C       -2.0897480     0.7954790    -0.8469150
  C        1.2497210    -1.1235430    -0.2722420
  C       -2.8402720    -1.2929990     0.8487880
  C       -3.3529590     0.2138150    -0.9676140
  C       -3.7300960    -0.8357430    -0.1274420
  C        2.4727450    -1.7522840    -0.4525030
  C        3.5488610     0.3171890     0.0404760
  C        3.6581100    -1.0291840    -0.2852360
  H        0.8914220     2.7227450     1.0594170
  H       -0.8398030     2.7868350     0.6320060
  H        0.4165240     2.8365740    -0.6404330
  H       -0.9028320    -1.0219250     1.7735780
  H       -1.7862700     1.5949720    -1.5186410
  H        0.3236690    -1.6661200    -0.4241870
  H       -3.1324200    -2.0992380     1.5176810
  H       -4.0389250     0.5738560    -1.7308950
  H       -4.7117870    -1.2913710    -0.2288330
  H        2.5003580    -2.8034100    -0.7313100
  H        4.4376410     0.9347650     0.1641390
  H        4.6312890    -1.4915970    -0.4182900
units angstrom
no_reorient  #important for SAPT in psi4, default
symmetry c1  #important for SAPT in psi4, default
}

set PROPERTIES_ORIGIN ["COM"]
properties('MP2/aug-cc-pvtz', properties = ['dipole'])
--------------------------------------------------------------------------

    Molecular point group: c1
  Charge       = 0
  Multiplicity = 1
  Basis Set: AUG-CC-PVTZ
    Blend: AUG-CC-PVTZ
  Basis Set: (AUG-CC-PVTZ AUX)
    Blend: AUG-CC-PVTZ-JKFIT

    Orbital Energies [Eh]
    ---------------------

    Doubly Occupied:

       1A    -15.574298     2A    -15.560892     3A    -11.316683
       4A    -11.285222     5A    -11.277731     6A    -11.261811
       7A    -11.245879     8A    -11.242560     9A    -11.242392
      10A    -11.237444    11A    -11.236898    12A    -11.236346
      13A    -11.232535    14A    -11.230105    15A     -1.291968
      16A     -1.197685    17A     -1.140499    18A     -1.084156
      19A     -1.024109    20A     -1.017609    21A     -1.003709
      22A     -0.926336    23A     -0.857523    24A     -0.844279
      25A     -0.832057    26A     -0.783094    27A     -0.726963
      28A     -0.693730    29A     -0.665665    30A     -0.657498
      31A     -0.646156    32A     -0.625007    33A     -0.612450
      34A     -0.599150    35A     -0.589696    36A     -0.582531
      37A     -0.568152    38A     -0.535822    39A     -0.526179
      40A     -0.524175    41A     -0.506799    42A     -0.500081
      43A     -0.499391    44A     -0.433222    45A     -0.426218
      46A     -0.370538    47A     -0.343537    48A     -0.338034
      49A     -0.292447

  @DF-RHF Final Energy:  -570.46047033123295

   => Energetics <=

    Nuclear Repulsion Energy =            818.4228605020067562
    One-Electron Energy =               -2396.8721418206650924
    Two-Electron Energy =                1007.9888109874254951
    Total Energy =                       -570.4604703312329548
  Basis Set: (AUG-CC-PVTZ AUX)
    Blend: AUG-CC-PVTZ-RI
    Molecular point group: c1

    Geometry (in Angstrom), charge = 0, multiplicity = 1:

       Center              X                  Y                   Z               Mass
    ------------   -----------------  -----------------  -----------------  -----------------
         N            0.062086585132     0.951003453031     0.296916968619    14.003074004430
         N            2.291197785132     1.063853953031     0.247153268619    14.003074004430
         C           -1.204838414868     0.340047453031     0.130983968619    12.000000000000
         C            1.237828585132     0.241602453031     0.076505968619    12.000000000000
         C            0.134477585132     2.409632453031     0.327708968619    12.000000000000
         C           -1.592591414868    -0.701929546969     0.986809968619    12.000000000000
         C           -2.095480414868     0.792854453031    -0.852285031381    12.000000000000
         C            1.243988585132    -1.126167546969    -0.277612031381    12.000000000000
         C           -2.846004414868    -1.295623546969     0.843417968619    12.000000000000
         C           -3.358691414868     0.211190453031    -0.972984031381    12.000000000000
         C           -3.735828414868    -0.838367546969    -0.132812031381    12.000000000000
         C            2.467012585132    -1.754908546969    -0.457873031381    12.000000000000
         C            3.543128585132     0.314564453031     0.035105968619    12.000000000000
         C            3.652377585132    -1.031808546969    -0.290606031381    12.000000000000
         H            0.885689585132     2.720120453031     1.054046968619     1.007825032230
         H           -0.845535414868     2.784210453031     0.626635968619     1.007825032230
         H            0.410791585132     2.833949453031    -0.645803031381     1.007825032230
         H           -0.908564414868    -1.024549546969     1.768207968619     1.007825032230
         H           -1.792002414868     1.592347453031    -1.524011031381     1.007825032230
         H            0.317936585132    -1.668744546969    -0.429557031381     1.007825032230
         H           -3.138152414868    -2.101862546969     1.512310968619     1.007825032230
         H           -4.044657414868     0.571231453031    -1.736265031381     1.007825032230
         H           -4.717519414868    -1.293995546969    -0.234203031381     1.007825032230
         H            2.494625585132    -2.806034546969    -0.736680031381     1.007825032230
         H            4.431908585132     0.932140453031     0.158768968619     1.007825032230
         H            4.625556585132    -1.494221546969    -0.423660031381     1.007825032230

  Basis Set: AUG-CC-PVTZ
    Blend: AUG-CC-PVTZ
  Basis Set: (AUG-CC-PVTZ AUX)
    Blend: AUG-CC-PVTZ-JKFIT
	 Reference Energy          =    -570.4604703312329548 [Eh]
	 Singles Energy            =      -0.0000000000000000 [Eh]
	 Same-Spin Energy          =      -0.6383369221851807 [Eh]
	 Opposite-Spin Energy      =      -1.9791896527435247 [Eh]
	 Correlation Energy        =      -2.6175265749287053 [Eh]
	 Total Energy              =    -573.0779969061616157 [Eh]

	 ================> DF-SCS-MP2 Energies <==================
	-----------------------------------------------------------
	 SCS Same-Spin Scale       =       0.3333333333333333 [-]
	 SCS Opposite-Spin Scale   =       1.2000000000000000 [-]
	 SCS Same-Spin Energy      =      -0.2127789740617269 [Eh]
	 SCS Opposite-Spin Energy  =      -2.3750275832922294 [Eh]
	 SCS Correlation Energy    =      -2.5878065573539564 [Eh]
	 SCS Total Energy          =    -573.0482768885868836 [Eh]
	-----------------------------------------------------------

  Dipole Moment: [D]
     X:    -0.9669      Y:    -1.1777      Z:    -0.5185     Total:     1.6095

*** Psi4 exiting successfully. Buy a developer a beer!
