                               Psi4 1.3.2 release

  ==> Input File <==

--------------------------------------------------------------------------
#psi4
#
memory 32 gb

molecule  {
0 1
  N        0.0315017     0.9570735     0.2666658
  N        2.3787710     0.9561460     0.2207080
  C       -1.1991060     0.3426720     0.1363540
  C        1.2435610     0.2442270     0.0818760
  C        0.1402100     2.4122570     0.3330790
  C       -1.5868590    -0.6993050     0.9921800
  C       -2.0897480     0.7954790    -0.8469150
  C        1.2497210    -1.1235430    -0.2722420
  C       -2.8402720    -1.2929990     0.8487880
  C       -3.3529590     0.2138150    -0.9676140
  C       -3.7300960    -0.8357430    -0.1274420
  C        2.4727450    -1.7522840    -0.4525030
  C        3.5488610     0.3171890     0.0404760
  C        3.6581100    -1.0291840    -0.2852360
  H        0.8914220     2.7227450     1.0594170
  H       -0.8398030     2.7868350     0.6320060
  H        0.4165240     2.8365740    -0.6404330
  H       -0.9028320    -1.0219250     1.7735780
  H       -1.7862700     1.5949720    -1.5186410
  H        0.3236690    -1.6661200    -0.4241870
  H       -3.1324200    -2.0992380     1.5176810
  H       -4.0389250     0.5738560    -1.7308950
  H       -4.7117870    -1.2913710    -0.2288330
  H        2.5003580    -2.8034100    -0.7313100
  H        4.4376410     0.9347650     0.1641390
  H        4.6312890    -1.4915970    -0.4182900
units angstrom
no_reorient  #important for SAPT in psi4, default
symmetry c1  #important for SAPT in psi4, default
}

set PROPERTIES_ORIGIN ["COM"]
properties('MP2/aug-cc-pvtz', properties = ['dipole'])
--------------------------------------------------------------------------

    Molecular point group: c1
  Charge       = 0
  Multiplicity = 1
  Basis Set: AUG-CC-PVTZ
    Blend: AUG-CC-PVTZ
  Basis Set: (AUG-CC-PVTZ AUX)
    Blend: AUG-CC-PVTZ-JKFIT

    Orbital Energies [Eh]
    ---------------------

    Doubly Occupied:

       1A    -15.577008     2A    -15.552403     3A    -11.320086
       4A    -11.276984     5A    -11.274219     6A    -11.256247
       7A    -11.249624     8A    -11.242268     9A    -11.241870
      10A    -11.236236    11A    -11.236031    12A    -11.235921
      13A    -11.229463    14A    -11.225350    15A     -1.293702
      16A     -1.225017    17A     -1.141372    18A     -1.080782
      19A     -1.029129    20A     -1.019232    21A     -1.004289
      22A     -0.925902    23A     -0.860589    24A     -0.846091
      25A     -0.832341    26A     -0.791214    27A     -0.730673
      28A     -0.692904    29A     -0.669415    30A     -0.658932
      31A     -0.648338    32A     -0.629423    33A     -0.615874
      34A     -0.601628    35A     -0.590863    36A     -0.583074
      37A     -0.571924    38A     -0.536740    39A     -0.536391
      40A     -0.528120    41A     -0.511390    42A     -0.505111
      43A     -0.499529    44A     -0.426810    45A     -0.415629
      46A     -0.378797    47A     -0.343102    48A     -0.338453
      49A     -0.288117

  @DF-RHF Final Energy:  -570.48179900292030

   => Energetics <=

    Nuclear Repulsion Energy =            819.9148423640527881
    One-Electron Energy =               -2399.7840673343666822
    Two-Electron Energy =                1009.3874259673937104
    Total Energy =                       -570.4817990029202974
  Basis Set: (AUG-CC-PVTZ AUX)
    Blend: AUG-CC-PVTZ-RI
    Molecular point group: c1

    Geometry (in Angstrom), charge = 0, multiplicity = 1:

       Center              X                  Y                   Z               Mass
    ------------   -----------------  -----------------  -----------------  -----------------
         N            0.022306662797     0.962579024610     0.266425144240    14.003074004430
         N            2.369575962797     0.961651524610     0.220467344240    14.003074004430
         C           -1.208301037203     0.348177524610     0.136113344240    12.000000000000
         C            1.234365962797     0.249732524610     0.081635344240    12.000000000000
         C            0.131014962797     2.417762524610     0.332838344240    12.000000000000
         C           -1.596054037203    -0.693799475390     0.991939344240    12.000000000000
         C           -2.098943037203     0.800984524610    -0.847155655760    12.000000000000
         C            1.240525962797    -1.118037475390    -0.272482655760    12.000000000000
         C           -2.849467037203    -1.287493475390     0.848547344240    12.000000000000
         C           -3.362154037203     0.219320524610    -0.967854655760    12.000000000000
         C           -3.739291037203    -0.830237475390    -0.127682655760    12.000000000000
         C            2.463549962797    -1.746778475390    -0.452743655760    12.000000000000
         C            3.539665962797     0.322694524610     0.040235344240    12.000000000000
         C            3.648914962797    -1.023678475390    -0.285476655760    12.000000000000
         H            0.882226962797     2.728250524610     1.059176344240     1.007825032230
         H           -0.848998037203     2.792340524610     0.631765344240     1.007825032230
         H            0.407328962797     2.842079524610    -0.640673655760     1.007825032230
         H           -0.912027037203    -1.016419475390     1.773337344240     1.007825032230
         H           -1.795465037203     1.600477524610    -1.518881655760     1.007825032230
         H            0.314473962797    -1.660614475390    -0.424427655760     1.007825032230
         H           -3.141615037203    -2.093732475390     1.517440344240     1.007825032230
         H           -4.048120037203     0.579361524610    -1.731135655760     1.007825032230
         H           -4.720982037203    -1.285865475390    -0.229073655760     1.007825032230
         H            2.491162962797    -2.797904475390    -0.731550655760     1.007825032230
         H            4.428445962797     0.940270524610     0.163898344240     1.007825032230
         H            4.622093962797    -1.486091475390    -0.418530655760     1.007825032230

  Basis Set: AUG-CC-PVTZ
    Blend: AUG-CC-PVTZ
  Basis Set: (AUG-CC-PVTZ AUX)
    Blend: AUG-CC-PVTZ-JKFIT
	 Reference Energy          =    -570.4817990029202974 [Eh]
	 Singles Energy            =      -0.0000000000000000 [Eh]
	 Same-Spin Energy          =      -0.6374939598521132 [Eh]
	 Opposite-Spin Energy      =      -1.9742873676125869 [Eh]
	 Correlation Energy        =      -2.6117813274647004 [Eh]
	 Total Energy              =    -573.0935803303849525 [Eh]

	 ================> DF-SCS-MP2 Energies <==================
	-----------------------------------------------------------
	 SCS Same-Spin Scale       =       0.3333333333333333 [-]
	 SCS Opposite-Spin Scale   =       1.2000000000000000 [-]
	 SCS Same-Spin Energy      =      -0.2124979866173711 [Eh]
	 SCS Opposite-Spin Energy  =      -2.3691448411351042 [Eh]
	 SCS Correlation Energy    =      -2.5816428277524750 [Eh]
	 SCS Total Energy          =    -573.0634418306727866 [Eh]
	-----------------------------------------------------------

  Dipole Moment: [D]
     X:    -0.9110      Y:    -0.9303      Z:    -0.4088     Total:     1.3647

*** Psi4 exiting successfully. Buy a developer a beer!
