                               Psi4 1.3.2 release

  ==> Input File <==

--------------------------------------------------------------------------
#psi4
#
memory 32 gb

molecule  {
0 1
  N        0.0426641     0.9131630     0.2929953
  N        2.3787710     0.9561460     0.2207080
  C       -1.1991060     0.3426720     0.1363540
  C        1.2435610     0.2442270     0.0818760
  C        0.1402100     2.4122570     0.3330790
  C       -1.5868590    -0.6993050     0.9921800
  C       -2.0897480     0.7954790    -0.8469150
  C        1.2497210    -1.1235430    -0.2722420
  C       -2.8402720    -1.2929990     0.8487880
  C       -3.3529590     0.2138150    -0.9676140
  C       -3.7300960    -0.8357430    -0.1274420
  C        2.4727450    -1.7522840    -0.4525030
  C        3.5488610     0.3171890     0.0404760
  C        3.6581100    -1.0291840    -0.2852360
  H        0.8914220     2.7227450     1.0594170
  H       -0.8398030     2.7868350     0.6320060
  H        0.4165240     2.8365740    -0.6404330
  H       -0.9028320    -1.0219250     1.7735780
  H       -1.7862700     1.5949720    -1.5186410
  H        0.3236690    -1.6661200    -0.4241870
  H       -3.1324200    -2.0992380     1.5176810
  H       -4.0389250     0.5738560    -1.7308950
  H       -4.7117870    -1.2913710    -0.2288330
  H        2.5003580    -2.8034100    -0.7313100
  H        4.4376410     0.9347650     0.1641390
  H        4.6312890    -1.4915970    -0.4182900
units angstrom
no_reorient  #important for SAPT in psi4, default
symmetry c1  #important for SAPT in psi4, default
}

set PROPERTIES_ORIGIN ["COM"]
properties('MP2/aug-cc-pvtz', properties = ['dipole'])
--------------------------------------------------------------------------

    Molecular point group: c1
  Charge       = 0
  Multiplicity = 1
  Basis Set: AUG-CC-PVTZ
    Blend: AUG-CC-PVTZ
  Basis Set: (AUG-CC-PVTZ AUX)
    Blend: AUG-CC-PVTZ-JKFIT

    Orbital Energies [Eh]
    ---------------------

    Doubly Occupied:

       1A    -15.579279     2A    -15.550357     3A    -11.318282
       4A    -11.277352     5A    -11.273238     6A    -11.254727
       7A    -11.254099     8A    -11.242708     9A    -11.242109
      10A    -11.237453    11A    -11.236586    12A    -11.235441
      13A    -11.226752    14A    -11.223105    15A     -1.296368
      16A     -1.223854    17A     -1.141508    18A     -1.079293
      19A     -1.029768    20A     -1.019791    21A     -1.000391
      22A     -0.928552    23A     -0.861968    24A     -0.845784
      25A     -0.833231    26A     -0.791227    27A     -0.732686
      28A     -0.691689    29A     -0.669222    30A     -0.659644
      31A     -0.648717    32A     -0.627248    33A     -0.614449
      34A     -0.601713    35A     -0.589585    36A     -0.580426
      37A     -0.569929    38A     -0.539572    39A     -0.536164
      40A     -0.527248    41A     -0.512884    42A     -0.506163
      43A     -0.498829    44A     -0.431917    45A     -0.413897
      46A     -0.377771    47A     -0.343071    48A     -0.338082
      49A     -0.287181

  @DF-RHF Final Energy:  -570.48114975100873

   => Energetics <=

    Nuclear Repulsion Energy =            820.1834207963395329
    One-Electron Energy =               -2400.3265165755537964
    Two-Electron Energy =                1009.6619460282055343
    Total Energy =                       -570.4811497510087293
  Basis Set: (AUG-CC-PVTZ AUX)
    Blend: AUG-CC-PVTZ-RI
    Molecular point group: c1

    Geometry (in Angstrom), charge = 0, multiplicity = 1:

       Center              X                  Y                   Z               Mass
    ------------   -----------------  -----------------  -----------------  -----------------
         N            0.032620024925     0.922008458447     0.290751961785    14.003074004430
         N            2.368726924925     0.964991458447     0.218464661785    14.003074004430
         C           -1.209150075075     0.351517458447     0.134110661785    12.000000000000
         C            1.233516924925     0.253072458447     0.079632661785    12.000000000000
         C            0.130165924925     2.421102458447     0.330835661785    12.000000000000
         C           -1.596903075075    -0.690459541553     0.989936661785    12.000000000000
         C           -2.099792075075     0.804324458447    -0.849158338215    12.000000000000
         C            1.239676924925    -1.114697541553    -0.274485338215    12.000000000000
         C           -2.850316075075    -1.284153541553     0.846544661785    12.000000000000
         C           -3.363003075075     0.222660458447    -0.969857338215    12.000000000000
         C           -3.740140075075    -0.826897541553    -0.129685338215    12.000000000000
         C            2.462700924925    -1.743438541553    -0.454746338215    12.000000000000
         C            3.538816924925     0.326034458447     0.038232661785    12.000000000000
         C            3.648065924925    -1.020338541553    -0.287479338215    12.000000000000
         H            0.881377924925     2.731590458447     1.057173661785     1.007825032230
         H           -0.849847075075     2.795680458447     0.629762661785     1.007825032230
         H            0.406479924925     2.845419458447    -0.642676338215     1.007825032230
         H           -0.912876075075    -1.013079541553     1.771334661785     1.007825032230
         H           -1.796314075075     1.603817458447    -1.520884338215     1.007825032230
         H            0.313624924925    -1.657274541553    -0.426430338215     1.007825032230
         H           -3.142464075075    -2.090392541553     1.515437661785     1.007825032230
         H           -4.048969075075     0.582701458447    -1.733138338215     1.007825032230
         H           -4.721831075075    -1.282525541553    -0.231076338215     1.007825032230
         H            2.490313924925    -2.794564541553    -0.733553338215     1.007825032230
         H            4.427596924925     0.943610458447     0.161895661785     1.007825032230
         H            4.621244924925    -1.482751541553    -0.420533338215     1.007825032230

  Basis Set: AUG-CC-PVTZ
    Blend: AUG-CC-PVTZ
  Basis Set: (AUG-CC-PVTZ AUX)
    Blend: AUG-CC-PVTZ-JKFIT
	 Reference Energy          =    -570.4811497510087293 [Eh]
	 Singles Energy            =      -0.0000000000000000 [Eh]
	 Same-Spin Energy          =      -0.6374074170566799 [Eh]
	 Opposite-Spin Energy      =      -1.9743900284817659 [Eh]
	 Correlation Energy        =      -2.6117974455384458 [Eh]
	 Total Energy              =    -573.0929471965471294 [Eh]

	 ================> DF-SCS-MP2 Energies <==================
	-----------------------------------------------------------
	 SCS Same-Spin Scale       =       0.3333333333333333 [-]
	 SCS Opposite-Spin Scale   =       1.2000000000000000 [-]
	 SCS Same-Spin Energy      =      -0.2124691390188933 [Eh]
	 SCS Opposite-Spin Energy  =      -2.3692680341781189 [Eh]
	 SCS Correlation Energy    =      -2.5817371731970122 [Eh]
	 SCS Total Energy          =    -573.0628869242057135 [Eh]
	-----------------------------------------------------------

  Dipole Moment: [D]
     X:    -1.0573      Y:    -0.7853      Z:    -0.4277     Total:     1.3847

*** Psi4 exiting successfully. Buy a developer a beer!
