                               Psi4 1.3.2 release

  ==> Input File <==

--------------------------------------------------------------------------
#psi4
#
memory 32 gb

molecule  {
0 1
  N        0.0678190     0.9536280     0.3022870
  N        2.3787710     0.9561460     0.2207080
  C       -1.1991060     0.3426720     0.1363540
  C        1.2435610     0.2442270     0.0818760
  C        0.1402100     2.4122570     0.3330790
  C       -1.5868590    -0.6993050     0.9921800
  C       -2.0897480     0.7954790    -0.8469150
  C        1.2497210    -1.1235430    -0.2722420
  C       -2.8402720    -1.2929990     0.8487880
  C       -3.3529590     0.2138150    -0.9676140
  C       -3.7300960    -0.8357430    -0.1274420
  C        2.4727450    -1.7522840    -0.4525030
  C        3.3749101     0.4121793     0.0672701
  C        3.6581100    -1.0291840    -0.2852360
  H        0.8914220     2.7227450     1.0594170
  H       -0.8398030     2.7868350     0.6320060
  H        0.4165240     2.8365740    -0.6404330
  H       -0.9028320    -1.0219250     1.7735780
  H       -1.7862700     1.5949720    -1.5186410
  H        0.3236690    -1.6661200    -0.4241870
  H       -3.1324200    -2.0992380     1.5176810
  H       -4.0389250     0.5738560    -1.7308950
  H       -4.7117870    -1.2913710    -0.2288330
  H        2.5003580    -2.8034100    -0.7313100
  H        4.4376410     0.9347650     0.1641390
  H        4.6312890    -1.4915970    -0.4182900
units angstrom
no_reorient  #important for SAPT in psi4, default
symmetry c1  #important for SAPT in psi4, default
}

set PROPERTIES_ORIGIN ["COM"]
properties('MP2/aug-cc-pvtz', properties = ['dipole'])
--------------------------------------------------------------------------

    Molecular point group: c1
  Charge       = 0
  Multiplicity = 1
  Basis Set: AUG-CC-PVTZ
    Blend: AUG-CC-PVTZ
  Basis Set: (AUG-CC-PVTZ AUX)
    Blend: AUG-CC-PVTZ-JKFIT

    Orbital Energies [Eh]
    ---------------------

    Doubly Occupied:

       1A    -15.583245     2A    -15.545034     3A    -11.322869
       4A    -11.281619     5A    -11.274053     6A    -11.254439
       7A    -11.247922     8A    -11.244553     9A    -11.244061
      10A    -11.240776    11A    -11.239283    12A    -11.238954
      13A    -11.224849    14A    -11.219987    15A     -1.337161
      16A     -1.259577    17A     -1.147022    18A     -1.085518
      19A     -1.026394    20A     -1.022177    21A     -0.998404
      22A     -0.921686    23A     -0.877803    24A     -0.836805
      25A     -0.823269    26A     -0.800550    27A     -0.731596
      28A     -0.694730    29A     -0.677797    30A     -0.656722
      31A     -0.651334    32A     -0.633326    33A     -0.607653
      34A     -0.606021    35A     -0.591747    36A     -0.580514
      37A     -0.573943    38A     -0.560473    39A     -0.543504
      40A     -0.533089    41A     -0.514775    42A     -0.507737
      43A     -0.501639    44A     -0.435861    45A     -0.401272
      46A     -0.387801    47A     -0.344394    48A     -0.337339
      49A     -0.275770

  @DF-RHF Final Energy:  -570.42663132764835

   => Energetics <=

    Nuclear Repulsion Energy =            823.3529723514789112
    One-Electron Energy =               -2406.2651143297684939
    Two-Electron Energy =                1012.4855106506412312
    Total Energy =                       -570.4266313276483515
  Basis Set: (AUG-CC-PVTZ AUX)
    Blend: AUG-CC-PVTZ-RI
    Molecular point group: c1

    Geometry (in Angstrom), charge = 0, multiplicity = 1:

       Center              X                  Y                   Z               Mass
    ------------   -----------------  -----------------  -----------------  -----------------
         N            0.067200043978     0.953203944373     0.297590422002    14.003074004430
         N            2.378152043978     0.955721944373     0.216011422002    14.003074004430
         C           -1.199724956022     0.342247944373     0.131657422002    12.000000000000
         C            1.242942043978     0.243802944373     0.077179422002    12.000000000000
         C            0.139591043978     2.411832944373     0.328382422002    12.000000000000
         C           -1.587477956022    -0.699729055627     0.987483422002    12.000000000000
         C           -2.090366956022     0.795054944373    -0.851611577998    12.000000000000
         C            1.249102043978    -1.123967055627    -0.276938577998    12.000000000000
         C           -2.840890956022    -1.293423055627     0.844091422002    12.000000000000
         C           -3.353577956022     0.213390944373    -0.972310577998    12.000000000000
         C           -3.730714956022    -0.836167055627    -0.132138577998    12.000000000000
         C            2.472126043978    -1.752708055627    -0.457199577998    12.000000000000
         C            3.374291143978     0.411755244373     0.062573522002    12.000000000000
         C            3.657491043978    -1.029608055627    -0.289932577998    12.000000000000
         H            0.890803043978     2.722320944373     1.054720422002     1.007825032230
         H           -0.840421956022     2.786410944373     0.627309422002     1.007825032230
         H            0.415905043978     2.836149944373    -0.645129577998     1.007825032230
         H           -0.903450956022    -1.022349055627     1.768881422002     1.007825032230
         H           -1.786888956022     1.594547944373    -1.523337577998     1.007825032230
         H            0.323050043978    -1.666544055627    -0.428883577998     1.007825032230
         H           -3.133038956022    -2.099662055627     1.512984422002     1.007825032230
         H           -4.039543956022     0.573431944373    -1.735591577998     1.007825032230
         H           -4.712405956022    -1.291795055627    -0.233529577998     1.007825032230
         H            2.499739043978    -2.803834055627    -0.736006577998     1.007825032230
         H            4.437022043978     0.934340944373     0.159442422002     1.007825032230
         H            4.630670043978    -1.492021055627    -0.422986577998     1.007825032230

  Basis Set: AUG-CC-PVTZ
    Blend: AUG-CC-PVTZ
  Basis Set: (AUG-CC-PVTZ AUX)
    Blend: AUG-CC-PVTZ-JKFIT
	 Reference Energy          =    -570.4266313276483515 [Eh]
	 Singles Energy            =      -0.0000000000000000 [Eh]
	 Same-Spin Energy          =      -0.6356907381956526 [Eh]
	 Opposite-Spin Energy      =      -1.9721496649283863 [Eh]
	 Correlation Energy        =      -2.6078404031240390 [Eh]
	 Total Energy              =    -573.0344717307723386 [Eh]

	 ================> DF-SCS-MP2 Energies <==================
	-----------------------------------------------------------
	 SCS Same-Spin Scale       =       0.3333333333333333 [-]
	 SCS Opposite-Spin Scale   =       1.2000000000000000 [-]
	 SCS Same-Spin Energy      =      -0.2118969127318842 [Eh]
	 SCS Opposite-Spin Energy  =      -2.3665795979140634 [Eh]
	 SCS Correlation Energy    =      -2.5784765106459475 [Eh]
	 SCS Total Energy          =    -573.0051078382942933 [Eh]
	-----------------------------------------------------------

  Dipole Moment: [D]
     X:    -1.5553      Y:    -0.5585      Z:    -0.3343     Total:     1.6860

*** Psi4 exiting successfully. Buy a developer a beer!
