                               Psi4 1.3.2 release

  ==> Input File <==

--------------------------------------------------------------------------
#psi4
#
memory 32 gb

molecule  {
0 1
  N        0.1406739     0.9520703     0.3735985
  N        2.3787710     0.9561460     0.2207080
  C       -1.1991060     0.3426720     0.1363540
  C        1.2435610     0.2442270     0.0818760
  C        0.1402100     2.4122570     0.3330790
  C       -1.5868590    -0.6993050     0.9921800
  C       -2.0897480     0.7954790    -0.8469150
  C        1.2497210    -1.1235430    -0.2722420
  C       -2.8402720    -1.2929990     0.8487880
  C       -3.3529590     0.2138150    -0.9676140
  C       -3.7300960    -0.8357430    -0.1274420
  C        2.4727450    -1.7522840    -0.4525030
  C        3.5488610     0.3171890     0.0404760
  C        3.6581100    -1.0291840    -0.2852360
  H        0.8914220     2.7227450     1.0594170
  H       -0.8398030     2.7868350     0.6320060
  H        0.4165240     2.8365740    -0.6404330
  H       -0.9028320    -1.0219250     1.7735780
  H       -1.7862700     1.5949720    -1.5186410
  H        0.3236690    -1.6661200    -0.4241870
  H       -3.1324200    -2.0992380     1.5176810
  H       -4.0389250     0.5738560    -1.7308950
  H       -4.7117870    -1.2913710    -0.2288330
  H        2.5003580    -2.8034100    -0.7313100
  H        4.4376410     0.9347650     0.1641390
  H        4.6312890    -1.4915970    -0.4182900
units angstrom
no_reorient  #important for SAPT in psi4, default
symmetry c1  #important for SAPT in psi4, default
}

set PROPERTIES_ORIGIN ["COM"]
properties('MP2/aug-cc-pvtz', properties = ['dipole'])
--------------------------------------------------------------------------

    Molecular point group: c1
  Charge       = 0
  Multiplicity = 1
  Basis Set: AUG-CC-PVTZ
    Blend: AUG-CC-PVTZ
  Basis Set: (AUG-CC-PVTZ AUX)
    Blend: AUG-CC-PVTZ-JKFIT

    Orbital Energies [Eh]
    ---------------------

    Doubly Occupied:

       1A    -15.583224     2A    -15.542933     3A    -11.311438
       4A    -11.285832     5A    -11.269672     6A    -11.253237
       7A    -11.250282     8A    -11.246927     9A    -11.245364
      10A    -11.245039    11A    -11.241704    12A    -11.240862
      13A    -11.224407    14A    -11.218558    15A     -1.298909
      16A     -1.212059    17A     -1.148504    18A     -1.076516
      19A     -1.027916    20A     -1.022237    21A     -1.005892
      22A     -0.929262    23A     -0.859668    24A     -0.837807
      25A     -0.834295    26A     -0.792822    27A     -0.728330
      28A     -0.694712    29A     -0.669611    30A     -0.656046
      31A     -0.647370    32A     -0.629646    33A     -0.613161
      34A     -0.604933    35A     -0.592359    36A     -0.586564
      37A     -0.562142    38A     -0.543124    39A     -0.533815
      40A     -0.525695    41A     -0.510706    42A     -0.505436
      43A     -0.498732    44A     -0.435312    45A     -0.410080
      46A     -0.374872    47A     -0.346111    48A     -0.341209
      49A     -0.288778

  @DF-RHF Final Energy:  -570.47677934880107

   => Energetics <=

    Nuclear Repulsion Energy =            819.3934102056233542
    One-Electron Energy =               -2398.7321641297139649
    Two-Electron Energy =                1008.8619745752896506
    Total Energy =                       -570.4767793488010739
  Basis Set: (AUG-CC-PVTZ AUX)
    Blend: AUG-CC-PVTZ-RI
    Molecular point group: c1

    Geometry (in Angstrom), charge = 0, multiplicity = 1:

       Center              X                  Y                   Z               Mass
    ------------   -----------------  -----------------  -----------------  -----------------
         N            0.123174973639     0.957956379534     0.365224296614    14.003074004430
         N            2.361272073639     0.962032079534     0.212333796614    14.003074004430
         C           -1.216604926361     0.348558079534     0.127979796614    12.000000000000
         C            1.226062073639     0.250113079534     0.073501796614    12.000000000000
         C            0.122711073639     2.418143079534     0.324704796614    12.000000000000
         C           -1.604357926361    -0.693418920466     0.983805796614    12.000000000000
         C           -2.107246926361     0.801365079534    -0.855289203386    12.000000000000
         C            1.232222073639    -1.117656920466    -0.280616203386    12.000000000000
         C           -2.857770926361    -1.287112920466     0.840413796614    12.000000000000
         C           -3.370457926361     0.219701079534    -0.975988203386    12.000000000000
         C           -3.747594926361    -0.829856920466    -0.135816203386    12.000000000000
         C            2.455246073639    -1.746397920466    -0.460877203386    12.000000000000
         C            3.531362073639     0.323075079534     0.032101796614    12.000000000000
         C            3.640611073639    -1.023297920466    -0.293610203386    12.000000000000
         H            0.873923073639     2.728631079534     1.051042796614     1.007825032230
         H           -0.857301926361     2.792721079534     0.623631796614     1.007825032230
         H            0.399025073639     2.842460079534    -0.648807203386     1.007825032230
         H           -0.920330926361    -1.016038920466     1.765203796614     1.007825032230
         H           -1.803768926361     1.600858079534    -1.527015203386     1.007825032230
         H            0.306170073639    -1.660233920466    -0.432561203386     1.007825032230
         H           -3.149918926361    -2.093351920466     1.509306796614     1.007825032230
         H           -4.056423926361     0.579742079534    -1.739269203386     1.007825032230
         H           -4.729285926361    -1.285484920466    -0.237207203386     1.007825032230
         H            2.482859073639    -2.797523920466    -0.739684203386     1.007825032230
         H            4.420142073639     0.940651079534     0.155764796614     1.007825032230
         H            4.613790073639    -1.485710920466    -0.426664203386     1.007825032230

  Basis Set: AUG-CC-PVTZ
    Blend: AUG-CC-PVTZ
  Basis Set: (AUG-CC-PVTZ AUX)
    Blend: AUG-CC-PVTZ-JKFIT
	 Reference Energy          =    -570.4767793488010739 [Eh]
	 Singles Energy            =      -0.0000000000000000 [Eh]
	 Same-Spin Energy          =      -0.6368418292669639 [Eh]
	 Opposite-Spin Energy      =      -1.9742615037805600 [Eh]
	 Correlation Energy        =      -2.6111033330475237 [Eh]
	 Total Energy              =    -573.0878826818485550 [Eh]

	 ================> DF-SCS-MP2 Energies <==================
	-----------------------------------------------------------
	 SCS Same-Spin Scale       =       0.3333333333333333 [-]
	 SCS Opposite-Spin Scale   =       1.2000000000000000 [-]
	 SCS Same-Spin Energy      =      -0.2122806097556546 [Eh]
	 SCS Opposite-Spin Energy  =      -2.3691138045366720 [Eh]
	 SCS Correlation Energy    =      -2.5813944142923266 [Eh]
	 SCS Total Energy          =    -573.0581737630933503 [Eh]
	-----------------------------------------------------------

  Dipole Moment: [D]
     X:    -1.6650      Y:    -0.8490      Z:    -0.5017     Total:     1.9352

*** Psi4 exiting successfully. Buy a developer a beer!
