                               Psi4 1.3.2 release

  ==> Input File <==

--------------------------------------------------------------------------
#psi4
#
memory 32 gb

molecule  {
0 1
  N        0.0678190     0.9536280     0.3022870
  N        2.3787710     0.9561460     0.2207080
  C       -1.2401707     0.4288427     0.1620608
  C        1.2435610     0.2442270     0.0818760
  C        0.1402100     2.4122570     0.3330790
  C       -1.5868590    -0.6993050     0.9921800
  C       -2.0897480     0.7954790    -0.8469150
  C        1.2497210    -1.1235430    -0.2722420
  C       -2.8402720    -1.2929990     0.8487880
  C       -3.3529590     0.2138150    -0.9676140
  C       -3.7300960    -0.8357430    -0.1274420
  C        2.4727450    -1.7522840    -0.4525030
  C        3.5488610     0.3171890     0.0404760
  C        3.6581100    -1.0291840    -0.2852360
  H        0.8914220     2.7227450     1.0594170
  H       -0.8398030     2.7868350     0.6320060
  H        0.4165240     2.8365740    -0.6404330
  H       -0.9028320    -1.0219250     1.7735780
  H       -1.7862700     1.5949720    -1.5186410
  H        0.3236690    -1.6661200    -0.4241870
  H       -3.1324200    -2.0992380     1.5176810
  H       -4.0389250     0.5738560    -1.7308950
  H       -4.7117870    -1.2913710    -0.2288330
  H        2.5003580    -2.8034100    -0.7313100
  H        4.4376410     0.9347650     0.1641390
  H        4.6312890    -1.4915970    -0.4182900
units angstrom
no_reorient  #important for SAPT in psi4, default
symmetry c1  #important for SAPT in psi4, default
}

set PROPERTIES_ORIGIN ["COM"]
properties('MP2/aug-cc-pvtz', properties = ['dipole'])
--------------------------------------------------------------------------

    Molecular point group: c1
  Charge       = 0
  Multiplicity = 1
  Basis Set: AUG-CC-PVTZ
    Blend: AUG-CC-PVTZ
  Basis Set: (AUG-CC-PVTZ AUX)
    Blend: AUG-CC-PVTZ-JKFIT

    Orbital Energies [Eh]
    ---------------------

    Doubly Occupied:

       1A    -15.578615     2A    -15.549684     3A    -11.319168
       4A    -11.281194     5A    -11.272964     6A    -11.255291
       7A    -11.247303     8A    -11.244046     9A    -11.243251
      10A    -11.241684    11A    -11.238846    12A    -11.236467
      13A    -11.228002    14A    -11.223143    15A     -1.294396
      16A     -1.220976    17A     -1.143928    18A     -1.079342
      19A     -1.032238    20A     -1.017591    21A     -1.004372
      22A     -0.925158    23A     -0.861437    24A     -0.844590
      25A     -0.832639    26A     -0.791406    27A     -0.732405
      28A     -0.693106    29A     -0.668960    30A     -0.658963
      31A     -0.647992    32A     -0.628961    33A     -0.614272
      34A     -0.604961    35A     -0.588620    36A     -0.583240
      37A     -0.567212    38A     -0.538996    39A     -0.535277
      40A     -0.528286    41A     -0.513661    42A     -0.506015
      43A     -0.495958    44A     -0.429449    45A     -0.413917
      46A     -0.377790    47A     -0.344911    48A     -0.338855
      49A     -0.288313

  @DF-RHF Final Energy:  -570.47838013151818

   => Energetics <=

    Nuclear Repulsion Energy =            819.3114176371390158
    One-Electron Energy =               -2398.5638861609400010
    Two-Electron Energy =                1008.7740883922826924
    Total Energy =                       -570.4783801315181790
  Basis Set: (AUG-CC-PVTZ AUX)
    Blend: AUG-CC-PVTZ-RI
    Molecular point group: c1

    Geometry (in Angstrom), charge = 0, multiplicity = 1:

       Center              X                  Y                   Z               Mass
    ------------   -----------------  -----------------  -----------------  -----------------
         N            0.058538262441     0.953778823093     0.297661294335    14.003074004430
         N            2.369490262441     0.956296823093     0.216082294335    14.003074004430
         C           -1.249451437559     0.428993523093     0.157435094335    12.000000000000
         C            1.234280262441     0.244377823093     0.077250294335    12.000000000000
         C            0.130929262441     2.412407823093     0.328453294335    12.000000000000
         C           -1.596139737559    -0.699154176907     0.987554294335    12.000000000000
         C           -2.099028737559     0.795629823093    -0.851540705665    12.000000000000
         C            1.240440262441    -1.123392176907    -0.276867705665    12.000000000000
         C           -2.849552737559    -1.292848176907     0.844162294335    12.000000000000
         C           -3.362239737559     0.213965823093    -0.972239705665    12.000000000000
         C           -3.739376737559    -0.835592176907    -0.132067705665    12.000000000000
         C            2.463464262441    -1.752133176907    -0.457128705665    12.000000000000
         C            3.539580262441     0.317339823093     0.035850294335    12.000000000000
         C            3.648829262441    -1.029033176907    -0.289861705665    12.000000000000
         H            0.882141262441     2.722895823093     1.054791294335     1.007825032230
         H           -0.849083737559     2.786985823093     0.627380294335     1.007825032230
         H            0.407243262441     2.836724823093    -0.645058705665     1.007825032230
         H           -0.912112737559    -1.021774176907     1.768952294335     1.007825032230
         H           -1.795550737559     1.595122823093    -1.523266705665     1.007825032230
         H            0.314388262441    -1.665969176907    -0.428812705665     1.007825032230
         H           -3.141700737559    -2.099087176907     1.513055294335     1.007825032230
         H           -4.048205737559     0.574006823093    -1.735520705665     1.007825032230
         H           -4.721067737559    -1.291220176907    -0.233458705665     1.007825032230
         H            2.491077262441    -2.803259176907    -0.735935705665     1.007825032230
         H            4.428360262441     0.934915823093     0.159513294335     1.007825032230
         H            4.622008262441    -1.491446176907    -0.422915705665     1.007825032230

  Basis Set: AUG-CC-PVTZ
    Blend: AUG-CC-PVTZ
  Basis Set: (AUG-CC-PVTZ AUX)
    Blend: AUG-CC-PVTZ-JKFIT
	 Reference Energy          =    -570.4783801315181790 [Eh]
	 Singles Energy            =      -0.0000000000000000 [Eh]
	 Same-Spin Energy          =      -0.6371293734441498 [Eh]
	 Opposite-Spin Energy      =      -1.9744884590076086 [Eh]
	 Correlation Energy        =      -2.6116178324517585 [Eh]
	 Total Energy              =    -573.0899979639699495 [Eh]

	 ================> DF-SCS-MP2 Energies <==================
	-----------------------------------------------------------
	 SCS Same-Spin Scale       =       0.3333333333333333 [-]
	 SCS Opposite-Spin Scale   =       1.2000000000000000 [-]
	 SCS Same-Spin Energy      =      -0.2123764578147166 [Eh]
	 SCS Opposite-Spin Energy  =      -2.3693861508091301 [Eh]
	 SCS Correlation Energy    =      -2.5817626086238468 [Eh]
	 SCS Total Energy          =    -573.0601427401420551 [Eh]
	-----------------------------------------------------------

  Dipole Moment: [D]
     X:    -1.2001      Y:    -0.9498      Z:    -0.4625     Total:     1.5988

*** Psi4 exiting successfully. Buy a developer a beer!
