                               Psi4 1.3.2 release

  ==> Input File <==

--------------------------------------------------------------------------
#psi4
#
memory 32 gb

molecule  {
0 1
  N        0.0678190     0.9536280     0.3022870
  N        2.3787710     0.9561460     0.2207080
  C       -1.1518690     0.2594778     0.1114556
  C        1.2435610     0.2442270     0.0818760
  C        0.1402100     2.4122570     0.3330790
  C       -1.5868590    -0.6993050     0.9921800
  C       -2.0897480     0.7954790    -0.8469150
  C        1.2497210    -1.1235430    -0.2722420
  C       -2.8402720    -1.2929990     0.8487880
  C       -3.3529590     0.2138150    -0.9676140
  C       -3.7300960    -0.8357430    -0.1274420
  C        2.4727450    -1.7522840    -0.4525030
  C        3.5488610     0.3171890     0.0404760
  C        3.6581100    -1.0291840    -0.2852360
  H        0.8914220     2.7227450     1.0594170
  H       -0.8398030     2.7868350     0.6320060
  H        0.4165240     2.8365740    -0.6404330
  H       -0.9028320    -1.0219250     1.7735780
  H       -1.7862700     1.5949720    -1.5186410
  H        0.3236690    -1.6661200    -0.4241870
  H       -3.1324200    -2.0992380     1.5176810
  H       -4.0389250     0.5738560    -1.7308950
  H       -4.7117870    -1.2913710    -0.2288330
  H        2.5003580    -2.8034100    -0.7313100
  H        4.4376410     0.9347650     0.1641390
  H        4.6312890    -1.4915970    -0.4182900
units angstrom
no_reorient  #important for SAPT in psi4, default
symmetry c1  #important for SAPT in psi4, default
}

set PROPERTIES_ORIGIN ["COM"]
properties('MP2/aug-cc-pvtz', properties = ['dipole'])
--------------------------------------------------------------------------

    Molecular point group: c1
  Charge       = 0
  Multiplicity = 1
  Basis Set: AUG-CC-PVTZ
    Blend: AUG-CC-PVTZ
  Basis Set: (AUG-CC-PVTZ AUX)
    Blend: AUG-CC-PVTZ-JKFIT

    Orbital Energies [Eh]
    ---------------------

    Doubly Occupied:

       1A    -15.579244     2A    -15.548056     3A    -11.315108
       4A    -11.280506     5A    -11.272078     6A    -11.254780
       7A    -11.252095     8A    -11.243966     9A    -11.243474
      10A    -11.242611    11A    -11.238745    12A    -11.235142
      13A    -11.226815    14A    -11.222300    15A     -1.295132
      16A     -1.219577    17A     -1.143485    18A     -1.078945
      19A     -1.025196    20A     -1.024002    21A     -1.003545
      22A     -0.928502    23A     -0.859333    24A     -0.841565
      25A     -0.833305    26A     -0.791502    27A     -0.727602
      28A     -0.694285    29A     -0.670050    30A     -0.657378
      31A     -0.646740    32A     -0.629490    33A     -0.615440
      34A     -0.599640    35A     -0.593199    36A     -0.584651
      37A     -0.569103    38A     -0.538951    39A     -0.535421
      40A     -0.528223    41A     -0.511115    42A     -0.505135
      43A     -0.498706    44A     -0.429554    45A     -0.413110
      46A     -0.376864    47A     -0.347399    48A     -0.334874
      49A     -0.288406

  @DF-RHF Final Energy:  -570.47777523038621

   => Energetics <=

    Nuclear Repulsion Energy =            820.0684384518579009
    One-Electron Energy =               -2400.1037306057314709
    Two-Electron Energy =                1009.5575169234873556
    Total Energy =                       -570.4777752303862144
  Basis Set: (AUG-CC-PVTZ AUX)
    Blend: AUG-CC-PVTZ-RI
    Molecular point group: c1

    Geometry (in Angstrom), charge = 0, multiplicity = 1:

       Center              X                  Y                   Z               Mass
    ------------   -----------------  -----------------  -----------------  -----------------
         N            0.052782585519     0.964818357399     0.300959839910    14.003074004430
         N            2.363734585519     0.967336357399     0.219380839910    14.003074004430
         C           -1.166905414481     0.270668157399     0.110128439910    12.000000000000
         C            1.228524585519     0.255417357399     0.080548839910    12.000000000000
         C            0.125173585519     2.423447357399     0.331751839910    12.000000000000
         C           -1.601895414481    -0.688114642601     0.990852839910    12.000000000000
         C           -2.104784414481     0.806669357399    -0.848242160090    12.000000000000
         C            1.234684585519    -1.112352642601    -0.273569160090    12.000000000000
         C           -2.855308414481    -1.281808642601     0.847460839910    12.000000000000
         C           -3.367995414481     0.225005357399    -0.968941160090    12.000000000000
         C           -3.745132414481    -0.824552642601    -0.128769160090    12.000000000000
         C            2.457708585519    -1.741093642601    -0.453830160090    12.000000000000
         C            3.533824585519     0.328379357399     0.039148839910    12.000000000000
         C            3.643073585519    -1.017993642601    -0.286563160090    12.000000000000
         H            0.876385585519     2.733935357399     1.058089839910     1.007825032230
         H           -0.854839414481     2.798025357399     0.630678839910     1.007825032230
         H            0.401487585519     2.847764357399    -0.641760160090     1.007825032230
         H           -0.917868414481    -1.010734642601     1.772250839910     1.007825032230
         H           -1.801306414481     1.606162357399    -1.519968160090     1.007825032230
         H            0.308632585519    -1.654929642601    -0.425514160090     1.007825032230
         H           -3.147456414481    -2.088047642601     1.516353839910     1.007825032230
         H           -4.053961414481     0.585046357399    -1.732222160090     1.007825032230
         H           -4.726823414481    -1.280180642601    -0.230160160090     1.007825032230
         H            2.485321585519    -2.792219642601    -0.732637160090     1.007825032230
         H            4.422604585519     0.945955357399     0.162811839910     1.007825032230
         H            4.616252585519    -1.480406642601    -0.419617160090     1.007825032230

  Basis Set: AUG-CC-PVTZ
    Blend: AUG-CC-PVTZ
  Basis Set: (AUG-CC-PVTZ AUX)
    Blend: AUG-CC-PVTZ-JKFIT
	 Reference Energy          =    -570.4777752303862144 [Eh]
	 Singles Energy            =      -0.0000000000000000 [Eh]
	 Same-Spin Energy          =      -0.6374687532530084 [Eh]
	 Opposite-Spin Energy      =      -1.9748471042448299 [Eh]
	 Correlation Energy        =      -2.6123158574978382 [Eh]
	 Total Energy              =    -573.0900910878840477 [Eh]

	 ================> DF-SCS-MP2 Energies <==================
	-----------------------------------------------------------
	 SCS Same-Spin Scale       =       0.3333333333333333 [-]
	 SCS Opposite-Spin Scale   =       1.2000000000000000 [-]
	 SCS Same-Spin Energy      =      -0.2124895844176695 [Eh]
	 SCS Opposite-Spin Energy  =      -2.3698165250937957 [Eh]
	 SCS Correlation Energy    =      -2.5823061095114652 [Eh]
	 SCS Total Energy          =    -573.0600813398976925 [Eh]
	-----------------------------------------------------------

  Dipole Moment: [D]
     X:    -1.2222      Y:    -0.8532      Z:    -0.4169     Total:     1.5477

*** Psi4 exiting successfully. Buy a developer a beer!
