                               Psi4 1.3.2 release

  ==> Input File <==

--------------------------------------------------------------------------
#psi4
#
memory 32 gb

molecule  {
0 1
  N        0.0944064     0.9932287     0.3113102
  N        2.3787710     0.9561460     0.2207080
  C       -1.1991060     0.3426720     0.1363540
  C        1.2435610     0.2442270     0.0818760
  C        0.1402100     2.4122570     0.3330790
  C       -1.5868590    -0.6993050     0.9921800
  C       -2.0897480     0.7954790    -0.8469150
  C        1.2497210    -1.1235430    -0.2722420
  C       -2.8402720    -1.2929990     0.8487880
  C       -3.3529590     0.2138150    -0.9676140
  C       -3.7300960    -0.8357430    -0.1274420
  C        2.4727450    -1.7522840    -0.4525030
  C        3.5488610     0.3171890     0.0404760
  C        3.6581100    -1.0291840    -0.2852360
  H        0.8914220     2.7227450     1.0594170
  H       -0.8398030     2.7868350     0.6320060
  H        0.4165240     2.8365740    -0.6404330
  H       -0.9028320    -1.0219250     1.7735780
  H       -1.7862700     1.5949720    -1.5186410
  H        0.3236690    -1.6661200    -0.4241870
  H       -3.1324200    -2.0992380     1.5176810
  H       -4.0389250     0.5738560    -1.7308950
  H       -4.7117870    -1.2913710    -0.2288330
  H        2.5003580    -2.8034100    -0.7313100
  H        4.4376410     0.9347650     0.1641390
  H        4.6312890    -1.4915970    -0.4182900
units angstrom
no_reorient  #important for SAPT in psi4, default
symmetry c1  #important for SAPT in psi4, default
}

set PROPERTIES_ORIGIN ["COM"]
properties('MP2/aug-cc-pvtz', properties = ['dipole'])
--------------------------------------------------------------------------

    Molecular point group: c1
  Charge       = 0
  Multiplicity = 1
  Basis Set: AUG-CC-PVTZ
    Blend: AUG-CC-PVTZ
  Basis Set: (AUG-CC-PVTZ AUX)
    Blend: AUG-CC-PVTZ-JKFIT

    Orbital Energies [Eh]
    ---------------------

    Doubly Occupied:

       1A    -15.578810     2A    -15.547701     3A    -11.316529
       4A    -11.282997     5A    -11.271957     6A    -11.255488
       7A    -11.245341     8A    -11.244749     9A    -11.244611
      10A    -11.241024    11A    -11.240132    12A    -11.239771
      13A    -11.228377    14A    -11.222575    15A     -1.294427
      16A     -1.217757    17A     -1.146461    18A     -1.079105
      19A     -1.028065    20A     -1.020904    21A     -1.009168
      22A     -0.925249    23A     -0.859420    24A     -0.840696
      25A     -0.833100    26A     -0.792652    27A     -0.728179
      28A     -0.695319    29A     -0.669698    30A     -0.656719
      31A     -0.647508    32A     -0.631229    33A     -0.615502
      34A     -0.603961    35A     -0.593295    36A     -0.587757
      37A     -0.567360    38A     -0.538312    39A     -0.534510
      40A     -0.528594    41A     -0.509729    42A     -0.503025
      43A     -0.502055    44A     -0.427229    45A     -0.413220
      46A     -0.376982    47A     -0.345080    48A     -0.340491
      49A     -0.289427

  @DF-RHF Final Energy:  -570.48125978441908

   => Energetics <=

    Nuclear Repulsion Energy =            819.3945702828647200
    One-Electron Energy =               -2398.7271647226011737
    Two-Electron Energy =                1008.8513346553174870
    Total Energy =                       -570.4812597844190805
  Basis Set: (AUG-CC-PVTZ AUX)
    Blend: AUG-CC-PVTZ-RI
    Molecular point group: c1

    Geometry (in Angstrom), charge = 0, multiplicity = 1:

       Center              X                  Y                   Z               Mass
    ------------   -----------------  -----------------  -----------------  -----------------
         N            0.080426686329     0.995984176766     0.307673788277    14.003074004430
         N            2.364791286329     0.958901476766     0.217071588277    14.003074004430
         C           -1.213085713671     0.345427476766     0.132717588277    12.000000000000
         C            1.229581286329     0.246982476766     0.078239588277    12.000000000000
         C            0.126230286329     2.415012476766     0.329442588277    12.000000000000
         C           -1.600838713671    -0.696549523234     0.988543588277    12.000000000000
         C           -2.103727713671     0.798234476766    -0.850551411723    12.000000000000
         C            1.235741286329    -1.120787523234    -0.275878411723    12.000000000000
         C           -2.854251713671    -1.290243523234     0.845151588277    12.000000000000
         C           -3.366938713671     0.216570476766    -0.971250411723    12.000000000000
         C           -3.744075713671    -0.832987523234    -0.131078411723    12.000000000000
         C            2.458765286329    -1.749528523234    -0.456139411723    12.000000000000
         C            3.534881286329     0.319944476766     0.036839588277    12.000000000000
         C            3.644130286329    -1.026428523234    -0.288872411723    12.000000000000
         H            0.877442286329     2.725500476766     1.055780588277     1.007825032230
         H           -0.853782713671     2.789590476766     0.628369588277     1.007825032230
         H            0.402544286329     2.839329476766    -0.644069411723     1.007825032230
         H           -0.916811713671    -1.019169523234     1.769941588277     1.007825032230
         H           -1.800249713671     1.597727476766    -1.522277411723     1.007825032230
         H            0.309689286329    -1.663364523234    -0.427823411723     1.007825032230
         H           -3.146399713671    -2.096482523234     1.514044588277     1.007825032230
         H           -4.052904713671     0.576611476766    -1.734531411723     1.007825032230
         H           -4.725766713671    -1.288615523234    -0.232469411723     1.007825032230
         H            2.486378286329    -2.800654523234    -0.734946411723     1.007825032230
         H            4.423661286329     0.937520476766     0.160502588277     1.007825032230
         H            4.617309286329    -1.488841523234    -0.421926411723     1.007825032230

  Basis Set: AUG-CC-PVTZ
    Blend: AUG-CC-PVTZ
  Basis Set: (AUG-CC-PVTZ AUX)
    Blend: AUG-CC-PVTZ-JKFIT
	 Reference Energy          =    -570.4812597844190805 [Eh]
	 Singles Energy            =      -0.0000000000000000 [Eh]
	 Same-Spin Energy          =      -0.6370848435155874 [Eh]
	 Opposite-Spin Energy      =      -1.9739765294810021 [Eh]
	 Correlation Energy        =      -2.6110613729965895 [Eh]
	 Total Energy              =    -573.0923211574156539 [Eh]

	 ================> DF-SCS-MP2 Energies <==================
	-----------------------------------------------------------
	 SCS Same-Spin Scale       =       0.3333333333333333 [-]
	 SCS Opposite-Spin Scale   =       1.2000000000000000 [-]
	 SCS Same-Spin Energy      =      -0.2123616145051958 [Eh]
	 SCS Opposite-Spin Energy  =      -2.3687718353772023 [Eh]
	 SCS Correlation Energy    =      -2.5811334498823979 [Eh]
	 SCS Total Energy          =    -573.0623932343014530 [Eh]
	-----------------------------------------------------------

  Dipole Moment: [D]
     X:    -1.3287      Y:    -1.0150      Z:    -0.4477     Total:     1.7310

*** Psi4 exiting successfully. Buy a developer a beer!
