                               Psi4 1.3.2 release

  ==> Input File <==

--------------------------------------------------------------------------
#psi4
#
memory 32 gb

molecule  {
0 1
  N        0.0678190     0.9536280     0.3022870
  N        2.3787710     0.9561460     0.2207080
  C       -1.1991060     0.3426720     0.1363540
  C        1.2435610     0.2442270     0.0818760
  C        0.1302985     2.2125472     0.3288631
  C       -1.5868590    -0.6993050     0.9921800
  C       -2.0897480     0.7954790    -0.8469150
  C        1.2497210    -1.1235430    -0.2722420
  C       -2.8402720    -1.2929990     0.8487880
  C       -3.3529590     0.2138150    -0.9676140
  C       -3.7300960    -0.8357430    -0.1274420
  C        2.4727450    -1.7522840    -0.4525030
  C        3.5488610     0.3171890     0.0404760
  C        3.6581100    -1.0291840    -0.2852360
  H        0.8914220     2.7227450     1.0594170
  H       -0.8398030     2.7868350     0.6320060
  H        0.4165240     2.8365740    -0.6404330
  H       -0.9028320    -1.0219250     1.7735780
  H       -1.7862700     1.5949720    -1.5186410
  H        0.3236690    -1.6661200    -0.4241870
  H       -3.1324200    -2.0992380     1.5176810
  H       -4.0389250     0.5738560    -1.7308950
  H       -4.7117870    -1.2913710    -0.2288330
  H        2.5003580    -2.8034100    -0.7313100
  H        4.4376410     0.9347650     0.1641390
  H        4.6312890    -1.4915970    -0.4182900
units angstrom
no_reorient  #important for SAPT in psi4, default
symmetry c1  #important for SAPT in psi4, default
}

set PROPERTIES_ORIGIN ["COM"]
properties('MP2/aug-cc-pvtz', properties = ['dipole'])
--------------------------------------------------------------------------

    Molecular point group: c1
  Charge       = 0
  Multiplicity = 1
  Basis Set: AUG-CC-PVTZ
    Blend: AUG-CC-PVTZ
  Basis Set: (AUG-CC-PVTZ AUX)
    Blend: AUG-CC-PVTZ-JKFIT

    Orbital Energies [Eh]
    ---------------------

    Doubly Occupied:

       1A    -15.581975     2A    -15.554078     3A    -11.321123
       4A    -11.284632     5A    -11.275505     6A    -11.258451
       7A    -11.251850     8A    -11.246274     9A    -11.246131
      10A    -11.242930    11A    -11.242324    12A    -11.241699
      13A    -11.233437    14A    -11.228107    15A     -1.335454
      16A     -1.236877    17A     -1.152799    18A     -1.083743
      19A     -1.035771    20A     -1.025909    21A     -1.018530
      22A     -0.919457    23A     -0.868972    24A     -0.843603
      25A     -0.837148    26A     -0.792553    27A     -0.740494
      28A     -0.708990    29A     -0.681214    30A     -0.665548
      31A     -0.658727    32A     -0.642714    33A     -0.619004
      34A     -0.612563    35A     -0.600018    36A     -0.590595
      37A     -0.572196    38A     -0.533457    39A     -0.528049
      40A     -0.519653    41A     -0.510091    42A     -0.503370
      43A     -0.480800    44A     -0.417146    45A     -0.405525
      46A     -0.380636    47A     -0.347518    48A     -0.342709
      49A     -0.291170

  @DF-RHF Final Energy:  -570.43508610782089

   => Energetics <=

    Nuclear Repulsion Energy =            824.6894134420276714
    One-Electron Energy =               -2408.8259585679829797
    Two-Electron Energy =                1013.7014590181344147
    Total Energy =                       -570.4350861078208936
  Basis Set: (AUG-CC-PVTZ AUX)
    Blend: AUG-CC-PVTZ-RI
    Molecular point group: c1

    Geometry (in Angstrom), charge = 0, multiplicity = 1:

       Center              X                  Y                   Z               Mass
    ------------   -----------------  -----------------  -----------------  -----------------
         N            0.056507636142     0.972413071317     0.299611714246    14.003074004430
         N            2.367459636142     0.974931071317     0.218032714246    14.003074004430
         C           -1.210417363858     0.361457071317     0.133678714246    12.000000000000
         C            1.232249636142     0.263012071317     0.079200714246    12.000000000000
         C            0.118987136142     2.231332271317     0.326187814246    12.000000000000
         C           -1.598170363858    -0.680519928683     0.989504714246    12.000000000000
         C           -2.101059363858     0.814264071317    -0.849590285754    12.000000000000
         C            1.238409636142    -1.104757928683    -0.274917285754    12.000000000000
         C           -2.851583363858    -1.274213928683     0.846112714246    12.000000000000
         C           -3.364270363858     0.232600071317    -0.970289285754    12.000000000000
         C           -3.741407363858    -0.816957928683    -0.130117285754    12.000000000000
         C            2.461433636142    -1.733498928683    -0.455178285754    12.000000000000
         C            3.537549636142     0.335974071317     0.037800714246    12.000000000000
         C            3.646798636142    -1.010398928683    -0.287911285754    12.000000000000
         H            0.880110636142     2.741530071317     1.056741714246     1.007825032230
         H           -0.851114363858     2.805620071317     0.629330714246     1.007825032230
         H            0.405212636142     2.855359071317    -0.643108285754     1.007825032230
         H           -0.914143363858    -1.003139928683     1.770902714246     1.007825032230
         H           -1.797581363858     1.613757071317    -1.521316285754     1.007825032230
         H            0.312357636142    -1.647334928683    -0.426862285754     1.007825032230
         H           -3.143731363858    -2.080452928683     1.515005714246     1.007825032230
         H           -4.050236363858     0.592641071317    -1.733570285754     1.007825032230
         H           -4.723098363858    -1.272585928683    -0.231508285754     1.007825032230
         H            2.489046636142    -2.784624928683    -0.733985285754     1.007825032230
         H            4.426329636142     0.953550071317     0.161463714246     1.007825032230
         H            4.619977636142    -1.472811928683    -0.420965285754     1.007825032230

  Basis Set: AUG-CC-PVTZ
    Blend: AUG-CC-PVTZ
  Basis Set: (AUG-CC-PVTZ AUX)
    Blend: AUG-CC-PVTZ-JKFIT
	 Reference Energy          =    -570.4350861078208936 [Eh]
	 Singles Energy            =      -0.0000000000000000 [Eh]
	 Same-Spin Energy          =      -0.6401892814711960 [Eh]
	 Opposite-Spin Energy      =      -1.9769839388217114 [Eh]
	 Correlation Energy        =      -2.6171732202929077 [Eh]
	 Total Energy              =    -573.0522593281137915 [Eh]

	 ================> DF-SCS-MP2 Energies <==================
	-----------------------------------------------------------
	 SCS Same-Spin Scale       =       0.3333333333333333 [-]
	 SCS Opposite-Spin Scale   =       1.2000000000000000 [-]
	 SCS Same-Spin Energy      =      -0.2133964271570653 [Eh]
	 SCS Opposite-Spin Energy  =      -2.3723807265860537 [Eh]
	 SCS Correlation Energy    =      -2.5857771537431189 [Eh]
	 SCS Total Energy          =    -573.0208632615640454 [Eh]
	-----------------------------------------------------------

  Dipole Moment: [D]
     X:    -1.1608      Y:    -1.6941      Z:    -0.4266     Total:     2.0975

*** Psi4 exiting successfully. Buy a developer a beer!
