                               Psi4 1.3.2 release

  ==> Input File <==

--------------------------------------------------------------------------
#psi4
#
memory 32 gb

molecule  {
0 1
  N        0.0678190     0.9536280     0.3022870
  N        2.3787710     0.9561460     0.2207080
  C       -1.1991060     0.3426720     0.1363540
  C        1.2310885     0.2635541     0.0867452
  C        0.1402100     2.4122570     0.3330790
  C       -1.5868590    -0.6993050     0.9921800
  C       -2.0897480     0.7954790    -0.8469150
  C        1.2497210    -1.1235430    -0.2722420
  C       -2.8402720    -1.2929990     0.8487880
  C       -3.3529590     0.2138150    -0.9676140
  C       -3.7300960    -0.8357430    -0.1274420
  C        2.4727450    -1.7522840    -0.4525030
  C        3.5488610     0.3171890     0.0404760
  C        3.6581100    -1.0291840    -0.2852360
  H        0.8914220     2.7227450     1.0594170
  H       -0.8398030     2.7868350     0.6320060
  H        0.4165240     2.8365740    -0.6404330
  H       -0.9028320    -1.0219250     1.7735780
  H       -1.7862700     1.5949720    -1.5186410
  H        0.3236690    -1.6661200    -0.4241870
  H       -3.1324200    -2.0992380     1.5176810
  H       -4.0389250     0.5738560    -1.7308950
  H       -4.7117870    -1.2913710    -0.2288330
  H        2.5003580    -2.8034100    -0.7313100
  H        4.4376410     0.9347650     0.1641390
  H        4.6312890    -1.4915970    -0.4182900
units angstrom
no_reorient  #important for SAPT in psi4, default
symmetry c1  #important for SAPT in psi4, default
}

set PROPERTIES_ORIGIN ["COM"]
properties('MP2/aug-cc-pvtz', properties = ['dipole'])
--------------------------------------------------------------------------

    Molecular point group: c1
  Charge       = 0
  Multiplicity = 1
  Basis Set: AUG-CC-PVTZ
    Blend: AUG-CC-PVTZ
  Basis Set: (AUG-CC-PVTZ AUX)
    Blend: AUG-CC-PVTZ-JKFIT

    Orbital Energies [Eh]
    ---------------------

    Doubly Occupied:

       1A    -15.582182     2A    -15.546366     3A    -11.318039
       4A    -11.282182     5A    -11.271093     6A    -11.253133
       7A    -11.251271     8A    -11.244922     9A    -11.244524
      10A    -11.241001    11A    -11.239653    12A    -11.239397
      13A    -11.227680    14A    -11.220555    15A     -1.299332
      16A     -1.220038    17A     -1.145960    18A     -1.076324
      19A     -1.028069    20A     -1.021730    21A     -1.004971
      22A     -0.929759    23A     -0.861440    24A     -0.841661
      25A     -0.833695    26A     -0.792220    27A     -0.732236
      28A     -0.693681    29A     -0.669560    30A     -0.659236
      31A     -0.650066    32A     -0.629620    33A     -0.613989
      34A     -0.603731    35A     -0.591837    36A     -0.584684
      37A     -0.568087    38A     -0.539885    39A     -0.533950
      40A     -0.528049    41A     -0.512981    42A     -0.506403
      43A     -0.502352    44A     -0.432582    45A     -0.409029
      46A     -0.376016    47A     -0.345062    48A     -0.339739
      49A     -0.286835

  @DF-RHF Final Energy:  -570.48366664106447

   => Energetics <=

    Nuclear Repulsion Energy =            819.8386493743388428
    One-Electron Energy =               -2399.5910150656827682
    Two-Electron Energy =                1009.2686990502795652
    Total Energy =                       -570.4836666410644739
  Basis Set: (AUG-CC-PVTZ AUX)
    Blend: AUG-CC-PVTZ-RI
    Molecular point group: c1

    Geometry (in Angstrom), charge = 0, multiplicity = 1:

       Center              X                  Y                   Z               Mass
    ------------   -----------------  -----------------  -----------------  -----------------
         N            0.056674567114     0.958135819231     0.299019529720    14.003074004430
         N            2.367626567114     0.960653819231     0.217440529720    14.003074004430
         C           -1.210250432886     0.347179819231     0.133086529720    12.000000000000
         C            1.219944067114     0.268061919231     0.083477729720    12.000000000000
         C            0.129065567114     2.416764819231     0.329811529720    12.000000000000
         C           -1.598003432886    -0.694797180769     0.988912529720    12.000000000000
         C           -2.100892432886     0.799986819231    -0.850182470280    12.000000000000
         C            1.238576567114    -1.119035180769    -0.275509470280    12.000000000000
         C           -2.851416432886    -1.288491180769     0.845520529720    12.000000000000
         C           -3.364103432886     0.218322819231    -0.970881470280    12.000000000000
         C           -3.741240432886    -0.831235180769    -0.130709470280    12.000000000000
         C            2.461600567114    -1.747776180769    -0.455770470280    12.000000000000
         C            3.537716567114     0.321696819231     0.037208529720    12.000000000000
         C            3.646965567114    -1.024676180769    -0.288503470280    12.000000000000
         H            0.880277567114     2.727252819231     1.056149529720     1.007825032230
         H           -0.850947432886     2.791342819231     0.628738529720     1.007825032230
         H            0.405379567114     2.841081819231    -0.643700470280     1.007825032230
         H           -0.913976432886    -1.017417180769     1.770310529720     1.007825032230
         H           -1.797414432886     1.599479819231    -1.521908470280     1.007825032230
         H            0.312524567114    -1.661612180769    -0.427454470280     1.007825032230
         H           -3.143564432886    -2.094730180769     1.514413529720     1.007825032230
         H           -4.050069432886     0.578363819231    -1.734162470280     1.007825032230
         H           -4.722931432886    -1.286863180769    -0.232100470280     1.007825032230
         H            2.489213567114    -2.798902180769    -0.734577470280     1.007825032230
         H            4.426496567114     0.939272819231     0.160871529720     1.007825032230
         H            4.620144567114    -1.487089180769    -0.421557470280     1.007825032230

  Basis Set: AUG-CC-PVTZ
    Blend: AUG-CC-PVTZ
  Basis Set: (AUG-CC-PVTZ AUX)
    Blend: AUG-CC-PVTZ-JKFIT
	 Reference Energy          =    -570.4836666410644739 [Eh]
	 Singles Energy            =      -0.0000000000000000 [Eh]
	 Same-Spin Energy          =      -0.6370882656603356 [Eh]
	 Opposite-Spin Energy      =      -1.9739635494345729 [Eh]
	 Correlation Energy        =      -2.6110518150949087 [Eh]
	 Total Energy              =    -573.0947184561593986 [Eh]

	 ================> DF-SCS-MP2 Energies <==================
	-----------------------------------------------------------
	 SCS Same-Spin Scale       =       0.3333333333333333 [-]
	 SCS Opposite-Spin Scale   =       1.2000000000000000 [-]
	 SCS Same-Spin Energy      =      -0.2123627552201119 [Eh]
	 SCS Opposite-Spin Energy  =      -2.3687562593214873 [Eh]
	 SCS Correlation Energy    =      -2.5811190145415992 [Eh]
	 SCS Total Energy          =    -573.0647856556061015 [Eh]
	-----------------------------------------------------------

  Dipole Moment: [D]
     X:    -1.4292      Y:    -0.8167      Z:    -0.4096     Total:     1.6962

*** Psi4 exiting successfully. Buy a developer a beer!
