                               Psi4 1.3.2 release

  ==> Input File <==

--------------------------------------------------------------------------
#psi4
#
memory 32 gb

molecule  {
0 1
  N        0.0837839     0.8919868     0.3779046
  N        2.3787710     0.9561460     0.2207080
  C       -1.1991060     0.3426720     0.1363540
  C        1.2435610     0.2442270     0.0818760
  C        0.1402100     2.4122570     0.3330790
  C       -1.5868590    -0.6993050     0.9921800
  C       -2.0897480     0.7954790    -0.8469150
  C        1.2497210    -1.1235430    -0.2722420
  C       -2.8402720    -1.2929990     0.8487880
  C       -3.3529590     0.2138150    -0.9676140
  C       -3.7300960    -0.8357430    -0.1274420
  C        2.4727450    -1.7522840    -0.4525030
  C        3.5488610     0.3171890     0.0404760
  C        3.6581100    -1.0291840    -0.2852360
  H        0.8914220     2.7227450     1.0594170
  H       -0.8398030     2.7868350     0.6320060
  H        0.4165240     2.8365740    -0.6404330
  H       -0.9028320    -1.0219250     1.7735780
  H       -1.7862700     1.5949720    -1.5186410
  H        0.3236690    -1.6661200    -0.4241870
  H       -3.1324200    -2.0992380     1.5176810
  H       -4.0389250     0.5738560    -1.7308950
  H       -4.7117870    -1.2913710    -0.2288330
  H        2.5003580    -2.8034100    -0.7313100
  H        4.4376410     0.9347650     0.1641390
  H        4.6312890    -1.4915970    -0.4182900
units angstrom
no_reorient  #important for SAPT in psi4, default
symmetry c1  #important for SAPT in psi4, default
}

set PROPERTIES_ORIGIN ["COM"]
properties('MP2/aug-cc-pvtz', properties = ['dipole'])
--------------------------------------------------------------------------

    Molecular point group: c1
  Charge       = 0
  Multiplicity = 1
  Basis Set: AUG-CC-PVTZ
    Blend: AUG-CC-PVTZ
  Basis Set: (AUG-CC-PVTZ AUX)
    Blend: AUG-CC-PVTZ-JKFIT

    Orbital Energies [Eh]
    ---------------------

    Doubly Occupied:

       1A    -15.582531     2A    -15.547107     3A    -11.314332
       4A    -11.280527     5A    -11.271643     6A    -11.255043
       7A    -11.253564     8A    -11.244866     9A    -11.242797
      10A    -11.241882    11A    -11.238770    12A    -11.236487
      13A    -11.224748    14A    -11.220895    15A     -1.296801
      16A     -1.218061    17A     -1.143962    18A     -1.077773
      19A     -1.028679    20A     -1.021267    21A     -0.999293
      22A     -0.929259    23A     -0.861197    24A     -0.842576
      25A     -0.834159    26A     -0.791991    27A     -0.731510
      28A     -0.692113    29A     -0.668723    30A     -0.658532
      31A     -0.647544    32A     -0.626944    33A     -0.612710
      34A     -0.603464    35A     -0.590123    36A     -0.579173
      37A     -0.563426    38A     -0.543339    39A     -0.534661
      40A     -0.525283    41A     -0.511791    42A     -0.506841
      43A     -0.498403    44A     -0.437308    45A     -0.411610
      46A     -0.376244    47A     -0.344130    48A     -0.338354
      49A     -0.289498

  @DF-RHF Final Energy:  -570.47878126342562

   => Energetics <=

    Nuclear Repulsion Energy =            819.8021656183982486
    One-Electron Energy =               -2399.5780266057731751
    Two-Electron Energy =                1009.2970797239493095
    Total Energy =                       -570.4787812634256170
  Basis Set: (AUG-CC-PVTZ AUX)
    Blend: AUG-CC-PVTZ-RI
    Molecular point group: c1

    Geometry (in Angstrom), charge = 0, multiplicity = 1:

       Center              X                  Y                   Z               Mass
    ------------   -----------------  -----------------  -----------------  -----------------
         N            0.070612158162     0.902442969027     0.369202864723    14.003074004430
         N            2.365599258162     0.966602169027     0.212006264723    14.003074004430
         C           -1.212277741838     0.353128169027     0.127652264723    12.000000000000
         C            1.230389258162     0.254683169027     0.073174264723    12.000000000000
         C            0.127038258162     2.422713169027     0.324377264723    12.000000000000
         C           -1.600030741838    -0.688848830973     0.983478264723    12.000000000000
         C           -2.102919741838     0.805935169027    -0.855616735277    12.000000000000
         C            1.236549258162    -1.113086830973    -0.280943735277    12.000000000000
         C           -2.853443741838    -1.282542830973     0.840086264723    12.000000000000
         C           -3.366130741838     0.224271169027    -0.976315735277    12.000000000000
         C           -3.743267741838    -0.825286830973    -0.136143735277    12.000000000000
         C            2.459573258162    -1.741827830973    -0.461204735277    12.000000000000
         C            3.535689258162     0.327645169027     0.031774264723    12.000000000000
         C            3.644938258162    -1.018727830973    -0.293937735277    12.000000000000
         H            0.878250258162     2.733201169027     1.050715264723     1.007825032230
         H           -0.852974741838     2.797291169027     0.623304264723     1.007825032230
         H            0.403352258162     2.847030169027    -0.649134735277     1.007825032230
         H           -0.916003741838    -1.011468830973     1.764876264723     1.007825032230
         H           -1.799441741838     1.605428169027    -1.527342735277     1.007825032230
         H            0.310497258162    -1.655663830973    -0.432888735277     1.007825032230
         H           -3.145591741838    -2.088781830973     1.508979264723     1.007825032230
         H           -4.052096741838     0.584312169027    -1.739596735277     1.007825032230
         H           -4.724958741838    -1.280914830973    -0.237534735277     1.007825032230
         H            2.487186258162    -2.792953830973    -0.740011735277     1.007825032230
         H            4.424469258162     0.945221169027     0.155437264723     1.007825032230
         H            4.618117258162    -1.481140830973    -0.426991735277     1.007825032230

  Basis Set: AUG-CC-PVTZ
    Blend: AUG-CC-PVTZ
  Basis Set: (AUG-CC-PVTZ AUX)
    Blend: AUG-CC-PVTZ-JKFIT
	 Reference Energy          =    -570.4787812634256170 [Eh]
	 Singles Energy            =      -0.0000000000000000 [Eh]
	 Same-Spin Energy          =      -0.6371311097441825 [Eh]
	 Opposite-Spin Energy      =      -1.9745520535746262 [Eh]
	 Correlation Energy        =      -2.6116831633188085 [Eh]
	 Total Energy              =    -573.0904644267444610 [Eh]

	 ================> DF-SCS-MP2 Energies <==================
	-----------------------------------------------------------
	 SCS Same-Spin Scale       =       0.3333333333333333 [-]
	 SCS Opposite-Spin Scale   =       1.2000000000000000 [-]
	 SCS Same-Spin Energy      =      -0.2123770365813942 [Eh]
	 SCS Opposite-Spin Energy  =      -2.3694624642895512 [Eh]
	 SCS Correlation Energy    =      -2.5818395008709452 [Eh]
	 SCS Total Energy          =    -573.0606207642965728 [Eh]
	-----------------------------------------------------------

  Dipole Moment: [D]
     X:    -1.3114      Y:    -0.7583      Z:    -0.5253     Total:     1.6033

*** Psi4 exiting successfully. Buy a developer a beer!
