                               Psi4 1.3.2 release

  ==> Input File <==

--------------------------------------------------------------------------
#psi4
#
memory 32 gb

molecule  {
0 1
  N        0.0496465     0.9551288     0.2844690
  N        2.3787710     0.9561460     0.2207080
  C       -1.1991060     0.3426720     0.1363540
  C        1.2435610     0.2442270     0.0818760
  C        0.1402100     2.4122570     0.3330790
  C       -1.5868590    -0.6993050     0.9921800
  C       -2.0897480     0.7954790    -0.8469150
  C        1.2497210    -1.1235430    -0.2722420
  C       -2.8402720    -1.2929990     0.8487880
  C       -3.3529590     0.2138150    -0.9676140
  C       -3.7300960    -0.8357430    -0.1274420
  C        2.4727450    -1.7522840    -0.4525030
  C        3.5488610     0.3171890     0.0404760
  C        3.6581100    -1.0291840    -0.2852360
  H        0.8914220     2.7227450     1.0594170
  H       -0.8398030     2.7868350     0.6320060
  H        0.4165240     2.8365740    -0.6404330
  H       -0.9028320    -1.0219250     1.7735780
  H       -1.7862700     1.5949720    -1.5186410
  H        0.3236690    -1.6661200    -0.4241870
  H       -3.1324200    -2.0992380     1.5176810
  H       -4.0389250     0.5738560    -1.7308950
  H       -4.7117870    -1.2913710    -0.2288330
  H        2.5003580    -2.8034100    -0.7313100
  H        4.4376410     0.9347650     0.1641390
  H        4.6312890    -1.4915970    -0.4182900
units angstrom
no_reorient  #important for SAPT in psi4, default
symmetry c1  #important for SAPT in psi4, default
}

set PROPERTIES_ORIGIN ["COM"]
properties('MP2/aug-cc-pvtz', properties = ['dipole'])
--------------------------------------------------------------------------

    Molecular point group: c1
  Charge       = 0
  Multiplicity = 1
  Basis Set: AUG-CC-PVTZ
    Blend: AUG-CC-PVTZ
  Basis Set: (AUG-CC-PVTZ AUX)
    Blend: AUG-CC-PVTZ-JKFIT

    Orbital Energies [Eh]
    ---------------------

    Doubly Occupied:

       1A    -15.578032     2A    -15.550649     3A    -11.318635
       4A    -11.278658     5A    -11.273373     6A    -11.255637
       7A    -11.249620     8A    -11.242901     9A    -11.242781
      10A    -11.237674    11A    -11.237272    12A    -11.236967
      13A    -11.228444    14A    -11.224034    15A     -1.294140
      16A     -1.222656    17A     -1.142686    18A     -1.079952
      19A     -1.028791    20A     -1.019913    21A     -1.004562
      22A     -0.926330    23A     -0.860472    24A     -0.844686
      25A     -0.832801    26A     -0.791654    27A     -0.730564
      28A     -0.693170    29A     -0.669365    30A     -0.658475
      31A     -0.648108    32A     -0.629282    33A     -0.615363
      34A     -0.602127    35A     -0.590963    36A     -0.583565
      37A     -0.570238    38A     -0.537744    39A     -0.535866
      40A     -0.528233    41A     -0.511392    42A     -0.505150
      43A     -0.500457    44A     -0.428325    45A     -0.414573
      46A     -0.378053    47A     -0.343599    48A     -0.338891
      49A     -0.288335

  @DF-RHF Final Energy:  -570.48351327317869

   => Energetics <=

    Nuclear Repulsion Energy =            819.8456297108098170
    One-Electron Energy =               -2399.6479646563225288
    Two-Electron Energy =                1009.3188216723340247
    Total Energy =                       -570.4835132731786871
  Basis Set: (AUG-CC-PVTZ AUX)
    Blend: AUG-CC-PVTZ-RI
    Molecular point group: c1

    Geometry (in Angstrom), charge = 0, multiplicity = 1:

       Center              X                  Y                   Z               Mass
    ------------   -----------------  -----------------  -----------------  -----------------
         N            0.039071327488     0.960782242974     0.282874191814    14.003074004430
         N            2.368195827488     0.961799442974     0.219113191814    14.003074004430
         C           -1.209681172512     0.348325442974     0.134759191814    12.000000000000
         C            1.232985827488     0.249880442974     0.080281191814    12.000000000000
         C            0.129634827488     2.417910442974     0.331484191814    12.000000000000
         C           -1.597434172512    -0.693651557026     0.990585191814    12.000000000000
         C           -2.100323172512     0.801132442974    -0.848509808186    12.000000000000
         C            1.239145827488    -1.117889557026    -0.273836808186    12.000000000000
         C           -2.850847172512    -1.287345557026     0.847193191814    12.000000000000
         C           -3.363534172512     0.219468442974    -0.969208808186    12.000000000000
         C           -3.740671172512    -0.830089557026    -0.129036808186    12.000000000000
         C            2.462169827488    -1.746630557026    -0.454097808186    12.000000000000
         C            3.538285827488     0.322842442974     0.038881191814    12.000000000000
         C            3.647534827488    -1.023530557026    -0.286830808186    12.000000000000
         H            0.880846827488     2.728398442974     1.057822191814     1.007825032230
         H           -0.850378172512     2.792488442974     0.630411191814     1.007825032230
         H            0.405948827488     2.842227442974    -0.642027808186     1.007825032230
         H           -0.913407172512    -1.016271557026     1.771983191814     1.007825032230
         H           -1.796845172512     1.600625442974    -1.520235808186     1.007825032230
         H            0.313093827488    -1.660466557026    -0.425781808186     1.007825032230
         H           -3.142995172512    -2.093584557026     1.516086191814     1.007825032230
         H           -4.049500172512     0.579509442974    -1.732489808186     1.007825032230
         H           -4.722362172512    -1.285717557026    -0.230427808186     1.007825032230
         H            2.489782827488    -2.797756557026    -0.732904808186     1.007825032230
         H            4.427065827488     0.940418442974     0.162544191814     1.007825032230
         H            4.620713827488    -1.485943557026    -0.419884808186     1.007825032230

  Basis Set: AUG-CC-PVTZ
    Blend: AUG-CC-PVTZ
  Basis Set: (AUG-CC-PVTZ AUX)
    Blend: AUG-CC-PVTZ-JKFIT
	 Reference Energy          =    -570.4835132731786871 [Eh]
	 Singles Energy            =      -0.0000000000000000 [Eh]
	 Same-Spin Energy          =      -0.6372834031691047 [Eh]
	 Opposite-Spin Energy      =      -1.9740712353198404 [Eh]
	 Correlation Energy        =      -2.6113546384889452 [Eh]
	 Total Energy              =    -573.0948679116676203 [Eh]

	 ================> DF-SCS-MP2 Energies <==================
	-----------------------------------------------------------
	 SCS Same-Spin Scale       =       0.3333333333333333 [-]
	 SCS Opposite-Spin Scale   =       1.2000000000000000 [-]
	 SCS Same-Spin Energy      =      -0.2124278010563682 [Eh]
	 SCS Opposite-Spin Energy  =      -2.3688854823838086 [Eh]
	 SCS Correlation Energy    =      -2.5813132834401769 [Eh]
	 SCS Total Energy          =    -573.0648265566188684 [Eh]
	-----------------------------------------------------------

  Dipole Moment: [D]
     X:    -1.0587      Y:    -0.9146      Z:    -0.4236     Total:     1.4618

*** Psi4 exiting successfully. Buy a developer a beer!
