                               Psi4 1.3.2 release

  ==> Input File <==

--------------------------------------------------------------------------
#psi4
#
memory 32 gb

molecule  {
0 1
  N        0.1517472     1.0696455     0.3285073
  N        2.3787710     0.9561460     0.2207080
  C       -1.1991060     0.3426720     0.1363540
  C        1.2435610     0.2442270     0.0818760
  C        0.1402100     2.4122570     0.3330790
  C       -1.5868590    -0.6993050     0.9921800
  C       -2.0897480     0.7954790    -0.8469150
  C        1.2497210    -1.1235430    -0.2722420
  C       -2.8402720    -1.2929990     0.8487880
  C       -3.3529590     0.2138150    -0.9676140
  C       -3.7300960    -0.8357430    -0.1274420
  C        2.4727450    -1.7522840    -0.4525030
  C        3.5488610     0.3171890     0.0404760
  C        3.6581100    -1.0291840    -0.2852360
  H        0.8914220     2.7227450     1.0594170
  H       -0.8398030     2.7868350     0.6320060
  H        0.4165240     2.8365740    -0.6404330
  H       -0.9028320    -1.0219250     1.7735780
  H       -1.7862700     1.5949720    -1.5186410
  H        0.3236690    -1.6661200    -0.4241870
  H       -3.1324200    -2.0992380     1.5176810
  H       -4.0389250     0.5738560    -1.7308950
  H       -4.7117870    -1.2913710    -0.2288330
  H        2.5003580    -2.8034100    -0.7313100
  H        4.4376410     0.9347650     0.1641390
  H        4.6312890    -1.4915970    -0.4182900
units angstrom
no_reorient  #important for SAPT in psi4, default
symmetry c1  #important for SAPT in psi4, default
}

set PROPERTIES_ORIGIN ["COM"]
properties('MP2/aug-cc-pvtz', properties = ['dipole'])
--------------------------------------------------------------------------

    Molecular point group: c1
  Charge       = 0
  Multiplicity = 1
  Basis Set: AUG-CC-PVTZ
    Blend: AUG-CC-PVTZ
  Basis Set: (AUG-CC-PVTZ AUX)
    Blend: AUG-CC-PVTZ-JKFIT

    Orbital Energies [Eh]
    ---------------------

    Doubly Occupied:

       1A    -15.578283     2A    -15.545729     3A    -11.316738
       4A    -11.287406     5A    -11.271044     6A    -11.256601
       7A    -11.246786     8A    -11.246386     9A    -11.243879
      10A    -11.243869    11A    -11.242239    12A    -11.237414
      13A    -11.230603    14A    -11.222555    15A     -1.297396
      16A     -1.215821    17A     -1.151252    18A     -1.079271
      19A     -1.029844    20A     -1.020904    21A     -1.016305
      22A     -0.922870    23A     -0.859049    24A     -0.837084
      25A     -0.831448    26A     -0.793331    27A     -0.724627
      28A     -0.699336    29A     -0.670972    30A     -0.655828
      31A     -0.648363    32A     -0.634576    33A     -0.617736
      34A     -0.607228    35A     -0.600540    36A     -0.592259
      37A     -0.566676    38A     -0.538176    39A     -0.533457
      40A     -0.528384    41A     -0.509102    42A     -0.504194
      43A     -0.487679    44A     -0.421717    45A     -0.412249
      46A     -0.376492    47A     -0.346670    48A     -0.342407
      49A     -0.290217

  @DF-RHF Final Energy:  -570.45757440518514

   => Energetics <=

    Nuclear Repulsion Energy =            818.7649309298091111
    One-Electron Energy =               -2397.3790287424421876
    Two-Electron Energy =                1008.1565234074480486
    Total Energy =                       -570.4575744051851416
  Basis Set: (AUG-CC-PVTZ AUX)
    Blend: AUG-CC-PVTZ-RI
    Molecular point group: c1

    Geometry (in Angstrom), charge = 0, multiplicity = 1:

       Center              X                  Y                   Z               Mass
    ------------   -----------------  -----------------  -----------------  -----------------
         N            0.133406012918     1.066588538828     0.323562837215    14.003074004430
         N            2.360429812918     0.953089038828     0.215763537215    14.003074004430
         C           -1.217447187082     0.339615038828     0.131409537215    12.000000000000
         C            1.225219812918     0.241170038828     0.076931537215    12.000000000000
         C            0.121868812918     2.409200038828     0.328134537215    12.000000000000
         C           -1.605200187082    -0.702361961172     0.987235537215    12.000000000000
         C           -2.108089187082     0.792422038828    -0.851859462785    12.000000000000
         C            1.231379812918    -1.126599961172    -0.277186462785    12.000000000000
         C           -2.858613187082    -1.296055961172     0.843843537215    12.000000000000
         C           -3.371300187082     0.210758038828    -0.972558462785    12.000000000000
         C           -3.748437187082    -0.838799961172    -0.132386462785    12.000000000000
         C            2.454403812918    -1.755340961172    -0.457447462785    12.000000000000
         C            3.530519812918     0.314132038828     0.035531537215    12.000000000000
         C            3.639768812918    -1.032240961172    -0.290180462785    12.000000000000
         H            0.873080812918     2.719688038828     1.054472537215     1.007825032230
         H           -0.858144187082     2.783778038828     0.627061537215     1.007825032230
         H            0.398182812918     2.833517038828    -0.645377462785     1.007825032230
         H           -0.921173187082    -1.024981961172     1.768633537215     1.007825032230
         H           -1.804611187082     1.591915038828    -1.523585462785     1.007825032230
         H            0.305327812918    -1.669176961172    -0.429131462785     1.007825032230
         H           -3.150761187082    -2.102294961172     1.512736537215     1.007825032230
         H           -4.057266187082     0.570799038828    -1.735839462785     1.007825032230
         H           -4.730128187082    -1.294427961172    -0.233777462785     1.007825032230
         H            2.482016812918    -2.806466961172    -0.736254462785     1.007825032230
         H            4.419299812918     0.931708038828     0.159194537215     1.007825032230
         H            4.612947812918    -1.494653961172    -0.423234462785     1.007825032230

  Basis Set: AUG-CC-PVTZ
    Blend: AUG-CC-PVTZ
  Basis Set: (AUG-CC-PVTZ AUX)
    Blend: AUG-CC-PVTZ-JKFIT
	 Reference Energy          =    -570.4575744051851416 [Eh]
	 Singles Energy            =      -0.0000000000000000 [Eh]
	 Same-Spin Energy          =      -0.6378679713862193 [Eh]
	 Opposite-Spin Energy      =      -1.9756034600548615 [Eh]
	 Correlation Energy        =      -2.6134714314410807 [Eh]
	 Total Energy              =    -573.0710458366262401 [Eh]

	 ================> DF-SCS-MP2 Energies <==================
	-----------------------------------------------------------
	 SCS Same-Spin Scale       =       0.3333333333333333 [-]
	 SCS Opposite-Spin Scale   =       1.2000000000000000 [-]
	 SCS Same-Spin Energy      =      -0.2126226571287398 [Eh]
	 SCS Opposite-Spin Energy  =      -2.3707241520658338 [Eh]
	 SCS Correlation Energy    =      -2.5833468091945737 [Eh]
	 SCS Total Energy          =    -573.0409212143797504 [Eh]
	-----------------------------------------------------------

  Dipole Moment: [D]
     X:    -1.5426      Y:    -1.2411      Z:    -0.4591     Total:     2.0324

*** Psi4 exiting successfully. Buy a developer a beer!
