                               Psi4 1.3.2 release

  ==> Input File <==

--------------------------------------------------------------------------
#psi4
#
memory 32 gb

molecule  {
0 1
  N        0.0426518     0.9132564     0.2926291
  N        2.3787710     0.9561460     0.2207080
  C       -1.1991060     0.3426720     0.1363540
  C        1.2435610     0.2442270     0.0818760
  C        0.1402100     2.4122570     0.3330790
  C       -1.5868590    -0.6993050     0.9921800
  C       -2.0897480     0.7954790    -0.8469150
  C        1.2497210    -1.1235430    -0.2722420
  C       -2.8402720    -1.2929990     0.8487880
  C       -3.3529590     0.2138150    -0.9676140
  C       -3.7300960    -0.8357430    -0.1274420
  C        2.4727450    -1.7522840    -0.4525030
  C        3.5488610     0.3171890     0.0404760
  C        3.6581100    -1.0291840    -0.2852360
  H        0.8914220     2.7227450     1.0594170
  H       -0.8398030     2.7868350     0.6320060
  H        0.4165240     2.8365740    -0.6404330
  H       -0.9028320    -1.0219250     1.7735780
  H       -1.7862700     1.5949720    -1.5186410
  H        0.3236690    -1.6661200    -0.4241870
  H       -3.1324200    -2.0992380     1.5176810
  H       -4.0389250     0.5738560    -1.7308950
  H       -4.7117870    -1.2913710    -0.2288330
  H        2.5003580    -2.8034100    -0.7313100
  H        4.4376410     0.9347650     0.1641390
  H        4.6312890    -1.4915970    -0.4182900
units angstrom
no_reorient  #important for SAPT in psi4, default
symmetry c1  #important for SAPT in psi4, default
}

set PROPERTIES_ORIGIN ["COM"]
properties('MP2/aug-cc-pvtz', properties = ['dipole'])
--------------------------------------------------------------------------

    Molecular point group: c1
  Charge       = 0
  Multiplicity = 1
  Basis Set: AUG-CC-PVTZ
    Blend: AUG-CC-PVTZ
  Basis Set: (AUG-CC-PVTZ AUX)
    Blend: AUG-CC-PVTZ-JKFIT

    Orbital Energies [Eh]
    ---------------------

    Doubly Occupied:

       1A    -15.579274     2A    -15.550354     3A    -11.318282
       4A    -11.277355     5A    -11.273236     6A    -11.254725
       7A    -11.254097     8A    -11.242707     9A    -11.242113
      10A    -11.237447    11A    -11.236586    12A    -11.235448
      13A    -11.226751    14A    -11.223102    15A     -1.296373
      16A     -1.223857    17A     -1.141510    18A     -1.079291
      19A     -1.029770    20A     -1.019791    21A     -1.000398
      22A     -0.928554    23A     -0.861970    24A     -0.845786
      25A     -0.833231    26A     -0.791227    27A     -0.732688
      28A     -0.691689    29A     -0.669224    30A     -0.659644
      31A     -0.648722    32A     -0.627250    33A     -0.614452
      34A     -0.601705    35A     -0.589588    36A     -0.580442
      37A     -0.569940    38A     -0.539563    39A     -0.536170
      40A     -0.527254    41A     -0.512890    42A     -0.506159
      43A     -0.498834    44A     -0.431906    45A     -0.413897
      46A     -0.377771    47A     -0.343072    48A     -0.338086
      49A     -0.287169

  @DF-RHF Final Energy:  -570.48115659129508

   => Energetics <=

    Nuclear Repulsion Energy =            820.1846561288763269
    One-Electron Energy =               -2400.3289271276730688
    Two-Electron Energy =                1009.6631144075017801
    Total Energy =                       -570.4811565912950755
  Basis Set: (AUG-CC-PVTZ AUX)
    Blend: AUG-CC-PVTZ-RI
    Molecular point group: c1

    Geometry (in Angstrom), charge = 0, multiplicity = 1:

       Center              X                  Y                   Z               Mass
    ------------   -----------------  -----------------  -----------------  -----------------
         N            0.032608660491     0.922094754228     0.290413615801    14.003074004430
         N            2.368727860491     0.964984354228     0.218492515801    14.003074004430
         C           -1.209149139509     0.351510354228     0.134138515801    12.000000000000
         C            1.233517860491     0.253065354228     0.079660515801    12.000000000000
         C            0.130166860491     2.421095354228     0.330863515801    12.000000000000
         C           -1.596902139509    -0.690466645772     0.989964515801    12.000000000000
         C           -2.099791139509     0.804317354228    -0.849130484199    12.000000000000
         C            1.239677860491    -1.114704645772    -0.274457484199    12.000000000000
         C           -2.850315139509    -1.284160645772     0.846572515801    12.000000000000
         C           -3.363002139509     0.222653354228    -0.969829484199    12.000000000000
         C           -3.740139139509    -0.826904645772    -0.129657484199    12.000000000000
         C            2.462701860491    -1.743445645772    -0.454718484199    12.000000000000
         C            3.538817860491     0.326027354228     0.038260515801    12.000000000000
         C            3.648066860491    -1.020345645772    -0.287451484199    12.000000000000
         H            0.881378860491     2.731583354228     1.057201515801     1.007825032230
         H           -0.849846139509     2.795673354228     0.629790515801     1.007825032230
         H            0.406480860491     2.845412354228    -0.642648484199     1.007825032230
         H           -0.912875139509    -1.013086645772     1.771362515801     1.007825032230
         H           -1.796313139509     1.603810354228    -1.520856484199     1.007825032230
         H            0.313625860491    -1.657281645772    -0.426402484199     1.007825032230
         H           -3.142463139509    -2.090399645772     1.515465515801     1.007825032230
         H           -4.048968139509     0.582694354228    -1.733110484199     1.007825032230
         H           -4.721830139509    -1.282532645772    -0.231048484199     1.007825032230
         H            2.490314860491    -2.794571645772    -0.733525484199     1.007825032230
         H            4.427597860491     0.943603354228     0.161923515801     1.007825032230
         H            4.621245860491    -1.482758645772    -0.420505484199     1.007825032230

  Basis Set: AUG-CC-PVTZ
    Blend: AUG-CC-PVTZ
  Basis Set: (AUG-CC-PVTZ AUX)
    Blend: AUG-CC-PVTZ-JKFIT
	 Reference Energy          =    -570.4811565912950755 [Eh]
	 Singles Energy            =      -0.0000000000000000 [Eh]
	 Same-Spin Energy          =      -0.6374073576073496 [Eh]
	 Opposite-Spin Energy      =      -1.9743889223269728 [Eh]
	 Correlation Energy        =      -2.6117962799343224 [Eh]
	 Total Energy              =    -573.0929528712293859 [Eh]

	 ================> DF-SCS-MP2 Energies <==================
	-----------------------------------------------------------
	 SCS Same-Spin Scale       =       0.3333333333333333 [-]
	 SCS Opposite-Spin Scale   =       1.2000000000000000 [-]
	 SCS Same-Spin Energy      =      -0.2124691192024498 [Eh]
	 SCS Opposite-Spin Energy  =      -2.3692667067923674 [Eh]
	 SCS Correlation Energy    =      -2.5817358259948171 [Eh]
	 SCS Total Energy          =    -573.0628924172898451 [Eh]
	-----------------------------------------------------------

  Dipole Moment: [D]
     X:    -1.0576      Y:    -0.7852      Z:    -0.4272     Total:     1.3848

*** Psi4 exiting successfully. Buy a developer a beer!
