                               Psi4 1.3.2 release

  ==> Input File <==

--------------------------------------------------------------------------
#psi4
#
memory 32 gb

molecule  {
0 1
  N        0.0678190     0.9536280     0.3022870
  N        2.3787710     0.9561460     0.2207080
  C       -1.1991060     0.3426720     0.1363540
  C        1.2435610     0.2442270     0.0818760
  C        0.1352543     2.3124021     0.3309710
  C       -1.5868590    -0.6993050     0.9921800
  C       -2.0897480     0.7954790    -0.8469150
  C        1.2497210    -1.1235430    -0.2722420
  C       -2.8402720    -1.2929990     0.8487880
  C       -3.3529590     0.2138150    -0.9676140
  C       -3.7300960    -0.8357430    -0.1274420
  C        2.4727450    -1.7522840    -0.4525030
  C        3.5488610     0.3171890     0.0404760
  C        3.6581100    -1.0291840    -0.2852360
  H        0.8914220     2.7227450     1.0594170
  H       -0.8398030     2.7868350     0.6320060
  H        0.4165240     2.8365740    -0.6404330
  H       -0.9028320    -1.0219250     1.7735780
  H       -1.7862700     1.5949720    -1.5186410
  H        0.3236690    -1.6661200    -0.4241870
  H       -3.1324200    -2.0992380     1.5176810
  H       -4.0389250     0.5738560    -1.7308950
  H       -4.7117870    -1.2913710    -0.2288330
  H        2.5003580    -2.8034100    -0.7313100
  H        4.4376410     0.9347650     0.1641390
  H        4.6312890    -1.4915970    -0.4182900
units angstrom
no_reorient  #important for SAPT in psi4, default
symmetry c1  #important for SAPT in psi4, default
}

set PROPERTIES_ORIGIN ["COM"]
properties('MP2/aug-cc-pvtz', properties = ['dipole'])
--------------------------------------------------------------------------

    Molecular point group: c1
  Charge       = 0
  Multiplicity = 1
  Basis Set: AUG-CC-PVTZ
    Blend: AUG-CC-PVTZ
  Basis Set: (AUG-CC-PVTZ AUX)
    Blend: AUG-CC-PVTZ-JKFIT

    Orbital Energies [Eh]
    ---------------------

    Doubly Occupied:

       1A    -15.580822     2A    -15.551220     3A    -11.319031
       4A    -11.282215     5A    -11.273907     6A    -11.256626
       7A    -11.249296     8A    -11.244858     9A    -11.244647
      10A    -11.240945    11A    -11.239938    12A    -11.239771
      13A    -11.230142    14A    -11.225160    15A     -1.310667
      16A     -1.228430    17A     -1.148123    18A     -1.081238
      19A     -1.031530    20A     -1.022544    21A     -1.011432
      22A     -0.921881    23A     -0.864000    24A     -0.843399
      25A     -0.834976    26A     -0.792911    27A     -0.734752
      28A     -0.699769    29A     -0.675551    30A     -0.661411
      31A     -0.652043    32A     -0.635614    33A     -0.616172
      34A     -0.606751    35A     -0.596064    36A     -0.587262
      37A     -0.570133    38A     -0.531086    39A     -0.529332
      40A     -0.522992    41A     -0.511609    42A     -0.503088
      43A     -0.499712    44A     -0.422515    45A     -0.413759
      46A     -0.378868    47A     -0.345624    48A     -0.341065
      49A     -0.290371

  @DF-RHF Final Energy:  -570.47326770322422

   => Energetics <=

    Nuclear Repulsion Energy =            822.1342786076021412
    One-Electron Energy =               -2404.0245942253436624
    Two-Electron Energy =                1011.4170479145174113
    Total Energy =                       -570.4732677032242236
  Basis Set: (AUG-CC-PVTZ AUX)
    Blend: AUG-CC-PVTZ-RI
    Molecular point group: c1

    Geometry (in Angstrom), charge = 0, multiplicity = 1:

       Center              X                  Y                   Z               Mass
    ------------   -----------------  -----------------  -----------------  -----------------
         N            0.056184607438     0.965904334299     0.299474317215    14.003074004430
         N            2.367136607438     0.968422334299     0.217895317215    14.003074004430
         C           -1.210740392562     0.354948334299     0.133541317215    12.000000000000
         C            1.231926607438     0.256503334299     0.079063317215    12.000000000000
         C            0.123619907438     2.324678434299     0.328158317215    12.000000000000
         C           -1.598493392562    -0.687028665701     0.989367317215    12.000000000000
         C           -2.101382392562     0.807755334299    -0.849727682785    12.000000000000
         C            1.238086607438    -1.111266665701    -0.275054682785    12.000000000000
         C           -2.851906392562    -1.280722665701     0.845975317215    12.000000000000
         C           -3.364593392562     0.226091334299    -0.970426682785    12.000000000000
         C           -3.741730392562    -0.823466665701    -0.130254682785    12.000000000000
         C            2.461110607438    -1.740007665701    -0.455315682785    12.000000000000
         C            3.537226607438     0.329465334299     0.037663317215    12.000000000000
         C            3.646475607438    -1.016907665701    -0.288048682785    12.000000000000
         H            0.879787607438     2.735021334299     1.056604317215     1.007825032230
         H           -0.851437392562     2.799111334299     0.629193317215     1.007825032230
         H            0.404889607438     2.848850334299    -0.643245682785     1.007825032230
         H           -0.914466392562    -1.009648665701     1.770765317215     1.007825032230
         H           -1.797904392562     1.607248334299    -1.521453682785     1.007825032230
         H            0.312034607438    -1.653843665701    -0.426999682785     1.007825032230
         H           -3.144054392562    -2.086961665701     1.514868317215     1.007825032230
         H           -4.050559392562     0.586132334299    -1.733707682785     1.007825032230
         H           -4.723421392562    -1.279094665701    -0.231645682785     1.007825032230
         H            2.488723607438    -2.791133665701    -0.734122682785     1.007825032230
         H            4.426006607438     0.947041334299     0.161326317215     1.007825032230
         H            4.619654607438    -1.479320665701    -0.421102682785     1.007825032230

  Basis Set: AUG-CC-PVTZ
    Blend: AUG-CC-PVTZ
  Basis Set: (AUG-CC-PVTZ AUX)
    Blend: AUG-CC-PVTZ-JKFIT
	 Reference Energy          =    -570.4732677032242236 [Eh]
	 Singles Energy            =      -0.0000000000000000 [Eh]
	 Same-Spin Energy          =      -0.6382025795536895 [Eh]
	 Opposite-Spin Energy      =      -1.9747350856991841 [Eh]
	 Correlation Energy        =      -2.6129376652528737 [Eh]
	 Total Energy              =    -573.0862053684770672 [Eh]

	 ================> DF-SCS-MP2 Energies <==================
	-----------------------------------------------------------
	 SCS Same-Spin Scale       =       0.3333333333333333 [-]
	 SCS Opposite-Spin Scale   =       1.2000000000000000 [-]
	 SCS Same-Spin Energy      =      -0.2127341931845632 [Eh]
	 SCS Opposite-Spin Energy  =      -2.3696821028390209 [Eh]
	 SCS Correlation Energy    =      -2.5824162960235841 [Eh]
	 SCS Total Energy          =    -573.0556839992477762 [Eh]
	-----------------------------------------------------------

  Dipole Moment: [D]
     X:    -1.1787      Y:    -1.2522      Z:    -0.4369     Total:     1.7743

*** Psi4 exiting successfully. Buy a developer a beer!
