                               Psi4 1.3.2 release

  ==> Input File <==

--------------------------------------------------------------------------
#psi4
#
memory 32 gb

molecule  {
0 1
  N        0.0678190     0.9536280     0.3022870
  N        2.3787710     0.9561460     0.2207080
  C       -1.1991060     0.3426720     0.1363540
  C        1.2435610     0.2442270     0.0818760
  C        0.1451657     2.5121119     0.3351870
  C       -1.5868590    -0.6993050     0.9921800
  C       -2.0897480     0.7954790    -0.8469150
  C        1.2497210    -1.1235430    -0.2722420
  C       -2.8402720    -1.2929990     0.8487880
  C       -3.3529590     0.2138150    -0.9676140
  C       -3.7300960    -0.8357430    -0.1274420
  C        2.4727450    -1.7522840    -0.4525030
  C        3.5488610     0.3171890     0.0404760
  C        3.6581100    -1.0291840    -0.2852360
  H        0.8914220     2.7227450     1.0594170
  H       -0.8398030     2.7868350     0.6320060
  H        0.4165240     2.8365740    -0.6404330
  H       -0.9028320    -1.0219250     1.7735780
  H       -1.7862700     1.5949720    -1.5186410
  H        0.3236690    -1.6661200    -0.4241870
  H       -3.1324200    -2.0992380     1.5176810
  H       -4.0389250     0.5738560    -1.7308950
  H       -4.7117870    -1.2913710    -0.2288330
  H        2.5003580    -2.8034100    -0.7313100
  H        4.4376410     0.9347650     0.1641390
  H        4.6312890    -1.4915970    -0.4182900
units angstrom
no_reorient  #important for SAPT in psi4, default
symmetry c1  #important for SAPT in psi4, default
}

set PROPERTIES_ORIGIN ["COM"]
properties('MP2/aug-cc-pvtz', properties = ['dipole'])
--------------------------------------------------------------------------

    Molecular point group: c1
  Charge       = 0
  Multiplicity = 1
  Basis Set: AUG-CC-PVTZ
    Blend: AUG-CC-PVTZ
  Basis Set: (AUG-CC-PVTZ AUX)
    Blend: AUG-CC-PVTZ-JKFIT

    Orbital Energies [Eh]
    ---------------------

    Doubly Occupied:

       1A    -15.576047     2A    -15.546957     3A    -11.315268
       4A    -11.278469     5A    -11.271275     6A    -11.253637
       7A    -11.253571     8A    -11.242715     9A    -11.242273
      10A    -11.237806    11A    -11.236819    12A    -11.236028
      13A    -11.225123    14A    -11.220673    15A     -1.284363
      16A     -1.213171    17A     -1.140201    18A     -1.077266
      19A     -1.026042    20A     -1.018894    21A     -0.999812
      22A     -0.933026    23A     -0.857408    24A     -0.842641
      25A     -0.831628    26A     -0.790558    27A     -0.726740
      28A     -0.689617    29A     -0.664260    30A     -0.655040
      31A     -0.645512    32A     -0.624960    33A     -0.615929
      34A     -0.604872    35A     -0.589087    36A     -0.579421
      37A     -0.568608    38A     -0.547987    39A     -0.541416
      40A     -0.524636    41A     -0.509786    42A     -0.504924
      43A     -0.497642    44A     -0.432535    45A     -0.412499
      46A     -0.375871    47A     -0.342799    48A     -0.337324
      49A     -0.286064

  @DF-RHF Final Energy:  -570.47658277689311

   => Energetics <=

    Nuclear Repulsion Energy =            817.5446759353064863
    One-Electron Energy =               -2395.1841155361262281
    Two-Electron Energy =                1007.1628568239266315
    Total Energy =                       -570.4765827768931103
  Basis Set: (AUG-CC-PVTZ AUX)
    Blend: AUG-CC-PVTZ-RI
    Molecular point group: c1

    Geometry (in Angstrom), charge = 0, multiplicity = 1:

       Center              X                  Y                   Z               Mass
    ------------   -----------------  -----------------  -----------------  -----------------
         N            0.055538563067     0.952886860263     0.299199510118    14.003074004430
         N            2.366490563067     0.955404860263     0.217620510118    14.003074004430
         C           -1.211386436933     0.341930860263     0.133266510118    12.000000000000
         C            1.231280563067     0.243485860263     0.078788510118    12.000000000000
         C            0.132885263067     2.511370760263     0.332099510118    12.000000000000
         C           -1.599139436933    -0.700046139737     0.989092510118    12.000000000000
         C           -2.102028436933     0.794737860263    -0.850002489882    12.000000000000
         C            1.237440563067    -1.124284139737    -0.275329489882    12.000000000000
         C           -2.852552436933    -1.293740139737     0.845700510118    12.000000000000
         C           -3.365239436933     0.213073860263    -0.970701489882    12.000000000000
         C           -3.742376436933    -0.836484139737    -0.130529489882    12.000000000000
         C            2.460464563067    -1.753025139737    -0.455590489882    12.000000000000
         C            3.536580563067     0.316447860263     0.037388510118    12.000000000000
         C            3.645829563067    -1.029925139737    -0.288323489882    12.000000000000
         H            0.879141563067     2.722003860263     1.056329510118     1.007825032230
         H           -0.852083436933     2.786093860263     0.628918510118     1.007825032230
         H            0.404243563067     2.835832860263    -0.643520489882     1.007825032230
         H           -0.915112436933    -1.022666139737     1.770490510118     1.007825032230
         H           -1.798550436933     1.594230860263    -1.521728489882     1.007825032230
         H            0.311388563067    -1.666861139737    -0.427274489882     1.007825032230
         H           -3.144700436933    -2.099979139737     1.514593510118     1.007825032230
         H           -4.051205436933     0.573114860263    -1.733982489882     1.007825032230
         H           -4.724067436933    -1.292112139737    -0.231920489882     1.007825032230
         H            2.488077563067    -2.804151139737    -0.734397489882     1.007825032230
         H            4.425360563067     0.934023860263     0.161051510118     1.007825032230
         H            4.619008563067    -1.492338139737    -0.421377489882     1.007825032230

  Basis Set: AUG-CC-PVTZ
    Blend: AUG-CC-PVTZ
  Basis Set: (AUG-CC-PVTZ AUX)
    Blend: AUG-CC-PVTZ-JKFIT
	 Reference Energy          =    -570.4765827768931103 [Eh]
	 Singles Energy            =      -0.0000000000000000 [Eh]
	 Same-Spin Energy          =      -0.6367884430567087 [Eh]
	 Opposite-Spin Energy      =      -1.9743329636006766 [Eh]
	 Correlation Energy        =      -2.6111214066573853 [Eh]
	 Total Energy              =    -573.0877041835504997 [Eh]

	 ================> DF-SCS-MP2 Energies <==================
	-----------------------------------------------------------
	 SCS Same-Spin Scale       =       0.3333333333333333 [-]
	 SCS Opposite-Spin Scale   =       1.2000000000000000 [-]
	 SCS Same-Spin Energy      =      -0.2122628143522362 [Eh]
	 SCS Opposite-Spin Energy  =      -2.3691995563208117 [Eh]
	 SCS Correlation Energy    =      -2.5814623706730480 [Eh]
	 SCS Total Energy          =    -573.0580451475661903 [Eh]
	-----------------------------------------------------------

  Dipole Moment: [D]
     X:    -1.2199      Y:    -0.6016      Z:    -0.4330     Total:     1.4274

*** Psi4 exiting successfully. Buy a developer a beer!
