                               Psi4 1.3.2 release

  ==> Input File <==

--------------------------------------------------------------------------
#psi4
#
memory 32 gb

molecule  {
0 1
  N        0.0723924     0.9384853     0.3212817
  N        2.3787710     0.9561460     0.2207080
  C       -1.1991060     0.3426720     0.1363540
  C        1.2435610     0.2442270     0.0818760
  C        0.1402100     2.4122570     0.3330790
  C       -1.5868590    -0.6993050     0.9921800
  C       -2.0897480     0.7954790    -0.8469150
  C        1.2497210    -1.1235430    -0.2722420
  C       -2.8402720    -1.2929990     0.8487880
  C       -3.3529590     0.2138150    -0.9676140
  C       -3.7300960    -0.8357430    -0.1274420
  C        2.4727450    -1.7522840    -0.4525030
  C        3.5488610     0.3171890     0.0404760
  C        3.6581100    -1.0291840    -0.2852360
  H        0.8914220     2.7227450     1.0594170
  H       -0.8398030     2.7868350     0.6320060
  H        0.4165240     2.8365740    -0.6404330
  H       -0.9028320    -1.0219250     1.7735780
  H       -1.7862700     1.5949720    -1.5186410
  H        0.3236690    -1.6661200    -0.4241870
  H       -3.1324200    -2.0992380     1.5176810
  H       -4.0389250     0.5738560    -1.7308950
  H       -4.7117870    -1.2913710    -0.2288330
  H        2.5003580    -2.8034100    -0.7313100
  H        4.4376410     0.9347650     0.1641390
  H        4.6312890    -1.4915970    -0.4182900
units angstrom
no_reorient  #important for SAPT in psi4, default
symmetry c1  #important for SAPT in psi4, default
}

set PROPERTIES_ORIGIN ["COM"]
properties('MP2/aug-cc-pvtz', properties = ['dipole'])
--------------------------------------------------------------------------

    Molecular point group: c1
  Charge       = 0
  Multiplicity = 1
  Basis Set: AUG-CC-PVTZ
    Blend: AUG-CC-PVTZ
  Basis Set: (AUG-CC-PVTZ AUX)
    Blend: AUG-CC-PVTZ-JKFIT

    Orbital Energies [Eh]
    ---------------------

    Doubly Occupied:

       1A    -15.579974     2A    -15.548365     3A    -11.316427
       4A    -11.280368     5A    -11.272275     6A    -11.254645
       7A    -11.251068     8A    -11.244054     9A    -11.243300
      10A    -11.239998    11A    -11.238437    12A    -11.237560
      13A    -11.226713    14A    -11.222187    15A     -1.295329
      16A     -1.219699    17A     -1.143980    18A     -1.078752
      19A     -1.028525    20A     -1.020746    21A     -1.003486
      22A     -0.927557    23A     -0.860562    24A     -0.843012
      25A     -0.833526    26A     -0.792036    27A     -0.730714
      28A     -0.693119    29A     -0.669199    30A     -0.658103
      31A     -0.647831    32A     -0.628610    33A     -0.614317
      34A     -0.602918    35A     -0.590719    36A     -0.582717
      37A     -0.567470    38A     -0.540084    39A     -0.535226
      40A     -0.527494    41A     -0.511489    42A     -0.505670
      43A     -0.500682    44A     -0.431793    45A     -0.413011
      46A     -0.377022    47A     -0.344128    48A     -0.339166
      49A     -0.288625

  @DF-RHF Final Energy:  -570.48384954934784

   => Energetics <=

    Nuclear Repulsion Energy =            819.7917989997405357
    One-Electron Energy =               -2399.5459211140223488
    Two-Electron Energy =                1009.2702725649340891
    Total Energy =                       -570.4838495493478376
  Basis Set: (AUG-CC-PVTZ AUX)
    Blend: AUG-CC-PVTZ-RI
    Molecular point group: c1

    Geometry (in Angstrom), charge = 0, multiplicity = 1:

       Center              X                  Y                   Z               Mass
    ------------   -----------------  -----------------  -----------------  -----------------
         N            0.060087121908     0.945404685945     0.316886833005    14.003074004430
         N            2.366465721908     0.963065385945     0.216313133005    14.003074004430
         C           -1.211411278092     0.349591385945     0.131959133005    12.000000000000
         C            1.231255721908     0.251146385945     0.077481133005    12.000000000000
         C            0.127904721908     2.419176385945     0.328684133005    12.000000000000
         C           -1.599164278092    -0.692385614055     0.987785133005    12.000000000000
         C           -2.102053278092     0.802398385945    -0.851309866995    12.000000000000
         C            1.237415721908    -1.116623614055    -0.276636866995    12.000000000000
         C           -2.852577278092    -1.286079614055     0.844393133005    12.000000000000
         C           -3.365264278092     0.220734385945    -0.972008866995    12.000000000000
         C           -3.742401278092    -0.828823614055    -0.131836866995    12.000000000000
         C            2.460439721908    -1.745364614055    -0.456897866995    12.000000000000
         C            3.536555721908     0.324108385945     0.036081133005    12.000000000000
         C            3.645804721908    -1.022264614055    -0.289630866995    12.000000000000
         H            0.879116721908     2.729664385945     1.055022133005     1.007825032230
         H           -0.852108278092     2.793754385945     0.627611133005     1.007825032230
         H            0.404218721908     2.843493385945    -0.644827866995     1.007825032230
         H           -0.915137278092    -1.015005614055     1.769183133005     1.007825032230
         H           -1.798575278092     1.601891385945    -1.523035866995     1.007825032230
         H            0.311363721908    -1.659200614055    -0.428581866995     1.007825032230
         H           -3.144725278092    -2.092318614055     1.513286133005     1.007825032230
         H           -4.051230278092     0.580775385945    -1.735289866995     1.007825032230
         H           -4.724092278092    -1.284451614055    -0.233227866995     1.007825032230
         H            2.488052721908    -2.796490614055    -0.735704866995     1.007825032230
         H            4.425335721908     0.941684385945     0.159744133005     1.007825032230
         H            4.618983721908    -1.484677614055    -0.422684866995     1.007825032230

  Basis Set: AUG-CC-PVTZ
    Blend: AUG-CC-PVTZ
  Basis Set: (AUG-CC-PVTZ AUX)
    Blend: AUG-CC-PVTZ-JKFIT
	 Reference Energy          =    -570.4838495493478376 [Eh]
	 Singles Energy            =      -0.0000000000000000 [Eh]
	 Same-Spin Energy          =      -0.6370673355929457 [Eh]
	 Opposite-Spin Energy      =      -1.9739894779346900 [Eh]
	 Correlation Energy        =      -2.6110568135276360 [Eh]
	 Total Energy              =    -573.0949063628754629 [Eh]

	 ================> DF-SCS-MP2 Energies <==================
	-----------------------------------------------------------
	 SCS Same-Spin Scale       =       0.3333333333333333 [-]
	 SCS Opposite-Spin Scale   =       1.2000000000000000 [-]
	 SCS Same-Spin Energy      =      -0.2123557785309819 [Eh]
	 SCS Opposite-Spin Energy  =      -2.3687873735216280 [Eh]
	 SCS Correlation Energy    =      -2.5811431520526100 [Eh]
	 SCS Total Energy          =    -573.0649927014004561 [Eh]
	-----------------------------------------------------------

  Dipole Moment: [D]
     X:    -1.2361      Y:    -0.8584      Z:    -0.4588     Total:     1.5733

*** Psi4 exiting successfully. Buy a developer a beer!
