                               Psi4 1.3.2 release

  ==> Input File <==

--------------------------------------------------------------------------
#psi4
#
memory 32 gb

molecule  {
0 1
  N        0.1042245     0.9519596     0.3379457
  N        2.3787710     0.9561460     0.2207080
  C       -1.1991060     0.3426720     0.1363540
  C        1.2435610     0.2442270     0.0818760
  C        0.1402100     2.4122570     0.3330790
  C       -1.5868590    -0.6993050     0.9921800
  C       -2.0897480     0.7954790    -0.8469150
  C        1.2497210    -1.1235430    -0.2722420
  C       -2.8402720    -1.2929990     0.8487880
  C       -3.3529590     0.2138150    -0.9676140
  C       -3.7300960    -0.8357430    -0.1274420
  C        2.4727450    -1.7522840    -0.4525030
  C        3.5488610     0.3171890     0.0404760
  C        3.6581100    -1.0291840    -0.2852360
  H        0.8914220     2.7227450     1.0594170
  H       -0.8398030     2.7868350     0.6320060
  H        0.4165240     2.8365740    -0.6404330
  H       -0.9028320    -1.0219250     1.7735780
  H       -1.7862700     1.5949720    -1.5186410
  H        0.3236690    -1.6661200    -0.4241870
  H       -3.1324200    -2.0992380     1.5176810
  H       -4.0389250     0.5738560    -1.7308950
  H       -4.7117870    -1.2913710    -0.2288330
  H        2.5003580    -2.8034100    -0.7313100
  H        4.4376410     0.9347650     0.1641390
  H        4.6312890    -1.4915970    -0.4182900
units angstrom
no_reorient  #important for SAPT in psi4, default
symmetry c1  #important for SAPT in psi4, default
}

set PROPERTIES_ORIGIN ["COM"]
properties('MP2/aug-cc-pvtz', properties = ['dipole'])
--------------------------------------------------------------------------

    Molecular point group: c1
  Charge       = 0
  Multiplicity = 1
  Basis Set: AUG-CC-PVTZ
    Blend: AUG-CC-PVTZ
  Basis Set: (AUG-CC-PVTZ AUX)
    Blend: AUG-CC-PVTZ-JKFIT

    Orbital Energies [Eh]
    ---------------------

    Doubly Occupied:

       1A    -15.581161     2A    -15.545762     3A    -11.314240
       4A    -11.283251     5A    -11.271024     6A    -11.254048
       7A    -11.249898     8A    -11.245419     9A    -11.244472
      10A    -11.242385    11A    -11.240138    12A    -11.239495
      13A    -11.225779    14A    -11.220488    15A     -1.296527
      16A     -1.216032    17A     -1.146362    18A     -1.077723
      19A     -1.028102    20A     -1.021561    21A     -1.005372
      22A     -0.927963    23A     -0.860007    24A     -0.840439
      25A     -0.833935    26A     -0.792539    27A     -0.729547
      28A     -0.694083    29A     -0.669403    30A     -0.657004
      31A     -0.647618    32A     -0.629349    33A     -0.613953
      34A     -0.603839    35A     -0.591675    36A     -0.585147
      37A     -0.565015    38A     -0.541298    39A     -0.534498
      40A     -0.527138    41A     -0.510959    42A     -0.505107
      43A     -0.501159    44A     -0.432640    45A     -0.411682
      46A     -0.376017    47A     -0.345162    48A     -0.340281
      49A     -0.288676

  @DF-RHF Final Energy:  -570.48245507022614

   => Energetics <=

    Nuclear Repulsion Energy =            819.5961115275757720
    One-Electron Energy =               -2399.1463820493190724
    Two-Electron Energy =                1009.0678154515170490
    Total Energy =                       -570.4824550702261377
  Basis Set: (AUG-CC-PVTZ AUX)
    Blend: AUG-CC-PVTZ-RI
    Molecular point group: c1

    Geometry (in Angstrom), charge = 0, multiplicity = 1:

       Center              X                  Y                   Z               Mass
    ------------   -----------------  -----------------  -----------------  -----------------
         N            0.089497999013     0.957854099631     0.332283330757    14.003074004430
         N            2.364044499013     0.962040499631     0.215045630757    14.003074004430
         C           -1.213832500987     0.348566499631     0.130691630757    12.000000000000
         C            1.228834499013     0.250121499631     0.076213630757    12.000000000000
         C            0.125483499013     2.418151499631     0.327416630757    12.000000000000
         C           -1.601585500987    -0.693410500369     0.986517630757    12.000000000000
         C           -2.104474500987     0.801373499631    -0.852577369243    12.000000000000
         C            1.234994499013    -1.117648500369    -0.277904369243    12.000000000000
         C           -2.854998500987    -1.287104500369     0.843125630757    12.000000000000
         C           -3.367685500987     0.219709499631    -0.973276369243    12.000000000000
         C           -3.744822500987    -0.829848500369    -0.133104369243    12.000000000000
         C            2.458018499013    -1.746389500369    -0.458165369243    12.000000000000
         C            3.534134499013     0.323083499631     0.034813630757    12.000000000000
         C            3.643383499013    -1.023289500369    -0.290898369243    12.000000000000
         H            0.876695499013     2.728639499631     1.053754630757     1.007825032230
         H           -0.854529500987     2.792729499631     0.626343630757     1.007825032230
         H            0.401797499013     2.842468499631    -0.646095369243     1.007825032230
         H           -0.917558500987    -1.016030500369     1.767915630757     1.007825032230
         H           -1.800996500987     1.600866499631    -1.524303369243     1.007825032230
         H            0.308942499013    -1.660225500369    -0.429849369243     1.007825032230
         H           -3.147146500987    -2.093343500369     1.512018630757     1.007825032230
         H           -4.053651500987     0.579750499631    -1.736557369243     1.007825032230
         H           -4.726513500987    -1.285476500369    -0.234495369243     1.007825032230
         H            2.485631499013    -2.797515500369    -0.736972369243     1.007825032230
         H            4.422914499013     0.940659499631     0.158476630757     1.007825032230
         H            4.616562499013    -1.485702500369    -0.423952369243     1.007825032230

  Basis Set: AUG-CC-PVTZ
    Blend: AUG-CC-PVTZ
  Basis Set: (AUG-CC-PVTZ AUX)
    Blend: AUG-CC-PVTZ-JKFIT
	 Reference Energy          =    -570.4824550702261377 [Eh]
	 Singles Energy            =      -0.0000000000000000 [Eh]
	 Same-Spin Energy          =      -0.6368859142742135 [Eh]
	 Opposite-Spin Energy      =      -1.9739175990205555 [Eh]
	 Correlation Energy        =      -2.6108035132947691 [Eh]
	 Total Energy              =    -573.0932585835208783 [Eh]

	 ================> DF-SCS-MP2 Energies <==================
	-----------------------------------------------------------
	 SCS Same-Spin Scale       =       0.3333333333333333 [-]
	 SCS Opposite-Spin Scale   =       1.2000000000000000 [-]
	 SCS Same-Spin Energy      =      -0.2122953047580712 [Eh]
	 SCS Opposite-Spin Energy  =      -2.3687011188246667 [Eh]
	 SCS Correlation Energy    =      -2.5809964235827381 [Eh]
	 SCS Total Energy          =    -573.0634514938088842 [Eh]
	-----------------------------------------------------------

  Dipole Moment: [D]
     X:    -1.4530      Y:    -0.8718      Z:    -0.4695     Total:     1.7583

*** Psi4 exiting successfully. Buy a developer a beer!
