                               Psi4 1.3.2 release

  ==> Input File <==

--------------------------------------------------------------------------
#psi4
#
memory 32 gb

molecule  {
0 1
  N        0.0678190     0.9536280     0.3022870
  N        2.3787710     0.9561460     0.2207080
  C       -1.1991060     0.3426720     0.1363540
  C        1.1740422     0.3632340     0.1116729
  C        0.1402100     2.4122570     0.3330790
  C       -1.5868590    -0.6993050     0.9921800
  C       -2.0897480     0.7954790    -0.8469150
  C        1.2497210    -1.1235430    -0.2722420
  C       -2.8402720    -1.2929990     0.8487880
  C       -3.3529590     0.2138150    -0.9676140
  C       -3.7300960    -0.8357430    -0.1274420
  C        2.4727450    -1.7522840    -0.4525030
  C        3.5488610     0.3171890     0.0404760
  C        3.6581100    -1.0291840    -0.2852360
  H        0.8914220     2.7227450     1.0594170
  H       -0.8398030     2.7868350     0.6320060
  H        0.4165240     2.8365740    -0.6404330
  H       -0.9028320    -1.0219250     1.7735780
  H       -1.7862700     1.5949720    -1.5186410
  H        0.3236690    -1.6661200    -0.4241870
  H       -3.1324200    -2.0992380     1.5176810
  H       -4.0389250     0.5738560    -1.7308950
  H       -4.7117870    -1.2913710    -0.2288330
  H        2.5003580    -2.8034100    -0.7313100
  H        4.4376410     0.9347650     0.1641390
  H        4.6312890    -1.4915970    -0.4182900
units angstrom
no_reorient  #important for SAPT in psi4, default
symmetry c1  #important for SAPT in psi4, default
}

set PROPERTIES_ORIGIN ["COM"]
properties('MP2/aug-cc-pvtz', properties = ['dipole'])
--------------------------------------------------------------------------

    Molecular point group: c1
  Charge       = 0
  Multiplicity = 1
  Basis Set: AUG-CC-PVTZ
    Blend: AUG-CC-PVTZ
  Basis Set: (AUG-CC-PVTZ AUX)
    Blend: AUG-CC-PVTZ-JKFIT

    Orbital Energies [Eh]
    ---------------------

    Doubly Occupied:

       1A    -15.597373     2A    -15.533148     3A    -11.321619
       4A    -11.292130     5A    -11.264185     6A    -11.259584
       7A    -11.251133     8A    -11.250265     9A    -11.249558
      10A    -11.247380    11A    -11.246504    12A    -11.243409
      13A    -11.227295    14A    -11.208949    15A     -1.331973
      16A     -1.213766    17A     -1.155984    18A     -1.064874
      19A     -1.032154    20A     -1.028802    21A     -1.001553
      22A     -0.942844    23A     -0.871507    24A     -0.843957
      25A     -0.826519    26A     -0.789469    27A     -0.743455
      28A     -0.696808    29A     -0.675428    30A     -0.663142
      31A     -0.661550    32A     -0.631418    33A     -0.612603
      34A     -0.610085    35A     -0.597572    36A     -0.579376
      37A     -0.566290    38A     -0.542215    39A     -0.530254
      40A     -0.528103    41A     -0.518011    42A     -0.510585
      43A     -0.506987    44A     -0.446075    45A     -0.384213
      46A     -0.370174    47A     -0.350512    48A     -0.343451
      49A     -0.276039

  @DF-RHF Final Energy:  -570.45899369373751

   => Energetics <=

    Nuclear Repulsion Energy =            820.3046164701114549
    One-Electron Energy =               -2400.2466637242118850
    Two-Electron Energy =                1009.4830535603630324
    Total Energy =                       -570.4589936937375114
  Basis Set: (AUG-CC-PVTZ AUX)
    Blend: AUG-CC-PVTZ-RI
    Molecular point group: c1

    Geometry (in Angstrom), charge = 0, multiplicity = 1:

       Center              X                  Y                   Z               Mass
    ------------   -----------------  -----------------  -----------------  -----------------
         N            0.060392956142     0.951638489054     0.297394693645    14.003074004430
         N            2.371344956142     0.954156489054     0.215815693645    14.003074004430
         C           -1.206532043858     0.340682489054     0.131461693645    12.000000000000
         C            1.166616156142     0.361244489054     0.106780593645    12.000000000000
         C            0.132783956142     2.410267489054     0.328186693645    12.000000000000
         C           -1.594285043858    -0.701294510946     0.987287693645    12.000000000000
         C           -2.097174043858     0.793489489054    -0.851807306355    12.000000000000
         C            1.242294956142    -1.125532510946    -0.277134306355    12.000000000000
         C           -2.847698043858    -1.294988510946     0.843895693645    12.000000000000
         C           -3.360385043858     0.211825489054    -0.972506306355    12.000000000000
         C           -3.737522043858    -0.837732510946    -0.132334306355    12.000000000000
         C            2.465318956142    -1.754273510946    -0.457395306355    12.000000000000
         C            3.541434956142     0.315199489054     0.035583693645    12.000000000000
         C            3.650683956142    -1.031173510946    -0.290128306355    12.000000000000
         H            0.883995956142     2.720755489054     1.054524693645     1.007825032230
         H           -0.847229043858     2.784845489054     0.627113693645     1.007825032230
         H            0.409097956142     2.834584489054    -0.645325306355     1.007825032230
         H           -0.910258043858    -1.023914510946     1.768685693645     1.007825032230
         H           -1.793696043858     1.592982489054    -1.523533306355     1.007825032230
         H            0.316242956142    -1.668109510946    -0.429079306355     1.007825032230
         H           -3.139846043858    -2.101227510946     1.512788693645     1.007825032230
         H           -4.046351043858     0.571866489054    -1.735787306355     1.007825032230
         H           -4.719213043858    -1.293360510946    -0.233725306355     1.007825032230
         H            2.492931956142    -2.805399510946    -0.736202306355     1.007825032230
         H            4.430214956142     0.932775489054     0.159246693645     1.007825032230
         H            4.623862956142    -1.493586510946    -0.423182306355     1.007825032230

  Basis Set: AUG-CC-PVTZ
    Blend: AUG-CC-PVTZ
  Basis Set: (AUG-CC-PVTZ AUX)
    Blend: AUG-CC-PVTZ-JKFIT
	 Reference Energy          =    -570.4589936937375114 [Eh]
	 Singles Energy            =      -0.0000000000000000 [Eh]
	 Same-Spin Energy          =      -0.6371358316836572 [Eh]
	 Opposite-Spin Energy      =      -1.9749432113169603 [Eh]
	 Correlation Energy        =      -2.6120790430006173 [Eh]
	 Total Energy              =    -573.0710727367380741 [Eh]

	 ================> DF-SCS-MP2 Energies <==================
	-----------------------------------------------------------
	 SCS Same-Spin Scale       =       0.3333333333333333 [-]
	 SCS Opposite-Spin Scale   =       1.2000000000000000 [-]
	 SCS Same-Spin Energy      =      -0.2123786105612190 [Eh]
	 SCS Opposite-Spin Energy  =      -2.3699318535803524 [Eh]
	 SCS Correlation Energy    =      -2.5823104641415715 [Eh]
	 SCS Total Energy          =    -573.0413041578790398 [Eh]
	-----------------------------------------------------------

  Dipole Moment: [D]
     X:    -2.5763      Y:    -0.3994      Z:    -0.2645     Total:     2.6205

*** Psi4 exiting successfully. Buy a developer a beer!
