                               Psi4 1.3.2 release

  ==> Input File <==

--------------------------------------------------------------------------
#psi4
#
memory 32 gb

molecule  {
0 1
  N        0.0678190     0.9536280     0.3022870
  N        2.3787710     0.9561460     0.2207080
  C       -1.1991060     0.3426720     0.1363540
  C        1.2435610     0.2442270     0.0818760
  C        0.1402100     2.4122570     0.3330790
  C       -1.5868590    -0.6993050     0.9921800
  C       -2.0897480     0.7954790    -0.8469150
  C        1.2497210    -1.1235430    -0.2722420
  C       -2.8402720    -1.2929990     0.8487880
  C       -3.3529590     0.2138150    -0.9676140
  C       -3.7300960    -0.8357430    -0.1274420
  C        2.4727450    -1.7522840    -0.4525030
  C        3.7228119     0.2221987     0.0136819
  C        3.6581100    -1.0291840    -0.2852360
  H        0.8914220     2.7227450     1.0594170
  H       -0.8398030     2.7868350     0.6320060
  H        0.4165240     2.8365740    -0.6404330
  H       -0.9028320    -1.0219250     1.7735780
  H       -1.7862700     1.5949720    -1.5186410
  H        0.3236690    -1.6661200    -0.4241870
  H       -3.1324200    -2.0992380     1.5176810
  H       -4.0389250     0.5738560    -1.7308950
  H       -4.7117870    -1.2913710    -0.2288330
  H        2.5003580    -2.8034100    -0.7313100
  H        4.4376410     0.9347650     0.1641390
  H        4.6312890    -1.4915970    -0.4182900
units angstrom
no_reorient  #important for SAPT in psi4, default
symmetry c1  #important for SAPT in psi4, default
}

set PROPERTIES_ORIGIN ["COM"]
properties('MP2/aug-cc-pvtz', properties = ['dipole'])
--------------------------------------------------------------------------

    Molecular point group: c1
  Charge       = 0
  Multiplicity = 1
  Basis Set: AUG-CC-PVTZ
    Blend: AUG-CC-PVTZ
  Basis Set: (AUG-CC-PVTZ AUX)
    Blend: AUG-CC-PVTZ-JKFIT

    Orbital Energies [Eh]
    ---------------------

    Doubly Occupied:

       1A    -15.576509     2A    -15.545576     3A    -11.312533
       4A    -11.279689     5A    -11.265483     6A    -11.259837
       7A    -11.246574     8A    -11.243602     9A    -11.243421
      10A    -11.238639    11A    -11.237961    12A    -11.237536
      13A    -11.237403    14A    -11.221212    15A     -1.284472
      16A     -1.190909    17A     -1.142267    18A     -1.074393
      19A     -1.036319    20A     -1.020334    21A     -1.006791
      22A     -0.930821    23A     -0.859033    24A     -0.844620
      25A     -0.832919    26A     -0.787629    27A     -0.732150
      28A     -0.694042    29A     -0.670931    30A     -0.659752
      31A     -0.648033    32A     -0.626513    33A     -0.622050
      34A     -0.600514    35A     -0.592637    36A     -0.585201
      37A     -0.566652    38A     -0.537614    39A     -0.524362
      40A     -0.522266    41A     -0.508389    42A     -0.501470
      43A     -0.495911    44A     -0.434812    45A     -0.401900
      46A     -0.356105    47A     -0.348200    48A     -0.341553
      49A     -0.299394

  @DF-RHF Final Energy:  -570.44013203287909

   => Energetics <=

    Nuclear Repulsion Energy =            816.9763727107770137
    One-Electron Energy =               -2393.9791468144103419
    Two-Electron Energy =                1006.5626420707542366
    Total Energy =                       -570.4401320328790916
  Basis Set: (AUG-CC-PVTZ AUX)
    Blend: AUG-CC-PVTZ-RI
    Molecular point group: c1

    Geometry (in Angstrom), charge = 0, multiplicity = 1:

       Center              X                  Y                   Z               Mass
    ------------   -----------------  -----------------  -----------------  -----------------
         N            0.044523126528     0.965587250189     0.301083405331    14.003074004430
         N            2.355475126528     0.968105250189     0.219504405331    14.003074004430
         C           -1.222401873472     0.354631250189     0.135150405331    12.000000000000
         C            1.220265126528     0.256186250189     0.080672405331    12.000000000000
         C            0.116914126528     2.424216250189     0.331875405331    12.000000000000
         C           -1.610154873472    -0.687345749811     0.990976405331    12.000000000000
         C           -2.113043873472     0.807438250189    -0.848118594669    12.000000000000
         C            1.226425126528    -1.111583749811    -0.273445594669    12.000000000000
         C           -2.863567873472    -1.281039749811     0.847584405331    12.000000000000
         C           -3.376254873472     0.225774250189    -0.968817594669    12.000000000000
         C           -3.753391873472    -0.823783749811    -0.128645594669    12.000000000000
         C            2.449449126528    -1.740324749811    -0.453706594669    12.000000000000
         C            3.699516026528     0.234157950189     0.012478305331    12.000000000000
         C            3.634814126528    -1.017224749811    -0.286439594669    12.000000000000
         H            0.868126126528     2.734704250189     1.058213405331     1.007825032230
         H           -0.863098873472     2.798794250189     0.630802405331     1.007825032230
         H            0.393228126528     2.848533250189    -0.641636594669     1.007825032230
         H           -0.926127873472    -1.009965749811     1.772374405331     1.007825032230
         H           -1.809565873472     1.606931250189    -1.519844594669     1.007825032230
         H            0.300373126528    -1.654160749811    -0.425390594669     1.007825032230
         H           -3.155715873472    -2.087278749811     1.516477405331     1.007825032230
         H           -4.062220873472     0.585815250189    -1.732098594669     1.007825032230
         H           -4.735082873472    -1.279411749811    -0.230036594669     1.007825032230
         H            2.477062126528    -2.791450749811    -0.732513594669     1.007825032230
         H            4.414345126528     0.946724250189     0.162935405331     1.007825032230
         H            4.607993126528    -1.479637749811    -0.419493594669     1.007825032230

  Basis Set: AUG-CC-PVTZ
    Blend: AUG-CC-PVTZ
  Basis Set: (AUG-CC-PVTZ AUX)
    Blend: AUG-CC-PVTZ-JKFIT
	 Reference Energy          =    -570.4401320328790916 [Eh]
	 Singles Energy            =      -0.0000000000000000 [Eh]
	 Same-Spin Energy          =      -0.6375137391777375 [Eh]
	 Opposite-Spin Energy      =      -1.9794007675662393 [Eh]
	 Correlation Energy        =      -2.6169145067439770 [Eh]
	 Total Energy              =    -573.0570465396231157 [Eh]

	 ================> DF-SCS-MP2 Energies <==================
	-----------------------------------------------------------
	 SCS Same-Spin Scale       =       0.3333333333333333 [-]
	 SCS Opposite-Spin Scale   =       1.2000000000000000 [-]
	 SCS Same-Spin Energy      =      -0.2125045797259125 [Eh]
	 SCS Opposite-Spin Energy  =      -2.3752809210794870 [Eh]
	 SCS Correlation Energy    =      -2.5877855008053996 [Eh]
	 SCS Total Energy          =    -573.0279175336844446 [Eh]
	-----------------------------------------------------------

  Dipole Moment: [D]
     X:    -1.0118      Y:    -1.1152      Z:    -0.5044     Total:     1.5880

*** Psi4 exiting successfully. Buy a developer a beer!
