                               Psi4 1.4a3.dev225

  ==> Input File <==

--------------------------------------------------------------------------
#psi4
#
memory 32 gb

molecule  {
0 1
  N        0.0678190     0.9536280     0.3022870
  N        2.3787710     0.9561460     0.2207080
  C       -1.1991060     0.3426720     0.1363540
  C        1.2012911     0.2697312     0.0898001
  C        0.1402100     2.4122570     0.3330790
  C       -1.5868590    -0.6993050     0.9921800
  C       -2.0897480     0.7954790    -0.8469150
  C        1.2497210    -1.1235430    -0.2722420
  C       -2.8402720    -1.2929990     0.8487880
  C       -3.3529590     0.2138150    -0.9676140
  C       -3.7300960    -0.8357430    -0.1274420
  C        2.4727450    -1.7522840    -0.4525030
  C        3.5488610     0.3171890     0.0404760
  C        3.6581100    -1.0291840    -0.2852360
  H        0.8914220     2.7227450     1.0594170
  H       -0.8398030     2.7868350     0.6320060
  H        0.4165240     2.8365740    -0.6404330
  H       -0.9028320    -1.0219250     1.7735780
  H       -1.7862700     1.5949720    -1.5186410
  H        0.3236690    -1.6661200    -0.4241870
  H       -3.1324200    -2.0992380     1.5176810
  H       -4.0389250     0.5738560    -1.7308950
  H       -4.7117870    -1.2913710    -0.2288330
  H        2.5003580    -2.8034100    -0.7313100
  H        4.4376410     0.9347650     0.1641390
  H        4.6312890    -1.4915970    -0.4182900
units angstrom
no_reorient  #important for SAPT in psi4, default
symmetry c1  #important for SAPT in psi4, default
}

set PROPERTIES_ORIGIN ["COM"]
properties('MP2/aug-cc-pvtz', properties = ['dipole'])
--------------------------------------------------------------------------

    Molecular point group: c1
  Charge       = 0
  Multiplicity = 1
  Basis Set: AUG-CC-PVTZ
    Blend: AUG-CC-PVTZ
  Basis Set: (AUG-CC-PVTZ AUX)
    Blend: AUG-CC-PVTZ-JKFIT

    Orbital Energies [Eh]
    ---------------------

    Doubly Occupied:

       1A    -15.586742     2A    -15.544299     3A    -11.318859
       4A    -11.284251     5A    -11.269095     6A    -11.254013
       7A    -11.251506     8A    -11.246421     9A    -11.245949
      10A    -11.243090    11A    -11.241462    12A    -11.241272
      13A    -11.226028    14A    -11.217312    15A     -1.305638
      16A     -1.215536    17A     -1.148416    18A     -1.072252
      19A     -1.028910    20A     -1.023345    21A     -1.005425
      22A     -0.934124    23A     -0.862302    24A     -0.840800
      25A     -0.833719    26A     -0.792138    27A     -0.734401
      28A     -0.694362    29A     -0.670268    30A     -0.659267
      31A     -0.652779    32A     -0.630003    33A     -0.613419
      34A     -0.604642    35A     -0.592863    36A     -0.585931
      37A     -0.567594    38A     -0.542268    39A     -0.531488
      40A     -0.527206    41A     -0.514019    42A     -0.507492
      43A     -0.503847    44A     -0.436762    45A     -0.403310
      46A     -0.373152    47A     -0.346363    48A     -0.340994
      49A     -0.284352

  @DF-RHF Final Energy:  -570.48046699284021

   => Energetics <=

    Nuclear Repulsion Energy =            819.9595619609151527
    One-Electron Energy =               -2399.7806838711030650
    Two-Electron Energy =                1009.3406549173477060
    Total Energy =                       -570.4804669928402063
  Basis Set: (AUG-CC-PVTZ AUX)
    Blend: AUG-CC-PVTZ-RI
    Molecular point group: c1

    Geometry (in Angstrom), charge = 0, multiplicity = 1:

       Center              X                  Y                   Z               Mass
    ------------   -----------------  -----------------  -----------------  -----------------
         N            0.058616819727     0.957733183813     0.298820405383    14.003074004430
         N            2.369568819727     0.960251183813     0.217241405383    14.003074004430
         C           -1.208308180273     0.346777183813     0.132887405383    12.000000000000
         C            1.192088919727     0.273836383813     0.086333505383    12.000000000000
         C            0.131007819727     2.416362183813     0.329612405383    12.000000000000
         C           -1.596061180273    -0.695199816187     0.988713405383    12.000000000000
         C           -2.098950180273     0.799584183813    -0.850381594617    12.000000000000
         C            1.240518819727    -1.119437816187    -0.275708594617    12.000000000000
         C           -2.849474180273    -1.288893816187     0.845321405383    12.000000000000
         C           -3.362161180273     0.217920183813    -0.971080594617    12.000000000000
         C           -3.739298180273    -0.831637816187    -0.130908594617    12.000000000000
         C            2.463542819727    -1.748178816187    -0.455969594617    12.000000000000
         C            3.539658819727     0.321294183813     0.037009405383    12.000000000000
         C            3.648907819727    -1.025078816187    -0.288702594617    12.000000000000
         H            0.882219819727     2.726850183813     1.055950405383     1.007825032230
         H           -0.849005180273     2.790940183813     0.628539405383     1.007825032230
         H            0.407321819727     2.840679183813    -0.643899594617     1.007825032230
         H           -0.912034180273    -1.017819816187     1.770111405383     1.007825032230
         H           -1.795472180273     1.599077183813    -1.522107594617     1.007825032230
         H            0.314466819727    -1.662014816187    -0.427653594617     1.007825032230
         H           -3.141622180273    -2.095132816187     1.514214405383     1.007825032230
         H           -4.048127180273     0.577961183813    -1.734361594617     1.007825032230
         H           -4.720989180273    -1.287265816187    -0.232299594617     1.007825032230
         H            2.491155819727    -2.799304816187    -0.734776594617     1.007825032230
         H            4.428438819727     0.938870183813     0.160672405383     1.007825032230
         H            4.622086819727    -1.487491816187    -0.421756594617     1.007825032230

  Basis Set: AUG-CC-PVTZ
    Blend: AUG-CC-PVTZ
  Basis Set: (AUG-CC-PVTZ AUX)
    Blend: AUG-CC-PVTZ-JKFIT
	 Reference Energy          =    -570.4804669928402063 [Eh]
	 Singles Energy            =      -0.0000000000000000 [Eh]
	 Same-Spin Energy          =      -0.6373642850490447 [Eh]
	 Opposite-Spin Energy      =      -1.9744936173672931 [Eh]
	 Correlation Energy        =      -2.6118579024163378 [Eh]
	 Total Energy              =    -573.0923248952565245 [Eh]

	 ================> DF-SCS-MP2 Energies <==================
	-----------------------------------------------------------
	 SCS Same-Spin Scale       =       0.3333333333333333 [-]
	 SCS Opposite-Spin Scale   =       1.2000000000000000 [-]
	 SCS Same-Spin Energy      =      -0.2124547616830149 [Eh]
	 SCS Opposite-Spin Energy  =      -2.3693923408407516 [Eh]
	 SCS Correlation Energy    =      -2.5818471025237666 [Eh]
	 SCS Total Energy          =    -573.0623140953639449 [Eh]
	-----------------------------------------------------------

  Dipole Moment: [D]
     X:    -1.7350      Y:    -0.7002      Z:    -0.3700     Total:     1.9072

*** Psi4 exiting successfully. Buy a developer a beer!
