                               Psi4 1.3.2 release

  ==> Input File <==

--------------------------------------------------------------------------
#psi4
#
memory 32 gb

molecule  {
0 1
  N        0.1224183     1.0317301     0.3207857
  N        2.3787710     0.9561460     0.2207080
  C       -1.1991060     0.3426720     0.1363540
  C        1.2435610     0.2442270     0.0818760
  C        0.1402100     2.4122570     0.3330790
  C       -1.5868590    -0.6993050     0.9921800
  C       -2.0897480     0.7954790    -0.8469150
  C        1.2497210    -1.1235430    -0.2722420
  C       -2.8402720    -1.2929990     0.8487880
  C       -3.3529590     0.2138150    -0.9676140
  C       -3.7300960    -0.8357430    -0.1274420
  C        2.4727450    -1.7522840    -0.4525030
  C        3.5488610     0.3171890     0.0404760
  C        3.6581100    -1.0291840    -0.2852360
  H        0.8914220     2.7227450     1.0594170
  H       -0.8398030     2.7868350     0.6320060
  H        0.4165240     2.8365740    -0.6404330
  H       -0.9028320    -1.0219250     1.7735780
  H       -1.7862700     1.5949720    -1.5186410
  H        0.3236690    -1.6661200    -0.4241870
  H       -3.1324200    -2.0992380     1.5176810
  H       -4.0389250     0.5738560    -1.7308950
  H       -4.7117870    -1.2913710    -0.2288330
  H        2.5003580    -2.8034100    -0.7313100
  H        4.4376410     0.9347650     0.1641390
  H        4.6312890    -1.4915970    -0.4182900
units angstrom
no_reorient  #important for SAPT in psi4, default
symmetry c1  #important for SAPT in psi4, default
}

set PROPERTIES_ORIGIN ["COM"]
properties('MP2/aug-cc-pvtz', properties = ['dipole'])
--------------------------------------------------------------------------

    Molecular point group: c1
  Charge       = 0
  Multiplicity = 1
  Basis Set: AUG-CC-PVTZ
    Blend: AUG-CC-PVTZ
  Basis Set: (AUG-CC-PVTZ AUX)
    Blend: AUG-CC-PVTZ-JKFIT

    Orbital Energies [Eh]
    ---------------------

    Doubly Occupied:

       1A    -15.578541     2A    -15.546630     3A    -11.316377
       4A    -11.285407     5A    -11.271455     6A    -11.256002
       7A    -11.245794     8A    -11.245575     9A    -11.242558
      10A    -11.242111    11A    -11.241231    12A    -11.241105
      13A    -11.229423    14A    -11.222508    15A     -1.295293
      16A     -1.216194    17A     -1.148919    18A     -1.079139
      19A     -1.028519    20A     -1.020916    21A     -1.013122
      22A     -0.923906    23A     -0.859044    24A     -0.838480
      25A     -0.832613    26A     -0.793098    27A     -0.726258
      28A     -0.697271    29A     -0.670239    30A     -0.655958
      31A     -0.647605    32A     -0.633061    33A     -0.616408
      34A     -0.605509    35A     -0.596543    36A     -0.590489
      37A     -0.566770    38A     -0.538016    39A     -0.533809
      40A     -0.528678    41A     -0.509088    42A     -0.503636
      43A     -0.496596    44A     -0.424457    45A     -0.412832
      46A     -0.376702    47A     -0.345931    48A     -0.341511
      49A     -0.290023

  @DF-RHF Final Energy:  -570.47239082320311

   => Energetics <=

    Nuclear Repulsion Energy =            819.0568165706656600
    One-Electron Energy =               -2398.0157133380266714
    Two-Electron Energy =                1008.4865059441578978
    Total Energy =                       -570.4723908232031135
  Basis Set: (AUG-CC-PVTZ AUX)
    Blend: AUG-CC-PVTZ-RI
    Molecular point group: c1

    Geometry (in Angstrom), charge = 0, multiplicity = 1:

       Center              X                  Y                   Z               Mass
    ------------   -----------------  -----------------  -----------------  -----------------
         N            0.106307936651     1.031557071542     0.316428559908    14.003074004430
         N            2.362660636651     0.955972971542     0.216350859908    14.003074004430
         C           -1.215216363349     0.342498971542     0.131996859908    12.000000000000
         C            1.227450636651     0.244053971542     0.077518859908    12.000000000000
         C            0.124099636651     2.412083971542     0.328721859908    12.000000000000
         C           -1.602969363349    -0.699478028458     0.987822859908    12.000000000000
         C           -2.105858363349     0.795305971542    -0.851272140092    12.000000000000
         C            1.233610636651    -1.123716028458    -0.276599140092    12.000000000000
         C           -2.856382363349    -1.293172028458     0.844430859908    12.000000000000
         C           -3.369069363349     0.213641971542    -0.971971140092    12.000000000000
         C           -3.746206363349    -0.835916028458    -0.131799140092    12.000000000000
         C            2.456634636651    -1.752457028458    -0.456860140092    12.000000000000
         C            3.532750636651     0.317015971542     0.036118859908    12.000000000000
         C            3.641999636651    -1.029357028458    -0.289593140092    12.000000000000
         H            0.875311636651     2.722571971542     1.055059859908     1.007825032230
         H           -0.855913363349     2.786661971542     0.627648859908     1.007825032230
         H            0.400413636651     2.836400971542    -0.644790140092     1.007825032230
         H           -0.918942363349    -1.022098028458     1.769220859908     1.007825032230
         H           -1.802380363349     1.594798971542    -1.522998140092     1.007825032230
         H            0.307558636651    -1.666293028458    -0.428544140092     1.007825032230
         H           -3.148530363349    -2.099411028458     1.513323859908     1.007825032230
         H           -4.055035363349     0.573682971542    -1.735252140092     1.007825032230
         H           -4.727897363349    -1.291544028458    -0.233190140092     1.007825032230
         H            2.484247636651    -2.803583028458    -0.735667140092     1.007825032230
         H            4.421530636651     0.934591971542     0.159781859908     1.007825032230
         H            4.615178636651    -1.491770028458    -0.422647140092     1.007825032230

  Basis Set: AUG-CC-PVTZ
    Blend: AUG-CC-PVTZ
  Basis Set: (AUG-CC-PVTZ AUX)
    Blend: AUG-CC-PVTZ-JKFIT
	 Reference Energy          =    -570.4723908232031135 [Eh]
	 Singles Energy            =      -0.0000000000000000 [Eh]
	 Same-Spin Energy          =      -0.6373352328732811 [Eh]
	 Opposite-Spin Energy      =      -1.9745312058301945 [Eh]
	 Correlation Energy        =      -2.6118664387034753 [Eh]
	 Total Energy              =    -573.0842572619066004 [Eh]

	 ================> DF-SCS-MP2 Energies <==================
	-----------------------------------------------------------
	 SCS Same-Spin Scale       =       0.3333333333333333 [-]
	 SCS Opposite-Spin Scale   =       1.2000000000000000 [-]
	 SCS Same-Spin Energy      =      -0.2124450776244270 [Eh]
	 SCS Opposite-Spin Energy  =      -2.3694374469962334 [Eh]
	 SCS Correlation Energy    =      -2.5818825246206605 [Eh]
	 SCS Total Energy          =    -573.0542733478238233 [Eh]
	-----------------------------------------------------------

  Dipole Moment: [D]
     X:    -1.4431      Y:    -1.1296      Z:    -0.4556     Total:     1.8884

*** Psi4 exiting successfully. Buy a developer a beer!
