                               Psi4 1.4a3.dev225

  ==> Input File <==

--------------------------------------------------------------------------
#psi4
#
memory 32 gb

molecule  {
0 1
  N        0.0678190     0.9536280     0.3022870
  N        2.3787710     0.9561460     0.2207080
  C       -1.1991060     0.3426720     0.1363540
  C        1.2435610     0.2442270     0.0818760
  C        0.1402100     2.4122570     0.3330790
  C       -1.5868590    -0.6993050     0.9921800
  C       -2.0897480     0.7954790    -0.8469150
  C        1.2497210    -1.1235430    -0.2722420
  C       -2.8402720    -1.2929990     0.8487880
  C       -3.3529590     0.2138150    -0.9676140
  C       -3.7300960    -0.8357430    -0.1274420
  C        2.4727450    -1.7522840    -0.4525030
  C        3.5314659     0.3266880     0.0431554
  C        3.6581100    -1.0291840    -0.2852360
  H        0.8914220     2.7227450     1.0594170
  H       -0.8398030     2.7868350     0.6320060
  H        0.4165240     2.8365740    -0.6404330
  H       -0.9028320    -1.0219250     1.7735780
  H       -1.7862700     1.5949720    -1.5186410
  H        0.3236690    -1.6661200    -0.4241870
  H       -3.1324200    -2.0992380     1.5176810
  H       -4.0389250     0.5738560    -1.7308950
  H       -4.7117870    -1.2913710    -0.2288330
  H        2.5003580    -2.8034100    -0.7313100
  H        4.4376410     0.9347650     0.1641390
  H        4.6312890    -1.4915970    -0.4182900
units angstrom
no_reorient  #important for SAPT in psi4, default
symmetry c1  #important for SAPT in psi4, default
}

set PROPERTIES_ORIGIN ["COM"]
properties('MP2/aug-cc-pvtz', properties = ['dipole'])
--------------------------------------------------------------------------

    Molecular point group: c1
  Charge       = 0
  Multiplicity = 1
  Basis Set: AUG-CC-PVTZ
    Blend: AUG-CC-PVTZ
  Basis Set: (AUG-CC-PVTZ AUX)
    Blend: AUG-CC-PVTZ-JKFIT

    Orbital Energies [Eh]
    ---------------------

    Doubly Occupied:

       1A    -15.579391     2A    -15.548906     3A    -11.317628
       4A    -11.280346     5A    -11.273158     6A    -11.254425
       7A    -11.250048     8A    -11.243774     9A    -11.243432
      10A    -11.239411    11A    -11.238341    12A    -11.237919
      13A    -11.226516    14A    -11.222996    15A     -1.296710
      16A     -1.224489    17A     -1.144211    18A     -1.079780
      19A     -1.028012    20A     -1.020623    21A     -1.004289
      22A     -0.926327    23A     -0.861744    24A     -0.842086
      25A     -0.833100    26A     -0.792759    27A     -0.730225
      28A     -0.693452    29A     -0.670294    30A     -0.657819
      31A     -0.648110    32A     -0.629743    33A     -0.613427
      34A     -0.602996    35A     -0.591073    36A     -0.583656
      37A     -0.568702    38A     -0.539298    39A     -0.536972
      40A     -0.528550    41A     -0.511631    42A     -0.505464
      43A     -0.501164    44A     -0.429665    45A     -0.412872
      46A     -0.379979    47A     -0.344032    48A     -0.339024
      49A     -0.287129

  @DF-RHF Final Energy:  -570.48426477314410

   => Energetics <=

    Nuclear Repulsion Energy =            820.0841191862833739
    One-Electron Energy =               -2400.1053710538658379
    Two-Electron Energy =                1009.5369870944384729
    Total Energy =                       -570.4842647731441048
  Basis Set: (AUG-CC-PVTZ AUX)
    Blend: AUG-CC-PVTZ-RI
    Molecular point group: c1

    Geometry (in Angstrom), charge = 0, multiplicity = 1:

       Center              X                  Y                   Z               Mass
    ------------   -----------------  -----------------  -----------------  -----------------
         N            0.056995431777     0.958776433946     0.299162265152    14.003074004430
         N            2.367947431777     0.961294433946     0.217583265152    14.003074004430
         C           -1.209929568223     0.347820433946     0.133229265152    12.000000000000
         C            1.232737431777     0.249375433946     0.078751265152    12.000000000000
         C            0.129386431777     2.417405433946     0.329954265152    12.000000000000
         C           -1.597682568223    -0.694156566054     0.989055265152    12.000000000000
         C           -2.100571568223     0.800627433946    -0.850039734848    12.000000000000
         C            1.238897431777    -1.118394566054    -0.275366734848    12.000000000000
         C           -2.851095568223    -1.287850566054     0.845663265152    12.000000000000
         C           -3.363782568223     0.218963433946    -0.970738734848    12.000000000000
         C           -3.740919568223    -0.830594566054    -0.130566734848    12.000000000000
         C            2.461921431777    -1.747135566054    -0.455627734848    12.000000000000
         C            3.520642331777     0.331836433946     0.040030665152    12.000000000000
         C            3.647286431777    -1.024035566054    -0.288360734848    12.000000000000
         H            0.880598431777     2.727893433946     1.056292265152     1.007825032230
         H           -0.850626568223     2.791983433946     0.628881265152     1.007825032230
         H            0.405700431777     2.841722433946    -0.643557734848     1.007825032230
         H           -0.913655568223    -1.016776566054     1.770453265152     1.007825032230
         H           -1.797093568223     1.600120433946    -1.521765734848     1.007825032230
         H            0.312845431777    -1.660971566054    -0.427311734848     1.007825032230
         H           -3.143243568223    -2.094089566054     1.514556265152     1.007825032230
         H           -4.049748568223     0.579004433946    -1.734019734848     1.007825032230
         H           -4.722610568223    -1.286222566054    -0.231957734848     1.007825032230
         H            2.489534431777    -2.798261566054    -0.734434734848     1.007825032230
         H            4.426817431777     0.939913433946     0.161014265152     1.007825032230
         H            4.620465431777    -1.486448566054    -0.421414734848     1.007825032230

  Basis Set: AUG-CC-PVTZ
    Blend: AUG-CC-PVTZ
  Basis Set: (AUG-CC-PVTZ AUX)
    Blend: AUG-CC-PVTZ-JKFIT
	 Reference Energy          =    -570.4842647731441048 [Eh]
	 Singles Energy            =      -0.0000000000000000 [Eh]
	 Same-Spin Energy          =      -0.6370350036715631 [Eh]
	 Opposite-Spin Energy      =      -1.9735786341924808 [Eh]
	 Correlation Energy        =      -2.6106136378640441 [Eh]
	 Total Energy              =    -573.0948784110081533 [Eh]

	 ================> DF-SCS-MP2 Energies <==================
	-----------------------------------------------------------
	 SCS Same-Spin Scale       =       0.3333333333333333 [-]
	 SCS Opposite-Spin Scale   =       1.2000000000000000 [-]
	 SCS Same-Spin Energy      =      -0.2123450012238544 [Eh]
	 SCS Opposite-Spin Energy  =      -2.3682943610309768 [Eh]
	 SCS Correlation Energy    =      -2.5806393622548311 [Eh]
	 SCS Total Energy          =    -573.0649041353989332 [Eh]
	-----------------------------------------------------------

  Dipole Moment: [D]
     X:    -1.2212      Y:    -0.8716      Z:    -0.4301     Total:     1.5607

*** Psi4 exiting successfully. Buy a developer a beer!
