                               Psi4 1.3.2 release

  ==> Input File <==

--------------------------------------------------------------------------
#psi4
#
memory 32 gb

molecule  {
0 1
  N        0.0678190     0.9536280     0.3022870
  N        2.3787710     0.9561460     0.2207080
  C       -1.1991060     0.3426720     0.1363540
  C        1.2968694     0.1691452     0.0628369
  C        0.1402100     2.4122570     0.3330790
  C       -1.5868590    -0.6993050     0.9921800
  C       -2.0897480     0.7954790    -0.8469150
  C        1.2497210    -1.1235430    -0.2722420
  C       -2.8402720    -1.2929990     0.8487880
  C       -3.3529590     0.2138150    -0.9676140
  C       -3.7300960    -0.8357430    -0.1274420
  C        2.4727450    -1.7522840    -0.4525030
  C        3.5488610     0.3171890     0.0404760
  C        3.6581100    -1.0291840    -0.2852360
  H        0.8914220     2.7227450     1.0594170
  H       -0.8398030     2.7868350     0.6320060
  H        0.4165240     2.8365740    -0.6404330
  H       -0.9028320    -1.0219250     1.7735780
  H       -1.7862700     1.5949720    -1.5186410
  H        0.3236690    -1.6661200    -0.4241870
  H       -3.1324200    -2.0992380     1.5176810
  H       -4.0389250     0.5738560    -1.7308950
  H       -4.7117870    -1.2913710    -0.2288330
  H        2.5003580    -2.8034100    -0.7313100
  H        4.4376410     0.9347650     0.1641390
  H        4.6312890    -1.4915970    -0.4182900
units angstrom
no_reorient  #important for SAPT in psi4, default
symmetry c1  #important for SAPT in psi4, default
}

set PROPERTIES_ORIGIN ["COM"]
properties('MP2/aug-cc-pvtz', properties = ['dipole'])
--------------------------------------------------------------------------

    Molecular point group: c1
  Charge       = 0
  Multiplicity = 1
  Basis Set: AUG-CC-PVTZ
    Blend: AUG-CC-PVTZ
  Basis Set: (AUG-CC-PVTZ AUX)
    Blend: AUG-CC-PVTZ-JKFIT

    Orbital Energies [Eh]
    ---------------------

    Doubly Occupied:

       1A    -15.566506     2A    -15.558891     3A    -11.313528
       4A    -11.278562     5A    -11.272989     6A    -11.262731
       7A    -11.243457     8A    -11.239286     9A    -11.239180
      10A    -11.233122    11A    -11.232862    12A    -11.231974
      13A    -11.231092    14A    -11.226122    15A     -1.284638
      16A     -1.217094    17A     -1.136159    18A     -1.092666
      19A     -1.034440    20A     -1.015861    21A     -1.001049
      22A     -0.915386    23A     -0.862671    24A     -0.847302
      25A     -0.829095    26A     -0.789436    27A     -0.725293
      28A     -0.692850    29A     -0.671688    30A     -0.652622
      31A     -0.640829    32A     -0.628172    33A     -0.615948
      34A     -0.599170    35A     -0.588382    36A     -0.580109
      37A     -0.569140    38A     -0.542368    39A     -0.538059
      40A     -0.523164    41A     -0.504159    42A     -0.497978
      43A     -0.495494    44A     -0.431295    45A     -0.418163
      46A     -0.383315    47A     -0.342794    48A     -0.337772
      49A     -0.292299

  @DF-RHF Final Energy:  -570.47222749804416

   => Energetics <=

    Nuclear Repulsion Energy =            819.5772364890614199
    One-Electron Energy =               -2399.2446074450808737
    Two-Electron Energy =                1009.1951434579754050
    Total Energy =                       -570.4722274980441625
  Basis Set: (AUG-CC-PVTZ AUX)
    Blend: AUG-CC-PVTZ-RI
    Molecular point group: c1

    Geometry (in Angstrom), charge = 0, multiplicity = 1:

       Center              X                  Y                   Z               Mass
    ------------   -----------------  -----------------  -----------------  -----------------
         N            0.052386839833     0.964289575354     0.300577919315    14.003074004430
         N            2.363338839833     0.966807575354     0.218998919315    14.003074004430
         C           -1.214538160167     0.353333575354     0.134644919315    12.000000000000
         C            1.281437239833     0.179806775354     0.061127819315    12.000000000000
         C            0.124777839833     2.422918575354     0.331369919315    12.000000000000
         C           -1.602291160167    -0.688643424646     0.990470919315    12.000000000000
         C           -2.105180160167     0.806140575354    -0.848624080685    12.000000000000
         C            1.234288839833    -1.112881424646    -0.273951080685    12.000000000000
         C           -2.855704160167    -1.282337424646     0.847078919315    12.000000000000
         C           -3.368391160167     0.224476575354    -0.969323080685    12.000000000000
         C           -3.745528160167    -0.825081424646    -0.129151080685    12.000000000000
         C            2.457312839833    -1.741622424646    -0.454212080685    12.000000000000
         C            3.533428839833     0.327850575354     0.038766919315    12.000000000000
         C            3.642677839833    -1.018522424646    -0.286945080685    12.000000000000
         H            0.875989839833     2.733406575354     1.057707919315     1.007825032230
         H           -0.855235160167     2.797496575354     0.630296919315     1.007825032230
         H            0.401091839833     2.847235575354    -0.642142080685     1.007825032230
         H           -0.918264160167    -1.011263424646     1.771868919315     1.007825032230
         H           -1.801702160167     1.605633575354    -1.520350080685     1.007825032230
         H            0.308236839833    -1.655458424646    -0.425896080685     1.007825032230
         H           -3.147852160167    -2.088576424646     1.515971919315     1.007825032230
         H           -4.054357160167     0.584517575354    -1.732604080685     1.007825032230
         H           -4.727219160167    -1.280709424646    -0.230542080685     1.007825032230
         H            2.484925839833    -2.792748424646    -0.733019080685     1.007825032230
         H            4.422208839833     0.945426575354     0.162429919315     1.007825032230
         H            4.615856839833    -1.480935424646    -0.419999080685     1.007825032230

  Basis Set: AUG-CC-PVTZ
    Blend: AUG-CC-PVTZ
  Basis Set: (AUG-CC-PVTZ AUX)
    Blend: AUG-CC-PVTZ-JKFIT
	 Reference Energy          =    -570.4722274980441625 [Eh]
	 Singles Energy            =      -0.0000000000000000 [Eh]
	 Same-Spin Energy          =      -0.6373277646790847 [Eh]
	 Opposite-Spin Energy      =      -1.9744474904117506 [Eh]
	 Correlation Energy        =      -2.6117752550908353 [Eh]
	 Total Energy              =    -573.0840027531349961 [Eh]

	 ================> DF-SCS-MP2 Energies <==================
	-----------------------------------------------------------
	 SCS Same-Spin Scale       =       0.3333333333333333 [-]
	 SCS Opposite-Spin Scale   =       1.2000000000000000 [-]
	 SCS Same-Spin Energy      =      -0.2124425882263616 [Eh]
	 SCS Opposite-Spin Energy  =      -2.3693369884941005 [Eh]
	 SCS Correlation Energy    =      -2.5817795767204621 [Eh]
	 SCS Total Energy          =    -573.0540070747646269 [Eh]
	-----------------------------------------------------------

  Dipole Moment: [D]
     X:    -0.2898      Y:    -1.2274      Z:    -0.5537     Total:     1.3774

*** Psi4 exiting successfully. Buy a developer a beer!
