                               Psi4 1.3.2 release

  ==> Input File <==

--------------------------------------------------------------------------
#psi4
#
memory 32 gb

molecule  {
0 1
  N        0.0678190     0.9536280     0.3022870
  N        2.3787710     0.9561460     0.2207080
  C       -1.1991060     0.3426720     0.1363540
  C        1.2563793     0.2251168     0.0770491
  C        0.1402100     2.4122570     0.3330790
  C       -1.5868590    -0.6993050     0.9921800
  C       -2.0897480     0.7954790    -0.8469150
  C        1.2497210    -1.1235430    -0.2722420
  C       -2.8402720    -1.2929990     0.8487880
  C       -3.3529590     0.2138150    -0.9676140
  C       -3.7300960    -0.8357430    -0.1274420
  C        2.4727450    -1.7522840    -0.4525030
  C        3.5488610     0.3171890     0.0404760
  C        3.6581100    -1.0291840    -0.2852360
  H        0.8914220     2.7227450     1.0594170
  H       -0.8398030     2.7868350     0.6320060
  H        0.4165240     2.8365740    -0.6404330
  H       -0.9028320    -1.0219250     1.7735780
  H       -1.7862700     1.5949720    -1.5186410
  H        0.3236690    -1.6661200    -0.4241870
  H       -3.1324200    -2.0992380     1.5176810
  H       -4.0389250     0.5738560    -1.7308950
  H       -4.7117870    -1.2913710    -0.2288330
  H        2.5003580    -2.8034100    -0.7313100
  H        4.4376410     0.9347650     0.1641390
  H        4.6312890    -1.4915970    -0.4182900
units angstrom
no_reorient  #important for SAPT in psi4, default
symmetry c1  #important for SAPT in psi4, default
}

set PROPERTIES_ORIGIN ["COM"]
properties('MP2/aug-cc-pvtz', properties = ['dipole'])
--------------------------------------------------------------------------

    Molecular point group: c1
  Charge       = 0
  Multiplicity = 1
  Basis Set: AUG-CC-PVTZ
    Blend: AUG-CC-PVTZ
  Basis Set: (AUG-CC-PVTZ AUX)
    Blend: AUG-CC-PVTZ-JKFIT

    Orbital Energies [Eh]
    ---------------------

    Doubly Occupied:

       1A    -15.575948     2A    -15.551494     3A    -11.316261
       4A    -11.278392     5A    -11.274034     6A    -11.256988
       7A    -11.248084     8A    -11.242588     9A    -11.242332
      10A    -11.237667    11A    -11.236956    12A    -11.236352
      13A    -11.227219    14A    -11.224946    15A     -1.290990
      16A     -1.220254    17A     -1.141980    18A     -1.082199
      19A     -1.029464    20A     -1.019360    21A     -1.004299
      22A     -0.923882    23A     -0.859774    24A     -0.844983
      25A     -0.832362    26A     -0.791608    27A     -0.728661
      28A     -0.693309    29A     -0.669481    30A     -0.656610
      31A     -0.645928    32A     -0.628854    33A     -0.615659
      34A     -0.601716    35A     -0.590460    36A     -0.583105
      37A     -0.568826    38A     -0.538197    39A     -0.536956
      40A     -0.527625    41A     -0.509496    42A     -0.503677
      43A     -0.499847    44A     -0.427185    45A     -0.417806
      46A     -0.378723    47A     -0.343321    48A     -0.339045
      49A     -0.289893

  @DF-RHF Final Energy:  -570.48328234544954

   => Energetics <=

    Nuclear Repulsion Energy =            819.7087726186377949
    One-Electron Energy =               -2399.4145173535894173
    Two-Electron Energy =                1009.2224623895020841
    Total Energy =                       -570.4832823454495383
  Basis Set: (AUG-CC-PVTZ AUX)
    Blend: AUG-CC-PVTZ-RI
    Molecular point group: c1

    Geometry (in Angstrom), charge = 0, multiplicity = 1:

       Center              X                  Y                   Z               Mass
    ------------   -----------------  -----------------  -----------------  -----------------
         N            0.055026063473     0.960641237367     0.299651540417    14.003074004430
         N            2.365978063473     0.963159237367     0.218072540417    14.003074004430
         C           -1.211898936527     0.349685237367     0.133718540417    12.000000000000
         C            1.243586363473     0.232130037367     0.074413640417    12.000000000000
         C            0.127417063473     2.419270237367     0.330443540417    12.000000000000
         C           -1.599651936527    -0.692291762633     0.989544540417    12.000000000000
         C           -2.102540936527     0.802492237367    -0.849550459583    12.000000000000
         C            1.236928063473    -1.116529762633    -0.274877459583    12.000000000000
         C           -2.853064936527    -1.285985762633     0.846152540417    12.000000000000
         C           -3.365751936527     0.220828237367    -0.970249459583    12.000000000000
         C           -3.742888936527    -0.828729762633    -0.130077459583    12.000000000000
         C            2.459952063473    -1.745270762633    -0.455138459583    12.000000000000
         C            3.536068063473     0.324202237367     0.037840540417    12.000000000000
         C            3.645317063473    -1.022170762633    -0.287871459583    12.000000000000
         H            0.878629063473     2.729758237367     1.056781540417     1.007825032230
         H           -0.852595936527     2.793848237367     0.629370540417     1.007825032230
         H            0.403731063473     2.843587237367    -0.643068459583     1.007825032230
         H           -0.915624936527    -1.014911762633     1.770942540417     1.007825032230
         H           -1.799062936527     1.601985237367    -1.521276459583     1.007825032230
         H            0.310876063473    -1.659106762633    -0.426822459583     1.007825032230
         H           -3.145212936527    -2.092224762633     1.515045540417     1.007825032230
         H           -4.051717936527     0.580869237367    -1.733530459583     1.007825032230
         H           -4.724579936527    -1.284357762633    -0.231468459583     1.007825032230
         H            2.487565063473    -2.796396762633    -0.733945459583     1.007825032230
         H            4.424848063473     0.941778237367     0.161503540417     1.007825032230
         H            4.618496063473    -1.484583762633    -0.420925459583     1.007825032230

  Basis Set: AUG-CC-PVTZ
    Blend: AUG-CC-PVTZ
  Basis Set: (AUG-CC-PVTZ AUX)
    Blend: AUG-CC-PVTZ-JKFIT
	 Reference Energy          =    -570.4832823454495383 [Eh]
	 Singles Energy            =      -0.0000000000000000 [Eh]
	 Same-Spin Energy          =      -0.6371427108209157 [Eh]
	 Opposite-Spin Energy      =      -1.9739670755135237 [Eh]
	 Correlation Energy        =      -2.6111097863344392 [Eh]
	 Total Energy              =    -573.0943921317839340 [Eh]

	 ================> DF-SCS-MP2 Energies <==================
	-----------------------------------------------------------
	 SCS Same-Spin Scale       =       0.3333333333333333 [-]
	 SCS Opposite-Spin Scale   =       1.2000000000000000 [-]
	 SCS Same-Spin Energy      =      -0.2123809036069719 [Eh]
	 SCS Opposite-Spin Energy  =      -2.3687604906162285 [Eh]
	 SCS Correlation Energy    =      -2.5811413942232004 [Eh]
	 SCS Total Energy          =    -573.0644237396727476 [Eh]
	-----------------------------------------------------------

  Dipole Moment: [D]
     X:    -0.9696      Y:    -0.9820      Z:    -0.4675     Total:     1.4571

*** Psi4 exiting successfully. Buy a developer a beer!
