                               Psi4 1.3.2 release

  ==> Input File <==

--------------------------------------------------------------------------
#psi4
#
memory 32 gb

molecule  {
0 1
  N        0.0678190     0.9536280     0.3022870
  N        2.3787710     0.9561460     0.2207080
  C       -1.1991060     0.3426720     0.1363540
  C        1.2695395     0.2062293     0.0722660
  C        0.1402100     2.4122570     0.3330790
  C       -1.5868590    -0.6993050     0.9921800
  C       -2.0897480     0.7954790    -0.8469150
  C        1.2497210    -1.1235430    -0.2722420
  C       -2.8402720    -1.2929990     0.8487880
  C       -3.3529590     0.2138150    -0.9676140
  C       -3.7300960    -0.8357430    -0.1274420
  C        2.4727450    -1.7522840    -0.4525030
  C        3.5488610     0.3171890     0.0404760
  C        3.6581100    -1.0291840    -0.2852360
  H        0.8914220     2.7227450     1.0594170
  H       -0.8398030     2.7868350     0.6320060
  H        0.4165240     2.8365740    -0.6404330
  H       -0.9028320    -1.0219250     1.7735780
  H       -1.7862700     1.5949720    -1.5186410
  H        0.3236690    -1.6661200    -0.4241870
  H       -3.1324200    -2.0992380     1.5176810
  H       -4.0389250     0.5738560    -1.7308950
  H       -4.7117870    -1.2913710    -0.2288330
  H        2.5003580    -2.8034100    -0.7313100
  H        4.4376410     0.9347650     0.1641390
  H        4.6312890    -1.4915970    -0.4182900
units angstrom
no_reorient  #important for SAPT in psi4, default
symmetry c1  #important for SAPT in psi4, default
}

set PROPERTIES_ORIGIN ["COM"]
properties('MP2/aug-cc-pvtz', properties = ['dipole'])
--------------------------------------------------------------------------

    Molecular point group: c1
  Charge       = 0
  Multiplicity = 1
  Basis Set: AUG-CC-PVTZ
    Blend: AUG-CC-PVTZ
  Basis Set: (AUG-CC-PVTZ AUX)
    Blend: AUG-CC-PVTZ-JKFIT

    Orbital Energies [Eh]
    ---------------------

    Doubly Occupied:

       1A    -15.572814     2A    -15.553999     3A    -11.315339
       4A    -11.276553     5A    -11.275529     6A    -11.258905
       7A    -11.246523     8A    -11.241458     9A    -11.241266
      10A    -11.236047    11A    -11.235642    12A    -11.234863
      13A    -11.227058    14A    -11.226891    15A     -1.288049
      16A     -1.219669    17A     -1.140017    18A     -1.085453
      19A     -1.030852    20A     -1.018190    21A     -1.003431
      22A     -0.920976    23A     -0.859951    24A     -0.846345
      25A     -0.831329    26A     -0.791021    27A     -0.727241
      28A     -0.693183    29A     -0.669938    30A     -0.655187
      31A     -0.644092    32A     -0.628534    33A     -0.616177
      34A     -0.600815    35A     -0.589769    36A     -0.582049
      37A     -0.569078    38A     -0.538694    39A     -0.537807
      40A     -0.526624    41A     -0.507657    42A     -0.502010
      43A     -0.498540    44A     -0.425495    45A     -0.421041
      46A     -0.380177    47A     -0.342761    48A     -0.338759
      49A     -0.291006

  @DF-RHF Final Energy:  -570.48097650628597

   => Energetics <=

    Nuclear Repulsion Energy =            819.6565122410823960
    One-Electron Energy =               -2399.3453710526150644
    Two-Electron Energy =                1009.2078823052465850
    Total Energy =                       -570.4809765062859697
  Basis Set: (AUG-CC-PVTZ AUX)
    Blend: AUG-CC-PVTZ-RI
    Molecular point group: c1

    Geometry (in Angstrom), charge = 0, multiplicity = 1:

       Center              X                  Y                   Z               Mass
    ------------   -----------------  -----------------  -----------------  -----------------
         N            0.054168255986     0.961872361432     0.299963312198    14.003074004430
         N            2.365120255986     0.964390361432     0.218384312198    14.003074004430
         C           -1.212756744014     0.350916361432     0.134030312198    12.000000000000
         C            1.255888755986     0.214473661432     0.069942312198    12.000000000000
         C            0.126559255986     2.420501361432     0.330755312198    12.000000000000
         C           -1.600509744014    -0.691060638568     0.989856312198    12.000000000000
         C           -2.103398744014     0.803723361432    -0.849238687802    12.000000000000
         C            1.236070255986    -1.115298638568    -0.274565687802    12.000000000000
         C           -2.853922744014    -1.284754638568     0.846464312198    12.000000000000
         C           -3.366609744014     0.222059361432    -0.969937687802    12.000000000000
         C           -3.743746744014    -0.827498638568    -0.129765687802    12.000000000000
         C            2.459094255986    -1.744039638568    -0.454826687802    12.000000000000
         C            3.535210255986     0.325433361432     0.038152312198    12.000000000000
         C            3.644459255986    -1.020939638568    -0.287559687802    12.000000000000
         H            0.877771255986     2.730989361432     1.057093312198     1.007825032230
         H           -0.853453744014     2.795079361432     0.629682312198     1.007825032230
         H            0.402873255986     2.844818361432    -0.642756687802     1.007825032230
         H           -0.916482744014    -1.013680638568     1.771254312198     1.007825032230
         H           -1.799920744014     1.603216361432    -1.520964687802     1.007825032230
         H            0.310018255986    -1.657875638568    -0.426510687802     1.007825032230
         H           -3.146070744014    -2.090993638568     1.515357312198     1.007825032230
         H           -4.052575744014     0.582100361432    -1.733218687802     1.007825032230
         H           -4.725437744014    -1.283126638568    -0.231156687802     1.007825032230
         H            2.486707255986    -2.795165638568    -0.733633687802     1.007825032230
         H            4.423990255986     0.943009361432     0.161815312198     1.007825032230
         H            4.617638255986    -1.483352638568    -0.420613687802     1.007825032230

  Basis Set: AUG-CC-PVTZ
    Blend: AUG-CC-PVTZ
  Basis Set: (AUG-CC-PVTZ AUX)
    Blend: AUG-CC-PVTZ-JKFIT
	 Reference Energy          =    -570.4809765062859697 [Eh]
	 Singles Energy            =      -0.0000000000000000 [Eh]
	 Same-Spin Energy          =      -0.6371878804114389 [Eh]
	 Opposite-Spin Energy      =      -1.9740616098042776 [Eh]
	 Correlation Energy        =      -2.6112494902157164 [Eh]
	 Total Energy              =    -573.0922259965017247 [Eh]

	 ================> DF-SCS-MP2 Energies <==================
	-----------------------------------------------------------
	 SCS Same-Spin Scale       =       0.3333333333333333 [-]
	 SCS Opposite-Spin Scale   =       1.2000000000000000 [-]
	 SCS Same-Spin Energy      =      -0.2123959601371463 [Eh]
	 SCS Opposite-Spin Energy  =      -2.3688739317651328 [Eh]
	 SCS Correlation Energy    =      -2.5812698919022790 [Eh]
	 SCS Total Energy          =    -573.0622463981882220 [Eh]
	-----------------------------------------------------------

  Dipole Moment: [D]
     X:    -0.7414      Y:    -1.0642      Z:    -0.4964     Total:     1.3887

*** Psi4 exiting successfully. Buy a developer a beer!
