                               Psi4 1.3.2 release

  ==> Input File <==

--------------------------------------------------------------------------
#psi4
#
memory 32 gb

molecule  {
0 1
  N        0.0678190     0.9536280     0.3022870
  N        2.4481742     0.8380136     0.1873716
  C       -1.1991060     0.3426720     0.1363540
  C        1.2435610     0.2442270     0.0818760
  C        0.1402100     2.4122570     0.3330790
  C       -1.5868590    -0.6993050     0.9921800
  C       -2.0897480     0.7954790    -0.8469150
  C        1.2497210    -1.1235430    -0.2722420
  C       -2.8402720    -1.2929990     0.8487880
  C       -3.3529590     0.2138150    -0.9676140
  C       -3.7300960    -0.8357430    -0.1274420
  C        2.4727450    -1.7522840    -0.4525030
  C        3.5488610     0.3171890     0.0404760
  C        3.6581100    -1.0291840    -0.2852360
  H        0.8914220     2.7227450     1.0594170
  H       -0.8398030     2.7868350     0.6320060
  H        0.4165240     2.8365740    -0.6404330
  H       -0.9028320    -1.0219250     1.7735780
  H       -1.7862700     1.5949720    -1.5186410
  H        0.3236690    -1.6661200    -0.4241870
  H       -3.1324200    -2.0992380     1.5176810
  H       -4.0389250     0.5738560    -1.7308950
  H       -4.7117870    -1.2913710    -0.2288330
  H        2.5003580    -2.8034100    -0.7313100
  H        4.4376410     0.9347650     0.1641390
  H        4.6312890    -1.4915970    -0.4182900
units angstrom
no_reorient  #important for SAPT in psi4, default
symmetry c1  #important for SAPT in psi4, default
}

set PROPERTIES_ORIGIN ["COM"]
properties('MP2/aug-cc-pvtz', properties = ['dipole'])
--------------------------------------------------------------------------

    Molecular point group: c1
  Charge       = 0
  Multiplicity = 1
  Basis Set: AUG-CC-PVTZ
    Blend: AUG-CC-PVTZ
  Basis Set: (AUG-CC-PVTZ AUX)
    Blend: AUG-CC-PVTZ-JKFIT

    Orbital Energies [Eh]
    ---------------------

    Doubly Occupied:

       1A    -15.583602     2A    -15.534706     3A    -11.319188
       4A    -11.282592     5A    -11.256895     6A    -11.253610
       7A    -11.247739     8A    -11.244839     9A    -11.244341
      10A    -11.241057    11A    -11.239565    12A    -11.239246
      13A    -11.222954    14A    -11.215131    15A     -1.303833
      16A     -1.246033    17A     -1.146689    18A     -1.075395
      19A     -1.033399    20A     -1.022336    21A     -1.006161
      22A     -0.927793    23A     -0.867816    24A     -0.839537
      25A     -0.831635    26A     -0.801073    27A     -0.735018
      28A     -0.694315    29A     -0.676613    30A     -0.658256
      31A     -0.650228    32A     -0.632775    33A     -0.617567
      34A     -0.605579    35A     -0.592267    36A     -0.586483
      37A     -0.568380    38A     -0.548434    39A     -0.541902
      40A     -0.529718    41A     -0.515301    42A     -0.506879
      43A     -0.502147    44A     -0.434283    45A     -0.387769
      46A     -0.383118    47A     -0.344712    48A     -0.339861
      49A     -0.283968

  @DF-RHF Final Energy:  -570.47040457282890

   => Energetics <=

    Nuclear Repulsion Energy =            821.6145345583244080
    One-Electron Energy =               -2403.0444087346309061
    Two-Electron Energy =                1010.9594696034774870
    Total Energy =                       -570.4704045728288975
  Basis Set: (AUG-CC-PVTZ AUX)
    Blend: AUG-CC-PVTZ-RI
    Molecular point group: c1

    Geometry (in Angstrom), charge = 0, multiplicity = 1:

       Center              X                  Y                   Z               Mass
    ------------   -----------------  -----------------  -----------------  -----------------
         N            0.050582617896     0.968381019903     0.301872557086    14.003074004430
         N            2.430937817896     0.852766619903     0.186957157086    14.003074004430
         C           -1.216342382104     0.357425019903     0.135939557086    12.000000000000
         C            1.226324617896     0.258980019903     0.081461557086    12.000000000000
         C            0.122973617896     2.427010019903     0.332664557086    12.000000000000
         C           -1.604095382104    -0.684551980097     0.991765557086    12.000000000000
         C           -2.106984382104     0.810232019903    -0.847329442914    12.000000000000
         C            1.232484617896    -1.108789980097    -0.272656442914    12.000000000000
         C           -2.857508382104    -1.278245980097     0.848373557086    12.000000000000
         C           -3.370195382104     0.228568019903    -0.968028442914    12.000000000000
         C           -3.747332382104    -0.820989980097    -0.127856442914    12.000000000000
         C            2.455508617896    -1.737530980097    -0.452917442914    12.000000000000
         C            3.531624617896     0.331942019903     0.040061557086    12.000000000000
         C            3.640873617896    -1.014430980097    -0.285650442914    12.000000000000
         H            0.874185617896     2.737498019903     1.059002557086     1.007825032230
         H           -0.857039382104     2.801588019903     0.631591557086     1.007825032230
         H            0.399287617896     2.851327019903    -0.640847442914     1.007825032230
         H           -0.920068382104    -1.007171980097     1.773163557086     1.007825032230
         H           -1.803506382104     1.609725019903    -1.519055442914     1.007825032230
         H            0.306432617896    -1.651366980097    -0.424601442914     1.007825032230
         H           -3.149656382104    -2.084484980097     1.517266557086     1.007825032230
         H           -4.056161382104     0.588609019903    -1.731309442914     1.007825032230
         H           -4.729023382104    -1.276617980097    -0.229247442914     1.007825032230
         H            2.483121617896    -2.788656980097    -0.731724442914     1.007825032230
         H            4.420404617896     0.949518019903     0.163724557086     1.007825032230
         H            4.614052617896    -1.476843980097    -0.418704442914     1.007825032230

  Basis Set: AUG-CC-PVTZ
    Blend: AUG-CC-PVTZ
  Basis Set: (AUG-CC-PVTZ AUX)
    Blend: AUG-CC-PVTZ-JKFIT
	 Reference Energy          =    -570.4704045728288975 [Eh]
	 Singles Energy            =      -0.0000000000000000 [Eh]
	 Same-Spin Energy          =      -0.6366837863751705 [Eh]
	 Opposite-Spin Energy      =      -1.9712508887092517 [Eh]
	 Correlation Energy        =      -2.6079346750844223 [Eh]
	 Total Energy              =    -573.0783392479132772 [Eh]

	 ================> DF-SCS-MP2 Energies <==================
	-----------------------------------------------------------
	 SCS Same-Spin Scale       =       0.3333333333333333 [-]
	 SCS Opposite-Spin Scale   =       1.2000000000000000 [-]
	 SCS Same-Spin Energy      =      -0.2122279287917235 [Eh]
	 SCS Opposite-Spin Energy  =      -2.3655010664511020 [Eh]
	 SCS Correlation Energy    =      -2.5777289952428255 [Eh]
	 SCS Total Energy          =    -573.0481335680717621 [Eh]
	-----------------------------------------------------------

  Dipole Moment: [D]
     X:    -1.4669      Y:    -0.5433      Z:    -0.3376     Total:     1.6003

*** Psi4 exiting successfully. Buy a developer a beer!
