                               Psi4 1.3.2 release

  ==> Input File <==

--------------------------------------------------------------------------
#psi4
#
memory 32 gb

molecule  {
0 1
  N        0.0678190     0.9536280     0.3022870
  N        2.3787710     0.9561460     0.2207080
  C       -1.2583247     0.4729136     0.1751784
  C        1.2435610     0.2442270     0.0818760
  C        0.1402100     2.4122570     0.3330790
  C       -1.5868590    -0.6993050     0.9921800
  C       -2.0897480     0.7954790    -0.8469150
  C        1.2497210    -1.1235430    -0.2722420
  C       -2.8402720    -1.2929990     0.8487880
  C       -3.3529590     0.2138150    -0.9676140
  C       -3.7300960    -0.8357430    -0.1274420
  C        2.4727450    -1.7522840    -0.4525030
  C        3.5488610     0.3171890     0.0404760
  C        3.6581100    -1.0291840    -0.2852360
  H        0.8914220     2.7227450     1.0594170
  H       -0.8398030     2.7868350     0.6320060
  H        0.4165240     2.8365740    -0.6404330
  H       -0.9028320    -1.0219250     1.7735780
  H       -1.7862700     1.5949720    -1.5186410
  H        0.3236690    -1.6661200    -0.4241870
  H       -3.1324200    -2.0992380     1.5176810
  H       -4.0389250     0.5738560    -1.7308950
  H       -4.7117870    -1.2913710    -0.2288330
  H        2.5003580    -2.8034100    -0.7313100
  H        4.4376410     0.9347650     0.1641390
  H        4.6312890    -1.4915970    -0.4182900
units angstrom
no_reorient  #important for SAPT in psi4, default
symmetry c1  #important for SAPT in psi4, default
}

set PROPERTIES_ORIGIN ["COM"]
properties('MP2/aug-cc-pvtz', properties = ['dipole'])
--------------------------------------------------------------------------

    Molecular point group: c1
  Charge       = 0
  Multiplicity = 1
  Basis Set: AUG-CC-PVTZ
    Blend: AUG-CC-PVTZ
  Basis Set: (AUG-CC-PVTZ AUX)
    Blend: AUG-CC-PVTZ-JKFIT

    Orbital Energies [Eh]
    ---------------------

    Doubly Occupied:

       1A    -15.578280     2A    -15.549982     3A    -11.320131
       4A    -11.282101     5A    -11.273136     6A    -11.255379
       7A    -11.246173     8A    -11.244499     9A    -11.244098
      10A    -11.242466    11A    -11.239508    12A    -11.235689
      13A    -11.228202    14A    -11.223275    15A     -1.294209
      16A     -1.221214    17A     -1.143720    18A     -1.079410
      19A     -1.034052    20A     -1.016739    21A     -1.003264
      22A     -0.924345    23A     -0.862009    24A     -0.845114
      25A     -0.832194    26A     -0.790710    27A     -0.733159
      28A     -0.693145    29A     -0.668778    30A     -0.659670
      31A     -0.647554    32A     -0.628840    33A     -0.614002
      34A     -0.605491    35A     -0.587679    36A     -0.582658
      37A     -0.566306    38A     -0.539087    39A     -0.535215
      40A     -0.528513    41A     -0.515173    42A     -0.505719
      43A     -0.492139    44A     -0.429042    45A     -0.414064
      46A     -0.378000    47A     -0.346738    48A     -0.336840
      49A     -0.288119

  @DF-RHF Final Energy:  -570.47102476218788

   => Energetics <=

    Nuclear Repulsion Energy =            819.0220971486872941
    One-Electron Energy =               -2397.9745834010668659
    Two-Electron Energy =                1008.4814614901915775
    Total Energy =                       -570.4710247621878807
  Basis Set: (AUG-CC-PVTZ AUX)
    Blend: AUG-CC-PVTZ-RI
    Molecular point group: c1

    Geometry (in Angstrom), charge = 0, multiplicity = 1:

       Center              X                  Y                   Z               Mass
    ------------   -----------------  -----------------  -----------------  -----------------
         N            0.059721575547     0.950906195928     0.296806263599    14.003074004430
         N            2.370673575547     0.953424195928     0.215227263599    14.003074004430
         C           -1.266422124453     0.470191795928     0.169697663599    12.000000000000
         C            1.235463575547     0.241505195928     0.076395263599    12.000000000000
         C            0.132112575547     2.409535195928     0.327598263599    12.000000000000
         C           -1.594956424453    -0.702026804072     0.986699263599    12.000000000000
         C           -2.097845424453     0.792757195928    -0.852395736401    12.000000000000
         C            1.241623575547    -1.126264804072    -0.277722736401    12.000000000000
         C           -2.848369424453    -1.295720804072     0.843307263599    12.000000000000
         C           -3.361056424453     0.211093195928    -0.973094736401    12.000000000000
         C           -3.738193424453    -0.838464804072    -0.132922736401    12.000000000000
         C            2.464647575547    -1.755005804072    -0.457983736401    12.000000000000
         C            3.540763575547     0.314467195928     0.034995263599    12.000000000000
         C            3.650012575547    -1.031905804072    -0.290716736401    12.000000000000
         H            0.883324575547     2.720023195928     1.053936263599     1.007825032230
         H           -0.847900424453     2.784113195928     0.626525263599     1.007825032230
         H            0.408426575547     2.833852195928    -0.645913736401     1.007825032230
         H           -0.910929424453    -1.024646804072     1.768097263599     1.007825032230
         H           -1.794367424453     1.592250195928    -1.524121736401     1.007825032230
         H            0.315571575547    -1.668841804072    -0.429667736401     1.007825032230
         H           -3.140517424453    -2.101959804072     1.512200263599     1.007825032230
         H           -4.047022424453     0.571134195928    -1.736375736401     1.007825032230
         H           -4.719884424453    -1.294092804072    -0.234313736401     1.007825032230
         H            2.492260575547    -2.806131804072    -0.736790736401     1.007825032230
         H            4.429543575547     0.932043195928     0.158658263599     1.007825032230
         H            4.623191575547    -1.494318804072    -0.423770736401     1.007825032230

  Basis Set: AUG-CC-PVTZ
    Blend: AUG-CC-PVTZ
  Basis Set: (AUG-CC-PVTZ AUX)
    Blend: AUG-CC-PVTZ-JKFIT
	 Reference Energy          =    -570.4710247621878807 [Eh]
	 Singles Energy            =      -0.0000000000000000 [Eh]
	 Same-Spin Energy          =      -0.6372836347287698 [Eh]
	 Opposite-Spin Energy      =      -1.9752772408028023 [Eh]
	 Correlation Energy        =      -2.6125608755315719 [Eh]
	 Total Energy              =    -573.0835856377194659 [Eh]

	 ================> DF-SCS-MP2 Energies <==================
	-----------------------------------------------------------
	 SCS Same-Spin Scale       =       0.3333333333333333 [-]
	 SCS Opposite-Spin Scale   =       1.2000000000000000 [-]
	 SCS Same-Spin Energy      =      -0.2124278782429233 [Eh]
	 SCS Opposite-Spin Energy  =      -2.3703326889633627 [Eh]
	 SCS Correlation Energy    =      -2.5827605672062859 [Eh]
	 SCS Total Energy          =    -573.0537853293941453 [Eh]
	-----------------------------------------------------------

  Dipole Moment: [D]
     X:    -1.2107      Y:    -0.9749      Z:    -0.4756     Total:     1.6256

*** Psi4 exiting successfully. Buy a developer a beer!
