                               Psi4 1.3.2 release

  ==> Input File <==

--------------------------------------------------------------------------
#psi4
#
memory 32 gb

molecule  {
0 1
  N        0.0550605     0.9335005     0.2976740
  N        2.3787710     0.9561460     0.2207080
  C       -1.1991060     0.3426720     0.1363540
  C        1.2435610     0.2442270     0.0818760
  C        0.1402100     2.4122570     0.3330790
  C       -1.5868590    -0.6993050     0.9921800
  C       -2.0897480     0.7954790    -0.8469150
  C        1.2497210    -1.1235430    -0.2722420
  C       -2.8402720    -1.2929990     0.8487880
  C       -3.3529590     0.2138150    -0.9676140
  C       -3.7300960    -0.8357430    -0.1274420
  C        2.4727450    -1.7522840    -0.4525030
  C        3.5488610     0.3171890     0.0404760
  C        3.6581100    -1.0291840    -0.2852360
  H        0.8914220     2.7227450     1.0594170
  H       -0.8398030     2.7868350     0.6320060
  H        0.4165240     2.8365740    -0.6404330
  H       -0.9028320    -1.0219250     1.7735780
  H       -1.7862700     1.5949720    -1.5186410
  H        0.3236690    -1.6661200    -0.4241870
  H       -3.1324200    -2.0992380     1.5176810
  H       -4.0389250     0.5738560    -1.7308950
  H       -4.7117870    -1.2913710    -0.2288330
  H        2.5003580    -2.8034100    -0.7313100
  H        4.4376410     0.9347650     0.1641390
  H        4.6312890    -1.4915970    -0.4182900
units angstrom
no_reorient  #important for SAPT in psi4, default
symmetry c1  #important for SAPT in psi4, default
}

set PROPERTIES_ORIGIN ["COM"]
properties('MP2/aug-cc-pvtz', properties = ['dipole'])
--------------------------------------------------------------------------

    Molecular point group: c1
  Charge       = 0
  Multiplicity = 1
  Basis Set: AUG-CC-PVTZ
    Blend: AUG-CC-PVTZ
  Basis Set: (AUG-CC-PVTZ AUX)
    Blend: AUG-CC-PVTZ-JKFIT

    Orbital Energies [Eh]
    ---------------------

    Doubly Occupied:

       1A    -15.579182     2A    -15.549634     3A    -11.317664
       4A    -11.278827     5A    -11.272885     6A    -11.254884
       7A    -11.251876     8A    -11.243232     9A    -11.242775
      10A    -11.238407    11A    -11.237459    12A    -11.236679
      13A    -11.227098    14A    -11.222925    15A     -1.295402
      16A     -1.222014    17A     -1.142727    18A     -1.079218
      19A     -1.029045    20A     -1.020203    21A     -1.002616
      22A     -0.927671    23A     -0.861048    24A     -0.844553
      25A     -0.833236    26A     -0.791640    27A     -0.731493
      28A     -0.692564    29A     -0.669251    30A     -0.658784
      31A     -0.648275    32A     -0.628230    33A     -0.614639
      34A     -0.602153    35A     -0.590314    36A     -0.582164
      37A     -0.569187    38A     -0.539259    39A     -0.535789
      40A     -0.527670    41A     -0.512151    42A     -0.505739
      43A     -0.500092    44A     -0.430928    45A     -0.413724
      46A     -0.377545    47A     -0.343607    48A     -0.338726
      49A     -0.287884

  @DF-RHF Final Energy:  -570.48341071849359

   => Energetics <=

    Nuclear Repulsion Energy =            819.9717095090426255
    One-Electron Energy =               -2399.9041039676862965
    Two-Electron Energy =                1009.4489837401499699
    Total Energy =                       -570.4834107184935874
  Basis Set: (AUG-CC-PVTZ AUX)
    Blend: AUG-CC-PVTZ-RI
    Molecular point group: c1

    Geometry (in Angstrom), charge = 0, multiplicity = 1:

       Center              X                  Y                   Z               Mass
    ------------   -----------------  -----------------  -----------------  -----------------
         N            0.044073526169     0.940799041322     0.295074789079    14.003074004430
         N            2.367784026169     0.963444541322     0.218108789079    14.003074004430
         C           -1.210092973831     0.349970541322     0.133754789079    12.000000000000
         C            1.232574026169     0.251525541322     0.079276789079    12.000000000000
         C            0.129223026169     2.419555541322     0.330479789079    12.000000000000
         C           -1.597845973831    -0.692006458678     0.989580789079    12.000000000000
         C           -2.100734973831     0.802777541322    -0.849514210921    12.000000000000
         C            1.238734026169    -1.116244458678    -0.274841210921    12.000000000000
         C           -2.851258973831    -1.285700458678     0.846188789079    12.000000000000
         C           -3.363945973831     0.221113541322    -0.970213210921    12.000000000000
         C           -3.741082973831    -0.828444458678    -0.130041210921    12.000000000000
         C            2.461758026169    -1.744985458678    -0.455102210921    12.000000000000
         C            3.537874026169     0.324487541322     0.037876789079    12.000000000000
         C            3.647123026169    -1.021885458678    -0.287835210921    12.000000000000
         H            0.880435026169     2.730043541322     1.056817789079     1.007825032230
         H           -0.850789973831     2.794133541322     0.629406789079     1.007825032230
         H            0.405537026169     2.843872541322    -0.643032210921     1.007825032230
         H           -0.913818973831    -1.014626458678     1.770978789079     1.007825032230
         H           -1.797256973831     1.602270541322    -1.521240210921     1.007825032230
         H            0.312682026169    -1.658821458678    -0.426786210921     1.007825032230
         H           -3.143406973831    -2.091939458678     1.515081789079     1.007825032230
         H           -4.049911973831     0.581154541322    -1.733494210921     1.007825032230
         H           -4.722773973831    -1.284072458678    -0.231432210921     1.007825032230
         H            2.489371026169    -2.796111458678    -0.733909210921     1.007825032230
         H            4.426654026169     0.942063541322     0.161539789079     1.007825032230
         H            4.620302026169    -1.484298458678    -0.420889210921     1.007825032230

  Basis Set: AUG-CC-PVTZ
    Blend: AUG-CC-PVTZ
  Basis Set: (AUG-CC-PVTZ AUX)
    Blend: AUG-CC-PVTZ-JKFIT
	 Reference Energy          =    -570.4834107184935874 [Eh]
	 Singles Energy            =      -0.0000000000000000 [Eh]
	 Same-Spin Energy          =      -0.6372251808827915 [Eh]
	 Opposite-Spin Energy      =      -1.9741020254777473 [Eh]
	 Correlation Energy        =      -2.6113272063605386 [Eh]
	 Total Energy              =    -573.0947379248541438 [Eh]

	 ================> DF-SCS-MP2 Energies <==================
	-----------------------------------------------------------
	 SCS Same-Spin Scale       =       0.3333333333333333 [-]
	 SCS Opposite-Spin Scale   =       1.2000000000000000 [-]
	 SCS Same-Spin Energy      =      -0.2124083936275971 [Eh]
	 SCS Opposite-Spin Energy  =      -2.3689224305732965 [Eh]
	 SCS Correlation Energy    =      -2.5813308242008937 [Eh]
	 SCS Total Energy          =    -573.0647415426944917 [Eh]
	-----------------------------------------------------------

  Dipole Moment: [D]
     X:    -1.1295      Y:    -0.8420      Z:    -0.4333     Total:     1.4740

*** Psi4 exiting successfully. Buy a developer a beer!
