                               Psi4 1.3.2 release

  ==> Input File <==

--------------------------------------------------------------------------
#psi4
#
memory 32 gb

molecule  {
0 1
  N        0.0678190     0.9536280     0.3022870
  N        2.3787710     0.9561460     0.2207080
  C       -1.1878669     0.3215783     0.1300488
  C        1.2435610     0.2442270     0.0818760
  C        0.1402100     2.4122570     0.3330790
  C       -1.5868590    -0.6993050     0.9921800
  C       -2.0897480     0.7954790    -0.8469150
  C        1.2497210    -1.1235430    -0.2722420
  C       -2.8402720    -1.2929990     0.8487880
  C       -3.3529590     0.2138150    -0.9676140
  C       -3.7300960    -0.8357430    -0.1274420
  C        2.4727450    -1.7522840    -0.4525030
  C        3.5488610     0.3171890     0.0404760
  C        3.6581100    -1.0291840    -0.2852360
  H        0.8914220     2.7227450     1.0594170
  H       -0.8398030     2.7868350     0.6320060
  H        0.4165240     2.8365740    -0.6404330
  H       -0.9028320    -1.0219250     1.7735780
  H       -1.7862700     1.5949720    -1.5186410
  H        0.3236690    -1.6661200    -0.4241870
  H       -3.1324200    -2.0992380     1.5176810
  H       -4.0389250     0.5738560    -1.7308950
  H       -4.7117870    -1.2913710    -0.2288330
  H        2.5003580    -2.8034100    -0.7313100
  H        4.4376410     0.9347650     0.1641390
  H        4.6312890    -1.4915970    -0.4182900
units angstrom
no_reorient  #important for SAPT in psi4, default
symmetry c1  #important for SAPT in psi4, default
}

set PROPERTIES_ORIGIN ["COM"]
properties('MP2/aug-cc-pvtz', properties = ['dipole'])
--------------------------------------------------------------------------

    Molecular point group: c1
  Charge       = 0
  Multiplicity = 1
  Basis Set: AUG-CC-PVTZ
    Blend: AUG-CC-PVTZ
  Basis Set: (AUG-CC-PVTZ AUX)
    Blend: AUG-CC-PVTZ-JKFIT

    Orbital Energies [Eh]
    ---------------------

    Doubly Occupied:

       1A    -15.579141     2A    -15.548740     3A    -11.316655
       4A    -11.280221     5A    -11.272441     6A    -11.254998
       7A    -11.250272     8A    -11.243643     9A    -11.243448
      10A    -11.240238    11A    -11.238304    12A    -11.237057
      13A    -11.227331    14A    -11.222667    15A     -1.294854
      16A     -1.220186    17A     -1.143891    18A     -1.079109
      19A     -1.027593    20A     -1.021432    21A     -1.004641
      22A     -0.927241    23A     -0.860069    24A     -0.842874
      25A     -0.833301    26A     -0.791996    27A     -0.729713
      28A     -0.693629    29A     -0.669476    30A     -0.657831
      31A     -0.647704    32A     -0.629300    33A     -0.615020
      34A     -0.601920    35A     -0.591781    36A     -0.584212
      37A     -0.568689    38A     -0.538930    39A     -0.535390
      40A     -0.528054    41A     -0.511013    42A     -0.504909
      43A     -0.501392    44A     -0.429800    45A     -0.413452
      46A     -0.377221    47A     -0.344910    48A     -0.338339
      49A     -0.288495

  @DF-RHF Final Energy:  -570.48372848583676

   => Energetics <=

    Nuclear Repulsion Energy =            819.8589658287804696
    One-Electron Energy =               -2399.6783387919517736
    Two-Electron Energy =                1009.3356444773344265
    Total Energy =                       -570.4837284858367639
  Basis Set: (AUG-CC-PVTZ AUX)
    Blend: AUG-CC-PVTZ-RI
    Molecular point group: c1

    Geometry (in Angstrom), charge = 0, multiplicity = 1:

       Center              X                  Y                   Z               Mass
    ------------   -----------------  -----------------  -----------------  -----------------
         N            0.055128998807     0.960770525763     0.299747898893    14.003074004430
         N            2.366080998807     0.963288525763     0.218168898893    14.003074004430
         C           -1.200556901193     0.328720825763     0.127509698893    12.000000000000
         C            1.230870998807     0.251369525763     0.079336898893    12.000000000000
         C            0.127519998807     2.419399525763     0.330539898893    12.000000000000
         C           -1.599549001193    -0.692162474237     0.989640898893    12.000000000000
         C           -2.102438001193     0.802621525763    -0.849454101107    12.000000000000
         C            1.237030998807    -1.116400474237    -0.274781101107    12.000000000000
         C           -2.852962001193    -1.285856474237     0.846248898893    12.000000000000
         C           -3.365649001193     0.220957525763    -0.970153101107    12.000000000000
         C           -3.742786001193    -0.828600474237    -0.129981101107    12.000000000000
         C            2.460054998807    -1.745141474237    -0.455042101107    12.000000000000
         C            3.536170998807     0.324331525763     0.037936898893    12.000000000000
         C            3.645419998807    -1.022041474237    -0.287775101107    12.000000000000
         H            0.878731998807     2.729887525763     1.056877898893     1.007825032230
         H           -0.852493001193     2.793977525763     0.629466898893     1.007825032230
         H            0.403833998807     2.843716525763    -0.642972101107     1.007825032230
         H           -0.915522001193    -1.014782474237     1.771038898893     1.007825032230
         H           -1.798960001193     1.602114525763    -1.521180101107     1.007825032230
         H            0.310978998807    -1.658977474237    -0.426726101107     1.007825032230
         H           -3.145110001193    -2.092095474237     1.515141898893     1.007825032230
         H           -4.051615001193     0.580998525763    -1.733434101107     1.007825032230
         H           -4.724477001193    -1.284228474237    -0.231372101107     1.007825032230
         H            2.487667998807    -2.796267474237    -0.733849101107     1.007825032230
         H            4.424950998807     0.941907525763     0.161599898893     1.007825032230
         H            4.618598998807    -1.484454474237    -0.420829101107     1.007825032230

  Basis Set: AUG-CC-PVTZ
    Blend: AUG-CC-PVTZ
  Basis Set: (AUG-CC-PVTZ AUX)
    Blend: AUG-CC-PVTZ-JKFIT
	 Reference Energy          =    -570.4837284858367639 [Eh]
	 Singles Energy            =      -0.0000000000000000 [Eh]
	 Same-Spin Energy          =      -0.6371640458584776 [Eh]
	 Opposite-Spin Energy      =      -1.9740266446476025 [Eh]
	 Correlation Energy        =      -2.6111906905060800 [Eh]
	 Total Energy              =    -573.0949191763428416 [Eh]

	 ================> DF-SCS-MP2 Energies <==================
	-----------------------------------------------------------
	 SCS Same-Spin Scale       =       0.3333333333333333 [-]
	 SCS Opposite-Spin Scale   =       1.2000000000000000 [-]
	 SCS Same-Spin Energy      =      -0.2123880152861592 [Eh]
	 SCS Opposite-Spin Energy  =      -2.3688319735771231 [Eh]
	 SCS Correlation Energy    =      -2.5812199888632823 [Eh]
	 SCS Total Energy          =    -573.0649484747000315 [Eh]
	-----------------------------------------------------------

  Dipole Moment: [D]
     X:    -1.2027      Y:    -0.8873      Z:    -0.4330     Total:     1.5561

*** Psi4 exiting successfully. Buy a developer a beer!
