                               Psi4 1.4a3.dev225

  ==> Input File <==

--------------------------------------------------------------------------
#psi4
#
memory 32 gb

molecule  {
0 1
  N        0.0678190     0.9536280     0.3022870
  N        2.3787710     0.9561460     0.2207080
  C       -1.1991060     0.3426720     0.1363540
  C        1.2604690     0.2340253     0.0787063
  C        0.1402100     2.4122570     0.3330790
  C       -1.5868590    -0.6993050     0.9921800
  C       -2.0897480     0.7954790    -0.8469150
  C        1.2497210    -1.1235430    -0.2722420
  C       -2.8402720    -1.2929990     0.8487880
  C       -3.3529590     0.2138150    -0.9676140
  C       -3.7300960    -0.8357430    -0.1274420
  C        2.4727450    -1.7522840    -0.4525030
  C        3.5488610     0.3171890     0.0404760
  C        3.6581100    -1.0291840    -0.2852360
  H        0.8914220     2.7227450     1.0594170
  H       -0.8398030     2.7868350     0.6320060
  H        0.4165240     2.8365740    -0.6404330
  H       -0.9028320    -1.0219250     1.7735780
  H       -1.7862700     1.5949720    -1.5186410
  H        0.3236690    -1.6661200    -0.4241870
  H       -3.1324200    -2.0992380     1.5176810
  H       -4.0389250     0.5738560    -1.7308950
  H       -4.7117870    -1.2913710    -0.2288330
  H        2.5003580    -2.8034100    -0.7313100
  H        4.4376410     0.9347650     0.1641390
  H        4.6312890    -1.4915970    -0.4182900
units angstrom
no_reorient  #important for SAPT in psi4, default
symmetry c1  #important for SAPT in psi4, default
}

set PROPERTIES_ORIGIN ["COM"]
properties('MP2/aug-cc-pvtz', properties = ['dipole'])
--------------------------------------------------------------------------

    Molecular point group: c1
  Charge       = 0
  Multiplicity = 1
  Basis Set: AUG-CC-PVTZ
    Blend: AUG-CC-PVTZ
  Basis Set: (AUG-CC-PVTZ AUX)
    Blend: AUG-CC-PVTZ-JKFIT

    Orbital Energies [Eh]
    ---------------------

    Doubly Occupied:

       1A    -15.576060     2A    -15.550733     3A    -11.316532
       4A    -11.278740     5A    -11.273931     6A    -11.256472
       7A    -11.248021     8A    -11.242726     9A    -11.242455
      10A    -11.237879    11A    -11.237119    12A    -11.236523
      13A    -11.228035    14A    -11.224802    15A     -1.292158
      16A     -1.221273    17A     -1.142216    18A     -1.082023
      19A     -1.028918    20A     -1.019484    21A     -1.004222
      22A     -0.923938    23A     -0.860449    24A     -0.844348
      25A     -0.832382    26A     -0.791728    27A     -0.728975
      28A     -0.693286    29A     -0.669529    30A     -0.657269
      31A     -0.646196    32A     -0.628959    33A     -0.615228
      34A     -0.601986    35A     -0.590464    36A     -0.583070
      37A     -0.568795    38A     -0.538123    39A     -0.537173
      40A     -0.527783    41A     -0.509921    42A     -0.503954
      43A     -0.499982    44A     -0.427246    45A     -0.417315
      46A     -0.379006    47A     -0.343371    48A     -0.338888
      49A     -0.289738

  @DF-RHF Final Energy:  -570.48382131592587

   => Energetics <=

    Nuclear Repulsion Energy =            819.7087674998020930
    One-Electron Energy =               -2399.4063252413930059
    Two-Electron Energy =                1009.2137364256651608
    Total Energy =                       -570.4838213159258657
  Basis Set: (AUG-CC-PVTZ AUX)
    Blend: AUG-CC-PVTZ-RI
    Molecular point group: c1

    Geometry (in Angstrom), charge = 0, multiplicity = 1:

       Center              X                  Y                   Z               Mass
    ------------   -----------------  -----------------  -----------------  -----------------
         N            0.054759488856     0.960060563972     0.299543520891    14.003074004430
         N            2.365711488856     0.962578563972     0.217964520891    14.003074004430
         C           -1.212165511144     0.349104563972     0.133610520891    12.000000000000
         C            1.247409488856     0.240457863972     0.075962820891    12.000000000000
         C            0.127150488856     2.418689563972     0.330335520891    12.000000000000
         C           -1.599918511144    -0.692872436028     0.989436520891    12.000000000000
         C           -2.102807511144     0.801911563972    -0.849658479109    12.000000000000
         C            1.236661488856    -1.117110436028    -0.274985479109    12.000000000000
         C           -2.853331511144    -1.286566436028     0.846044520891    12.000000000000
         C           -3.366018511144     0.220247563972    -0.970357479109    12.000000000000
         C           -3.743155511144    -0.829310436028    -0.130185479109    12.000000000000
         C            2.459685488856    -1.745851436028    -0.455246479109    12.000000000000
         C            3.535801488856     0.323621563972     0.037732520891    12.000000000000
         C            3.645050488856    -1.022751436028    -0.287979479109    12.000000000000
         H            0.878362488856     2.729177563972     1.056673520891     1.007825032230
         H           -0.852862511144     2.793267563972     0.629262520891     1.007825032230
         H            0.403464488856     2.843006563972    -0.643176479109     1.007825032230
         H           -0.915891511144    -1.015492436028     1.770834520891     1.007825032230
         H           -1.799329511144     1.601404563972    -1.521384479109     1.007825032230
         H            0.310609488856    -1.659687436028    -0.426930479109     1.007825032230
         H           -3.145479511144    -2.092805436028     1.514937520891     1.007825032230
         H           -4.051984511144     0.580288563972    -1.733638479109     1.007825032230
         H           -4.724846511144    -1.284938436028    -0.231576479109     1.007825032230
         H            2.487298488856    -2.796977436028    -0.734053479109     1.007825032230
         H            4.424581488856     0.941197563972     0.161395520891     1.007825032230
         H            4.618229488856    -1.485164436028    -0.421033479109     1.007825032230

  Basis Set: AUG-CC-PVTZ
    Blend: AUG-CC-PVTZ
  Basis Set: (AUG-CC-PVTZ AUX)
    Blend: AUG-CC-PVTZ-JKFIT
	 Reference Energy          =    -570.4838213159258657 [Eh]
	 Singles Energy            =      -0.0000000000000000 [Eh]
	 Same-Spin Energy          =      -0.6370435360573657 [Eh]
	 Opposite-Spin Energy      =      -1.9737960640544969 [Eh]
	 Correlation Energy        =      -2.6108396001118628 [Eh]
	 Total Energy              =    -573.0946609160376966 [Eh]

	 ================> DF-SCS-MP2 Energies <==================
	-----------------------------------------------------------
	 SCS Same-Spin Scale       =       0.3333333333333333 [-]
	 SCS Opposite-Spin Scale   =       1.2000000000000000 [-]
	 SCS Same-Spin Energy      =      -0.2123478453524552 [Eh]
	 SCS Opposite-Spin Energy  =      -2.3685552768653961 [Eh]
	 SCS Correlation Energy    =      -2.5809031222178516 [Eh]
	 SCS Total Energy          =    -573.0647244381436849 [Eh]
	-----------------------------------------------------------

  Dipole Moment: [D]
     X:    -0.9892      Y:    -0.9770      Z:    -0.4654     Total:     1.4662

*** Psi4 exiting successfully. Buy a developer a beer!
