                               Psi4 1.4a3.dev225

  ==> Input File <==

--------------------------------------------------------------------------
#psi4
#
memory 32 gb

molecule  {
0 1
  N        0.0678190     0.9536280     0.3022870
  N        2.3787710     0.9561460     0.2207080
  C       -1.1991060     0.3426720     0.1363540
  C        1.2435610     0.2442270     0.0818760
  C        0.1377321     2.3623296     0.3320250
  C       -1.5868590    -0.6993050     0.9921800
  C       -2.0897480     0.7954790    -0.8469150
  C        1.2497210    -1.1235430    -0.2722420
  C       -2.8402720    -1.2929990     0.8487880
  C       -3.3529590     0.2138150    -0.9676140
  C       -3.7300960    -0.8357430    -0.1274420
  C        2.4727450    -1.7522840    -0.4525030
  C        3.5488610     0.3171890     0.0404760
  C        3.6581100    -1.0291840    -0.2852360
  H        0.8914220     2.7227450     1.0594170
  H       -0.8398030     2.7868350     0.6320060
  H        0.4165240     2.8365740    -0.6404330
  H       -0.9028320    -1.0219250     1.7735780
  H       -1.7862700     1.5949720    -1.5186410
  H        0.3236690    -1.6661200    -0.4241870
  H       -3.1324200    -2.0992380     1.5176810
  H       -4.0389250     0.5738560    -1.7308950
  H       -4.7117870    -1.2913710    -0.2288330
  H        2.5003580    -2.8034100    -0.7313100
  H        4.4376410     0.9347650     0.1641390
  H        4.6312890    -1.4915970    -0.4182900
units angstrom
no_reorient  #important for SAPT in psi4, default
symmetry c1  #important for SAPT in psi4, default
}

set PROPERTIES_ORIGIN ["COM"]
properties('MP2/aug-cc-pvtz', properties = ['dipole'])
--------------------------------------------------------------------------

    Molecular point group: c1
  Charge       = 0
  Multiplicity = 1
  Basis Set: AUG-CC-PVTZ
    Blend: AUG-CC-PVTZ
  Basis Set: (AUG-CC-PVTZ AUX)
    Blend: AUG-CC-PVTZ-JKFIT

    Orbital Energies [Eh]
    ---------------------

    Doubly Occupied:

       1A    -15.580078     2A    -15.550033     3A    -11.318090
       4A    -11.281207     5A    -11.273213     6A    -11.255826
       7A    -11.249064     8A    -11.244280     9A    -11.244013
      10A    -11.240106    11A    -11.239061    12A    -11.238815
      13A    -11.228758    14A    -11.223919    15A     -1.301831
      16A     -1.224312    17A     -1.145986    18A     -1.080164
      19A     -1.029918    20A     -1.021458    21A     -1.007967
      22A     -0.924113    23A     -0.862043    24A     -0.843377
      25A     -0.834070    26A     -0.792571    27A     -0.732415
      28A     -0.696213    29A     -0.672390    30A     -0.659635
      31A     -0.649735    32A     -0.632214    33A     -0.615296
      34A     -0.604061    35A     -0.593762    36A     -0.585878
      37A     -0.569248    38A     -0.532276    39A     -0.530362
      40A     -0.529288    41A     -0.511772    42A     -0.503782
      43A     -0.502096    44A     -0.426734    45A     -0.413873
      46A     -0.378086    47A     -0.344838    48A     -0.340229
      49A     -0.289521

  @DF-RHF Final Energy:  -570.48153343004799

   => Energetics <=

    Nuclear Repulsion Energy =            820.9314441738357573
    One-Electron Energy =               -2401.7300093702860977
    Two-Electron Energy =                1010.3170317664024651
    Total Energy =                       -570.4815334300479890
  Basis Set: (AUG-CC-PVTZ AUX)
    Blend: AUG-CC-PVTZ-RI
    Molecular point group: c1

    Geometry (in Angstrom), charge = 0, multiplicity = 1:

       Center              X                  Y                   Z               Mass
    ------------   -----------------  -----------------  -----------------  -----------------
         N            0.056023099604     0.962649962531     0.299405615441    14.003074004430
         N            2.366975099604     0.965167962531     0.217826615441    14.003074004430
         C           -1.210901900396     0.351693962531     0.133472615441    12.000000000000
         C            1.231765099604     0.253248962531     0.078994615441    12.000000000000
         C            0.125936199604     2.371351562531     0.329143615441    12.000000000000
         C           -1.598654900396    -0.690283037469     0.989298615441    12.000000000000
         C           -2.101543900396     0.804500962531    -0.849796384559    12.000000000000
         C            1.237925099604    -1.114521037469    -0.275123384559    12.000000000000
         C           -2.852067900396    -1.283977037469     0.845906615441    12.000000000000
         C           -3.364754900396     0.222836962531    -0.970495384559    12.000000000000
         C           -3.741891900396    -0.826721037469    -0.130323384559    12.000000000000
         C            2.460949099604    -1.743262037469    -0.455384384559    12.000000000000
         C            3.537065099604     0.326210962531     0.037594615441    12.000000000000
         C            3.646314099604    -1.020162037469    -0.288117384559    12.000000000000
         H            0.879626099604     2.731766962531     1.056535615441     1.007825032230
         H           -0.851598900396     2.795856962531     0.629124615441     1.007825032230
         H            0.404728099604     2.845595962531    -0.643314384559     1.007825032230
         H           -0.914627900396    -1.012903037469     1.770696615441     1.007825032230
         H           -1.798065900396     1.603993962531    -1.521522384559     1.007825032230
         H            0.311873099604    -1.657098037469    -0.427068384559     1.007825032230
         H           -3.144215900396    -2.090216037469     1.514799615441     1.007825032230
         H           -4.050720900396     0.582877962531    -1.733776384559     1.007825032230
         H           -4.723582900396    -1.282349037469    -0.231714384559     1.007825032230
         H            2.488562099604    -2.794388037469    -0.734191384559     1.007825032230
         H            4.425845099604     0.943786962531     0.161257615441     1.007825032230
         H            4.619493099604    -1.482575037469    -0.421171384559     1.007825032230

  Basis Set: AUG-CC-PVTZ
    Blend: AUG-CC-PVTZ
  Basis Set: (AUG-CC-PVTZ AUX)
    Blend: AUG-CC-PVTZ-JKFIT
	 Reference Energy          =    -570.4815334300479890 [Eh]
	 Singles Energy            =      -0.0000000000000000 [Eh]
	 Same-Spin Energy          =      -0.6375509421591009 [Eh]
	 Opposite-Spin Energy      =      -1.9741683468335134 [Eh]
	 Correlation Energy        =      -2.6117192889926142 [Eh]
	 Total Energy              =    -573.0932527190406063 [Eh]

	 ================> DF-SCS-MP2 Energies <==================
	-----------------------------------------------------------
	 SCS Same-Spin Scale       =       0.3333333333333333 [-]
	 SCS Opposite-Spin Scale   =       1.2000000000000000 [-]
	 SCS Same-Spin Energy      =      -0.2125169807197003 [Eh]
	 SCS Opposite-Spin Energy  =      -2.3690020162002159 [Eh]
	 SCS Correlation Energy    =      -2.5815189969199164 [Eh]
	 SCS Total Energy          =    -573.0630524269679427 [Eh]
	-----------------------------------------------------------

  Dipole Moment: [D]
     X:    -1.1887      Y:    -1.0673      Z:    -0.4388     Total:     1.6567

*** Psi4 exiting successfully. Buy a developer a beer!
