                               Psi4 1.4a3.dev225

  ==> Input File <==

--------------------------------------------------------------------------
#psi4
#
memory 32 gb

molecule  {
0 1
  N        0.0678190     0.9536280     0.3022870
  N        2.3787710     0.9561460     0.2207080
  C       -1.1991060     0.3426720     0.1363540
  C        1.2266530     0.2544287     0.0850457
  C        0.1402100     2.4122570     0.3330790
  C       -1.5868590    -0.6993050     0.9921800
  C       -2.0897480     0.7954790    -0.8469150
  C        1.2497210    -1.1235430    -0.2722420
  C       -2.8402720    -1.2929990     0.8487880
  C       -3.3529590     0.2138150    -0.9676140
  C       -3.7300960    -0.8357430    -0.1274420
  C        2.4727450    -1.7522840    -0.4525030
  C        3.5488610     0.3171890     0.0404760
  C        3.6581100    -1.0291840    -0.2852360
  H        0.8914220     2.7227450     1.0594170
  H       -0.8398030     2.7868350     0.6320060
  H        0.4165240     2.8365740    -0.6404330
  H       -0.9028320    -1.0219250     1.7735780
  H       -1.7862700     1.5949720    -1.5186410
  H        0.3236690    -1.6661200    -0.4241870
  H       -3.1324200    -2.0992380     1.5176810
  H       -4.0389250     0.5738560    -1.7308950
  H       -4.7117870    -1.2913710    -0.2288330
  H        2.5003580    -2.8034100    -0.7313100
  H        4.4376410     0.9347650     0.1641390
  H        4.6312890    -1.4915970    -0.4182900
units angstrom
no_reorient  #important for SAPT in psi4, default
symmetry c1  #important for SAPT in psi4, default
}

set PROPERTIES_ORIGIN ["COM"]
properties('MP2/aug-cc-pvtz', properties = ['dipole'])
--------------------------------------------------------------------------

    Molecular point group: c1
  Charge       = 0
  Multiplicity = 1
  Basis Set: AUG-CC-PVTZ
    Blend: AUG-CC-PVTZ
  Basis Set: (AUG-CC-PVTZ AUX)
    Blend: AUG-CC-PVTZ-JKFIT

    Orbital Energies [Eh]
    ---------------------

    Doubly Occupied:

       1A    -15.582113     2A    -15.547125     3A    -11.317834
       4A    -11.281834     5A    -11.271175     6A    -11.253649
       7A    -11.251364     8A    -11.244791     9A    -11.244409
      10A    -11.240799    11A    -11.239500    12A    -11.239237
      13A    -11.226919    14A    -11.220662    15A     -1.298394
      16A     -1.218833    17A     -1.145730    18A     -1.076356
      19A     -1.028416    20A     -1.021618    21A     -1.005233
      22A     -0.929744    23A     -0.860768    24A     -0.842043
      25A     -0.833857    26A     -0.792171    27A     -0.731869
      28A     -0.693723    29A     -0.669474    30A     -0.658608
      31A     -0.649762    32A     -0.629538    33A     -0.614348
      34A     -0.603414    35A     -0.591799    36A     -0.584977
      37A     -0.568119    38A     -0.540167    39A     -0.533669
      40A     -0.527849    41A     -0.512531    42A     -0.506176
      43A     -0.502235    44A     -0.432534    45A     -0.409564
      46A     -0.375666    47A     -0.344967    48A     -0.339907
      49A     -0.287004

  @DF-RHF Final Energy:  -570.48351739283180

   => Energetics <=

    Nuclear Repulsion Energy =            819.8387149567986398
    One-Electron Energy =               -2399.5995248646936489
    Two-Electron Energy =                1009.2772925150632091
    Total Energy =                       -570.4835173928318000
  Basis Set: (AUG-CC-PVTZ AUX)
    Blend: AUG-CC-PVTZ-RI
    Molecular point group: c1

    Geometry (in Angstrom), charge = 0, multiplicity = 1:

       Center              X                  Y                   Z               Mass
    ------------   -----------------  -----------------  -----------------  -----------------
         N            0.056963681649     0.958730630590     0.299130306442    14.003074004430
         N            2.367915681649     0.961248630590     0.217551306442    14.003074004430
         C           -1.209961318351     0.347774630590     0.133197306442    12.000000000000
         C            1.215797681649     0.259531330590     0.081889006442    12.000000000000
         C            0.129354681649     2.417359630590     0.329922306442    12.000000000000
         C           -1.597714318351    -0.694202369410     0.989023306442    12.000000000000
         C           -2.100603318351     0.800581630590    -0.850071693558    12.000000000000
         C            1.238865681649    -1.118440369410    -0.275398693558    12.000000000000
         C           -2.851127318351    -1.287896369410     0.845631306442    12.000000000000
         C           -3.363814318351     0.218917630590    -0.970770693558    12.000000000000
         C           -3.740951318351    -0.830640369410    -0.130598693558    12.000000000000
         C            2.461889681649    -1.747181369410    -0.455659693558    12.000000000000
         C            3.538005681649     0.322291630590     0.037319306442    12.000000000000
         C            3.647254681649    -1.024081369410    -0.288392693558    12.000000000000
         H            0.880566681649     2.727847630590     1.056260306442     1.007825032230
         H           -0.850658318351     2.791937630590     0.628849306442     1.007825032230
         H            0.405668681649     2.841676630590    -0.643589693558     1.007825032230
         H           -0.913687318351    -1.016822369410     1.770421306442     1.007825032230
         H           -1.797125318351     1.600074630590    -1.521797693558     1.007825032230
         H            0.312813681649    -1.661017369410    -0.427343693558     1.007825032230
         H           -3.143275318351    -2.094135369410     1.514524306442     1.007825032230
         H           -4.049780318351     0.578958630590    -1.734051693558     1.007825032230
         H           -4.722642318351    -1.286268369410    -0.231989693558     1.007825032230
         H            2.489502681649    -2.798307369410    -0.734466693558     1.007825032230
         H            4.426785681649     0.939867630590     0.160982306442     1.007825032230
         H            4.620433681649    -1.486494369410    -0.421446693558     1.007825032230

  Basis Set: AUG-CC-PVTZ
    Blend: AUG-CC-PVTZ
  Basis Set: (AUG-CC-PVTZ AUX)
    Blend: AUG-CC-PVTZ-JKFIT
	 Reference Energy          =    -570.4835173928318000 [Eh]
	 Singles Energy            =      -0.0000000000000000 [Eh]
	 Same-Spin Energy          =      -0.6371986215912037 [Eh]
	 Opposite-Spin Energy      =      -1.9741246901770935 [Eh]
	 Correlation Energy        =      -2.6113233117682970 [Eh]
	 Total Energy              =    -573.0948407046000739 [Eh]

	 ================> DF-SCS-MP2 Energies <==================
	-----------------------------------------------------------
	 SCS Same-Spin Scale       =       0.3333333333333333 [-]
	 SCS Opposite-Spin Scale   =       1.2000000000000000 [-]
	 SCS Same-Spin Energy      =      -0.2123995405304012 [Eh]
	 SCS Opposite-Spin Energy  =      -2.3689496282125120 [Eh]
	 SCS Correlation Energy    =      -2.5813491687429133 [Eh]
	 SCS Total Energy          =    -573.0648665615747177 [Eh]
	-----------------------------------------------------------

  Dipole Moment: [D]
     X:    -1.4115      Y:    -0.8207      Z:    -0.4114     Total:     1.6838

*** Psi4 exiting successfully. Buy a developer a beer!
