                               Psi4 1.3.2 release

  ==> Input File <==

--------------------------------------------------------------------------
#psi4
#
memory 32 gb

molecule  {
0 1
  N        0.0575159     0.9833506     0.2641518
  N        2.3787710     0.9561460     0.2207080
  C       -1.1991060     0.3426720     0.1363540
  C        1.2435610     0.2442270     0.0818760
  C        0.1402100     2.4122570     0.3330790
  C       -1.5868590    -0.6993050     0.9921800
  C       -2.0897480     0.7954790    -0.8469150
  C        1.2497210    -1.1235430    -0.2722420
  C       -2.8402720    -1.2929990     0.8487880
  C       -3.3529590     0.2138150    -0.9676140
  C       -3.7300960    -0.8357430    -0.1274420
  C        2.4727450    -1.7522840    -0.4525030
  C        3.5488610     0.3171890     0.0404760
  C        3.6581100    -1.0291840    -0.2852360
  H        0.8914220     2.7227450     1.0594170
  H       -0.8398030     2.7868350     0.6320060
  H        0.4165240     2.8365740    -0.6404330
  H       -0.9028320    -1.0219250     1.7735780
  H       -1.7862700     1.5949720    -1.5186410
  H        0.3236690    -1.6661200    -0.4241870
  H       -3.1324200    -2.0992380     1.5176810
  H       -4.0389250     0.5738560    -1.7308950
  H       -4.7117870    -1.2913710    -0.2288330
  H        2.5003580    -2.8034100    -0.7313100
  H        4.4376410     0.9347650     0.1641390
  H        4.6312890    -1.4915970    -0.4182900
units angstrom
no_reorient  #important for SAPT in psi4, default
symmetry c1  #important for SAPT in psi4, default
}

set PROPERTIES_ORIGIN ["COM"]
properties('MP2/aug-cc-pvtz', properties = ['dipole'])
--------------------------------------------------------------------------

    Molecular point group: c1
  Charge       = 0
  Multiplicity = 1
  Basis Set: AUG-CC-PVTZ
    Blend: AUG-CC-PVTZ
  Basis Set: (AUG-CC-PVTZ AUX)
    Blend: AUG-CC-PVTZ-JKFIT

    Orbital Energies [Eh]
    ---------------------

    Doubly Occupied:

       1A    -15.577218     2A    -15.550345     3A    -11.318654
       4A    -11.280003     5A    -11.273202     6A    -11.255977
       7A    -11.246783     8A    -11.243627     9A    -11.243028
      10A    -11.238455    11A    -11.237993    12A    -11.237837
      13A    -11.229176    14A    -11.224175    15A     -1.293567
      16A     -1.221877    17A     -1.143906    18A     -1.080086
      19A     -1.028532    20A     -1.020078    21A     -1.007403
      22A     -0.925094    23A     -0.859864    24A     -0.843905
      25A     -0.832546    26A     -0.791912    27A     -0.729440
      28A     -0.694158    29A     -0.669607    30A     -0.657814
      31A     -0.648093    32A     -0.630606    33A     -0.615985
      34A     -0.602153    35A     -0.592748    36A     -0.586101
      37A     -0.570101    38A     -0.537054    39A     -0.535269
      40A     -0.528864    41A     -0.510729    42A     -0.503976
      43A     -0.501367    44A     -0.425632    45A     -0.414745
      46A     -0.378039    47A     -0.344111    48A     -0.339570
      49A     -0.288470

  @DF-RHF Final Energy:  -570.48275460932098

   => Energetics <=

    Nuclear Repulsion Energy =            819.6972105691563684
    One-Electron Energy =               -2399.3401759119024064
    Two-Electron Energy =                1009.1602107334250604
    Total Energy =                       -570.4827546093209776
  Basis Set: (AUG-CC-PVTZ AUX)
    Blend: AUG-CC-PVTZ-RI
    Molecular point group: c1

    Geometry (in Angstrom), charge = 0, multiplicity = 1:

       Center              X                  Y                   Z               Mass
    ------------   -----------------  -----------------  -----------------  -----------------
         N            0.046342162786     0.986857427819     0.264102364875    14.003074004430
         N            2.367597262786     0.959652827819     0.220658564875    14.003074004430
         C           -1.210279737214     0.346178827819     0.136304564875    12.000000000000
         C            1.232387262786     0.247733827819     0.081826564875    12.000000000000
         C            0.129036262786     2.415763827819     0.333029564875    12.000000000000
         C           -1.598032737214    -0.695798172181     0.992130564875    12.000000000000
         C           -2.100921737214     0.798985827819    -0.846964435125    12.000000000000
         C            1.238547262786    -1.120036172181    -0.272291435125    12.000000000000
         C           -2.851445737214    -1.289492172181     0.848738564875    12.000000000000
         C           -3.364132737214     0.217321827819    -0.967663435125    12.000000000000
         C           -3.741269737214    -0.832236172181    -0.127491435125    12.000000000000
         C            2.461571262786    -1.748777172181    -0.452552435125    12.000000000000
         C            3.537687262786     0.320695827819     0.040426564875    12.000000000000
         C            3.646936262786    -1.025677172181    -0.285285435125    12.000000000000
         H            0.880248262786     2.726251827819     1.059367564875     1.007825032230
         H           -0.850976737214     2.790341827819     0.631956564875     1.007825032230
         H            0.405350262786     2.840080827819    -0.640482435125     1.007825032230
         H           -0.914005737214    -1.018418172181     1.773528564875     1.007825032230
         H           -1.797443737214     1.598478827819    -1.518690435125     1.007825032230
         H            0.312495262786    -1.662613172181    -0.424236435125     1.007825032230
         H           -3.143593737214    -2.095731172181     1.517631564875     1.007825032230
         H           -4.050098737214     0.577362827819    -1.730944435125     1.007825032230
         H           -4.722960737214    -1.287864172181    -0.228882435125     1.007825032230
         H            2.489184262786    -2.799903172181    -0.731359435125     1.007825032230
         H            4.426467262786     0.938271827819     0.164089564875     1.007825032230
         H            4.620115262786    -1.488090172181    -0.418339435125     1.007825032230

  Basis Set: AUG-CC-PVTZ
    Blend: AUG-CC-PVTZ
  Basis Set: (AUG-CC-PVTZ AUX)
    Blend: AUG-CC-PVTZ-JKFIT
	 Reference Energy          =    -570.4827546093209776 [Eh]
	 Singles Energy            =      -0.0000000000000000 [Eh]
	 Same-Spin Energy          =      -0.6372823896995783 [Eh]
	 Opposite-Spin Energy      =      -1.9740156769545194 [Eh]
	 Correlation Energy        =      -2.6112980666540979 [Eh]
	 Total Energy              =    -573.0940526759750355 [Eh]

	 ================> DF-SCS-MP2 Energies <==================
	-----------------------------------------------------------
	 SCS Same-Spin Scale       =       0.3333333333333333 [-]
	 SCS Opposite-Spin Scale   =       1.2000000000000000 [-]
	 SCS Same-Spin Energy      =      -0.2124274632331928 [Eh]
	 SCS Opposite-Spin Energy  =      -2.3688188123454230 [Eh]
	 SCS Correlation Energy    =      -2.5812462755786156 [Eh]
	 SCS Total Energy          =    -573.0640008848995421 [Eh]
	-----------------------------------------------------------

  Dipole Moment: [D]
     X:    -1.1086      Y:    -0.9920      Z:    -0.4009     Total:     1.5407

*** Psi4 exiting successfully. Buy a developer a beer!
