                               Psi4 1.3.2 release

  ==> Input File <==

--------------------------------------------------------------------------
#psi4
#
memory 32 gb

molecule  {
0 1
  N        0.0678190     0.9536280     0.3022870
  N        2.3787710     0.9561460     0.2207080
  C       -1.1991060     0.3426720     0.1363540
  C        1.2182223     0.2029355     0.0849553
  C        0.1402100     2.4122570     0.3330790
  C       -1.5868590    -0.6993050     0.9921800
  C       -2.0897480     0.7954790    -0.8469150
  C        1.2497210    -1.1235430    -0.2722420
  C       -2.8402720    -1.2929990     0.8487880
  C       -3.3529590     0.2138150    -0.9676140
  C       -3.7300960    -0.8357430    -0.1274420
  C        2.4727450    -1.7522840    -0.4525030
  C        3.5488610     0.3171890     0.0404760
  C        3.6581100    -1.0291840    -0.2852360
  H        0.8914220     2.7227450     1.0594170
  H       -0.8398030     2.7868350     0.6320060
  H        0.4165240     2.8365740    -0.6404330
  H       -0.9028320    -1.0219250     1.7735780
  H       -1.7862700     1.5949720    -1.5186410
  H        0.3236690    -1.6661200    -0.4241870
  H       -3.1324200    -2.0992380     1.5176810
  H       -4.0389250     0.5738560    -1.7308950
  H       -4.7117870    -1.2913710    -0.2288330
  H        2.5003580    -2.8034100    -0.7313100
  H        4.4376410     0.9347650     0.1641390
  H        4.6312890    -1.4915970    -0.4182900
units angstrom
no_reorient  #important for SAPT in psi4, default
symmetry c1  #important for SAPT in psi4, default
}

set PROPERTIES_ORIGIN ["COM"]
properties('MP2/aug-cc-pvtz', properties = ['dipole'])
--------------------------------------------------------------------------

    Molecular point group: c1
  Charge       = 0
  Multiplicity = 1
  Basis Set: AUG-CC-PVTZ
    Blend: AUG-CC-PVTZ
  Basis Set: (AUG-CC-PVTZ AUX)
    Blend: AUG-CC-PVTZ-JKFIT

    Orbital Energies [Eh]
    ---------------------

    Doubly Occupied:

       1A    -15.579481     2A    -15.551905     3A    -11.315996
       4A    -11.279144     5A    -11.272580     6A    -11.256976
       7A    -11.250609     8A    -11.243383     9A    -11.243122
      10A    -11.238691    11A    -11.237787    12A    -11.237403
      13A    -11.223498    14A    -11.222973    15A     -1.291191
      16A     -1.214914    17A     -1.143335    18A     -1.079190
      19A     -1.030586    20A     -1.020234    21A     -1.005571
      22A     -0.927620    23A     -0.857129    24A     -0.846022
      25A     -0.833441    26A     -0.791265    27A     -0.729197
      28A     -0.693787    29A     -0.669403    30A     -0.655171
      31A     -0.646746    32A     -0.628796    33A     -0.616892
      34A     -0.601327    35A     -0.591332    36A     -0.584783
      37A     -0.568594    38A     -0.540285    39A     -0.533782
      40A     -0.527019    41A     -0.509728    42A     -0.504008
      43A     -0.500802    44A     -0.430454    45A     -0.414275
      46A     -0.375672    47A     -0.343967    48A     -0.340063
      49A     -0.288765

  @DF-RHF Final Energy:  -570.47979449883553

   => Energetics <=

    Nuclear Repulsion Energy =            819.7970584711914626
    One-Electron Energy =               -2399.5759151842908068
    Two-Electron Energy =                1009.2990622142636994
    Total Energy =                       -570.4797944988355312
  Basis Set: (AUG-CC-PVTZ AUX)
    Blend: AUG-CC-PVTZ-RI
    Molecular point group: c1

    Geometry (in Angstrom), charge = 0, multiplicity = 1:

       Center              X                  Y                   Z               Mass
    ------------   -----------------  -----------------  -----------------  -----------------
         N            0.057513211108     0.962087057736     0.299136198890    14.003074004430
         N            2.368465211108     0.964605057736     0.217557198890    14.003074004430
         C           -1.209411788892     0.351131057736     0.133203198890    12.000000000000
         C            1.207916511108     0.211394557736     0.081804498890    12.000000000000
         C            0.129904211108     2.420716057736     0.329928198890    12.000000000000
         C           -1.597164788892    -0.690845942264     0.989029198890    12.000000000000
         C           -2.100053788892     0.803938057736    -0.850065801110    12.000000000000
         C            1.239415211108    -1.115083942264    -0.275392801110    12.000000000000
         C           -2.850577788892    -1.284539942264     0.845637198890    12.000000000000
         C           -3.363264788892     0.222274057736    -0.970764801110    12.000000000000
         C           -3.740401788892    -0.827283942264    -0.130592801110    12.000000000000
         C            2.462439211108    -1.743824942264    -0.455653801110    12.000000000000
         C            3.538555211108     0.325648057736     0.037325198890    12.000000000000
         C            3.647804211108    -1.020724942264    -0.288386801110    12.000000000000
         H            0.881116211108     2.731204057736     1.056266198890     1.007825032230
         H           -0.850108788892     2.795294057736     0.628855198890     1.007825032230
         H            0.406218211108     2.845033057736    -0.643583801110     1.007825032230
         H           -0.913137788892    -1.013465942264     1.770427198890     1.007825032230
         H           -1.796575788892     1.603431057736    -1.521791801110     1.007825032230
         H            0.313363211108    -1.657660942264    -0.427337801110     1.007825032230
         H           -3.142725788892    -2.090778942264     1.514530198890     1.007825032230
         H           -4.049230788892     0.582315057736    -1.734045801110     1.007825032230
         H           -4.722092788892    -1.282911942264    -0.231983801110     1.007825032230
         H            2.490052211108    -2.794950942264    -0.734460801110     1.007825032230
         H            4.427335211108     0.943224057736     0.160988198890     1.007825032230
         H            4.620983211108    -1.483137942264    -0.421440801110     1.007825032230

  Basis Set: AUG-CC-PVTZ
    Blend: AUG-CC-PVTZ
  Basis Set: (AUG-CC-PVTZ AUX)
    Blend: AUG-CC-PVTZ-JKFIT
	 Reference Energy          =    -570.4797944988355312 [Eh]
	 Singles Energy            =      -0.0000000000000000 [Eh]
	 Same-Spin Energy          =      -0.6375940516426541 [Eh]
	 Opposite-Spin Energy      =      -1.9749237435687297 [Eh]
	 Correlation Energy        =      -2.6125177952113838 [Eh]
	 Total Energy              =    -573.0923122940469057 [Eh]

	 ================> DF-SCS-MP2 Energies <==================
	-----------------------------------------------------------
	 SCS Same-Spin Scale       =       0.3333333333333333 [-]
	 SCS Opposite-Spin Scale   =       1.2000000000000000 [-]
	 SCS Same-Spin Energy      =      -0.2125313505475514 [Eh]
	 SCS Opposite-Spin Energy  =      -2.3699084922824754 [Eh]
	 SCS Correlation Energy    =      -2.5824398428300266 [Eh]
	 SCS Total Energy          =    -573.0622343416655440 [Eh]
	-----------------------------------------------------------

  Dipole Moment: [D]
     X:    -1.1634      Y:    -0.8895      Z:    -0.4331     Total:     1.5272

*** Psi4 exiting successfully. Buy a developer a beer!
