                               Psi4 1.3.2 release

  ==> Input File <==

--------------------------------------------------------------------------
#psi4
#
memory 32 gb

molecule  {
0 1
  N        0.0678190     0.9536280     0.3022870
  N        2.3787710     0.9561460     0.2207080
  C       -1.1991060     0.3426720     0.1363540
  C        1.2556951     0.2652001     0.0804368
  C        0.1402100     2.4122570     0.3330790
  C       -1.5868590    -0.6993050     0.9921800
  C       -2.0897480     0.7954790    -0.8469150
  C        1.2497210    -1.1235430    -0.2722420
  C       -2.8402720    -1.2929990     0.8487880
  C       -3.3529590     0.2138150    -0.9676140
  C       -3.7300960    -0.8357430    -0.1274420
  C        2.4727450    -1.7522840    -0.4525030
  C        3.5488610     0.3171890     0.0404760
  C        3.6581100    -1.0291840    -0.2852360
  H        0.8914220     2.7227450     1.0594170
  H       -0.8398030     2.7868350     0.6320060
  H        0.4165240     2.8365740    -0.6404330
  H       -0.9028320    -1.0219250     1.7735780
  H       -1.7862700     1.5949720    -1.5186410
  H        0.3236690    -1.6661200    -0.4241870
  H       -3.1324200    -2.0992380     1.5176810
  H       -4.0389250     0.5738560    -1.7308950
  H       -4.7117870    -1.2913710    -0.2288330
  H        2.5003580    -2.8034100    -0.7313100
  H        4.4376410     0.9347650     0.1641390
  H        4.6312890    -1.4915970    -0.4182900
units angstrom
no_reorient  #important for SAPT in psi4, default
symmetry c1  #important for SAPT in psi4, default
}

set PROPERTIES_ORIGIN ["COM"]
properties('MP2/aug-cc-pvtz', properties = ['dipole'])
--------------------------------------------------------------------------

    Molecular point group: c1
  Charge       = 0
  Multiplicity = 1
  Basis Set: AUG-CC-PVTZ
    Blend: AUG-CC-PVTZ
  Basis Set: (AUG-CC-PVTZ AUX)
    Blend: AUG-CC-PVTZ-JKFIT

    Orbital Energies [Eh]
    ---------------------

    Doubly Occupied:

       1A    -15.578765     2A    -15.547395     3A    -11.317483
       4A    -11.280812     5A    -11.272538     6A    -11.254047
       7A    -11.249192     8A    -11.243901     9A    -11.243544
      10A    -11.239598    11A    -11.238512    12A    -11.238064
      13A    -11.229350    14A    -11.222851    15A     -1.296887
      16A     -1.223166    17A     -1.144252    18A     -1.079420
      19A     -1.027502    20A     -1.020647    21A     -1.004323
      22A     -0.926454    23A     -0.861918    24A     -0.842254
      25A     -0.832978    26A     -0.792085    27A     -0.730926
      28A     -0.693385    29A     -0.669632    30A     -0.659312
      31A     -0.648335    32A     -0.629406    33A     -0.613983
      34A     -0.603214    35A     -0.591078    36A     -0.583485
      37A     -0.568480    38A     -0.538448    39A     -0.536183
      40A     -0.528370    41A     -0.512064    42A     -0.505519
      43A     -0.501245    44A     -0.429550    45A     -0.412700
      46A     -0.378409    47A     -0.344184    48A     -0.338832
      49A     -0.288406

  @DF-RHF Final Energy:  -570.48429803493775

   => Energetics <=

    Nuclear Repulsion Energy =            819.7655120943740030
    One-Electron Energy =               -2399.4734545035930751
    Two-Electron Energy =                1009.2236443742812071
    Total Energy =                       -570.4842980349377513
  Basis Set: (AUG-CC-PVTZ AUX)
    Blend: AUG-CC-PVTZ-RI
    Molecular point group: c1

    Geometry (in Angstrom), charge = 0, multiplicity = 1:

       Center              X                  Y                   Z               Mass
    ------------   -----------------  -----------------  -----------------  -----------------
         N            0.055070660963     0.958028529743     0.299430723528    14.003074004430
         N            2.366022660963     0.960546529743     0.217851723528    14.003074004430
         C           -1.211854339037     0.347072529743     0.133497723528    12.000000000000
         C            1.242946760963     0.269600629743     0.077580523528    12.000000000000
         C            0.127461660963     2.416657529743     0.330222723528    12.000000000000
         C           -1.599607339037    -0.694904470257     0.989323723528    12.000000000000
         C           -2.102496339037     0.799879529743    -0.849771276472    12.000000000000
         C            1.236972660963    -1.119142470257    -0.275098276472    12.000000000000
         C           -2.853020339037    -1.288598470257     0.845931723528    12.000000000000
         C           -3.365707339037     0.218215529743    -0.970470276472    12.000000000000
         C           -3.742844339037    -0.831342470257    -0.130298276472    12.000000000000
         C            2.459996660963    -1.747883470257    -0.455359276472    12.000000000000
         C            3.536112660963     0.321589529743     0.037619723528    12.000000000000
         C            3.645361660963    -1.024783470257    -0.288092276472    12.000000000000
         H            0.878673660963     2.727145529743     1.056560723528     1.007825032230
         H           -0.852551339037     2.791235529743     0.629149723528     1.007825032230
         H            0.403775660963     2.840974529743    -0.643289276472     1.007825032230
         H           -0.915580339037    -1.017524470257     1.770721723528     1.007825032230
         H           -1.799018339037     1.599372529743    -1.521497276472     1.007825032230
         H            0.310920660963    -1.661719470257    -0.427043276472     1.007825032230
         H           -3.145168339037    -2.094837470257     1.514824723528     1.007825032230
         H           -4.051673339037     0.578256529743    -1.733751276472     1.007825032230
         H           -4.724535339037    -1.286970470257    -0.231689276472     1.007825032230
         H            2.487609660963    -2.799009470257    -0.734166276472     1.007825032230
         H            4.424892660963     0.939165529743     0.161282723528     1.007825032230
         H            4.618540660963    -1.487196470257    -0.421146276472     1.007825032230

  Basis Set: AUG-CC-PVTZ
    Blend: AUG-CC-PVTZ
  Basis Set: (AUG-CC-PVTZ AUX)
    Blend: AUG-CC-PVTZ-JKFIT
	 Reference Energy          =    -570.4842980349377513 [Eh]
	 Singles Energy            =      -0.0000000000000000 [Eh]
	 Same-Spin Energy          =      -0.6368386728978068 [Eh]
	 Opposite-Spin Energy      =      -1.9735580286350149 [Eh]
	 Correlation Energy        =      -2.6103967015328218 [Eh]
	 Total Energy              =    -573.0946947364706148 [Eh]

	 ================> DF-SCS-MP2 Energies <==================
	-----------------------------------------------------------
	 SCS Same-Spin Scale       =       0.3333333333333333 [-]
	 SCS Opposite-Spin Scale   =       1.2000000000000000 [-]
	 SCS Same-Spin Energy      =      -0.2122795576326023 [Eh]
	 SCS Opposite-Spin Energy  =      -2.3682696343620178 [Eh]
	 SCS Correlation Energy    =      -2.5805491919946202 [Eh]
	 SCS Total Energy          =    -573.0648472269323292 [Eh]
	-----------------------------------------------------------

  Dipole Moment: [D]
     X:    -1.2116      Y:    -0.9005      Z:    -0.4409     Total:     1.5727

*** Psi4 exiting successfully. Buy a developer a beer!
