                               Psi4 1.3.2 release

  ==> Input File <==

--------------------------------------------------------------------------
#psi4
#
memory 32 gb

molecule  {
0 1
  N        0.0678190     0.9536280     0.3022870
  N        2.3787710     0.9561460     0.2207080
  C       -1.2099592     0.3639518     0.1427097
  C        1.2435610     0.2442270     0.0818760
  C        0.1402100     2.4122570     0.3330790
  C       -1.5868590    -0.6993050     0.9921800
  C       -2.0897480     0.7954790    -0.8469150
  C        1.2497210    -1.1235430    -0.2722420
  C       -2.8402720    -1.2929990     0.8487880
  C       -3.3529590     0.2138150    -0.9676140
  C       -3.7300960    -0.8357430    -0.1274420
  C        2.4727450    -1.7522840    -0.4525030
  C        3.5488610     0.3171890     0.0404760
  C        3.6581100    -1.0291840    -0.2852360
  H        0.8914220     2.7227450     1.0594170
  H       -0.8398030     2.7868350     0.6320060
  H        0.4165240     2.8365740    -0.6404330
  H       -0.9028320    -1.0219250     1.7735780
  H       -1.7862700     1.5949720    -1.5186410
  H        0.3236690    -1.6661200    -0.4241870
  H       -3.1324200    -2.0992380     1.5176810
  H       -4.0389250     0.5738560    -1.7308950
  H       -4.7117870    -1.2913710    -0.2288330
  H        2.5003580    -2.8034100    -0.7313100
  H        4.4376410     0.9347650     0.1641390
  H        4.6312890    -1.4915970    -0.4182900
units angstrom
no_reorient  #important for SAPT in psi4, default
symmetry c1  #important for SAPT in psi4, default
}

set PROPERTIES_ORIGIN ["COM"]
properties('MP2/aug-cc-pvtz', properties = ['dipole'])
--------------------------------------------------------------------------

    Molecular point group: c1
  Charge       = 0
  Multiplicity = 1
  Basis Set: AUG-CC-PVTZ
    Blend: AUG-CC-PVTZ
  Basis Set: (AUG-CC-PVTZ AUX)
    Blend: AUG-CC-PVTZ-JKFIT

    Orbital Energies [Eh]
    ---------------------

    Doubly Occupied:

       1A    -15.578983     2A    -15.549149     3A    -11.317674
       4A    -11.280391     5A    -11.272664     6A    -11.255127
       7A    -11.249066     8A    -11.243842     9A    -11.243368
      10A    -11.238785    11A    -11.238494    12A    -11.238285
      13A    -11.227629    14A    -11.222880    15A     -1.294671
      16A     -1.220536    17A     -1.144002    18A     -1.079211
      19A     -1.029435    20A     -1.019680    21A     -1.004920
      22A     -0.926402    23A     -0.860601    24A     -0.843634
      25A     -0.833123    26A     -0.791969    27A     -0.730922
      28A     -0.693322    29A     -0.669234    30A     -0.658182
      31A     -0.648058    32A     -0.629163    33A     -0.614722
      34A     -0.603378    35A     -0.590470    36A     -0.583883
      37A     -0.568227    38A     -0.538936    39A     -0.535352
      40A     -0.528081    41A     -0.511722    42A     -0.505483
      43A     -0.500272    44A     -0.429768    45A     -0.413654
      46A     -0.377454    47A     -0.343542    48A     -0.340081
      49A     -0.288473

  @DF-RHF Final Energy:  -570.48387422171095

   => Energetics <=

    Nuclear Repulsion Energy =            819.6700543135550561
    One-Electron Energy =               -2399.2940601794421127
    Two-Electron Energy =                1009.1401316441761082
    Total Energy =                       -570.4838742217109484
  Basis Set: (AUG-CC-PVTZ AUX)
    Blend: AUG-CC-PVTZ-RI
    Molecular point group: c1

    Geometry (in Angstrom), charge = 0, multiplicity = 1:

       Center              X                  Y                   Z               Mass
    ------------   -----------------  -----------------  -----------------  -----------------
         N            0.056569017984     0.958008538439     0.298922636752    14.003074004430
         N            2.367521017984     0.960526538439     0.217343636752    14.003074004430
         C           -1.221209182016     0.368332338439     0.139345336752    12.000000000000
         C            1.232311017984     0.248607538439     0.078511636752    12.000000000000
         C            0.128960017984     2.416637538439     0.329714636752    12.000000000000
         C           -1.598108982016    -0.694924461561     0.988815636752    12.000000000000
         C           -2.100997982016     0.799859538439    -0.850279363248    12.000000000000
         C            1.238471017984    -1.119162461561    -0.275606363248    12.000000000000
         C           -2.851521982016    -1.288618461561     0.845423636752    12.000000000000
         C           -3.364208982016     0.218195538439    -0.970978363248    12.000000000000
         C           -3.741345982016    -0.831362461561    -0.130806363248    12.000000000000
         C            2.461495017984    -1.747903461561    -0.455867363248    12.000000000000
         C            3.537611017984     0.321569538439     0.037111636752    12.000000000000
         C            3.646860017984    -1.024803461561    -0.288600363248    12.000000000000
         H            0.880172017984     2.727125538439     1.056052636752     1.007825032230
         H           -0.851052982016     2.791215538439     0.628641636752     1.007825032230
         H            0.405274017984     2.840954538439    -0.643797363248     1.007825032230
         H           -0.914081982016    -1.017544461561     1.770213636752     1.007825032230
         H           -1.797519982016     1.599352538439    -1.522005363248     1.007825032230
         H            0.312419017984    -1.661739461561    -0.427551363248     1.007825032230
         H           -3.143669982016    -2.094857461561     1.514316636752     1.007825032230
         H           -4.050174982016     0.578236538439    -1.734259363248     1.007825032230
         H           -4.723036982016    -1.286990461561    -0.232197363248     1.007825032230
         H            2.489108017984    -2.799029461561    -0.734674363248     1.007825032230
         H            4.426391017984     0.939145538439     0.160774636752     1.007825032230
         H            4.620039017984    -1.487216461561    -0.421654363248     1.007825032230

  Basis Set: AUG-CC-PVTZ
    Blend: AUG-CC-PVTZ
  Basis Set: (AUG-CC-PVTZ AUX)
    Blend: AUG-CC-PVTZ-JKFIT
	 Reference Energy          =    -570.4838742217109484 [Eh]
	 Singles Energy            =      -0.0000000000000000 [Eh]
	 Same-Spin Energy          =      -0.6370796753531769 [Eh]
	 Opposite-Spin Energy      =      -1.9739371455087724 [Eh]
	 Correlation Energy        =      -2.6110168208619493 [Eh]
	 Total Energy              =    -573.0948910425729537 [Eh]

	 ================> DF-SCS-MP2 Energies <==================
	-----------------------------------------------------------
	 SCS Same-Spin Scale       =       0.3333333333333333 [-]
	 SCS Opposite-Spin Scale   =       1.2000000000000000 [-]
	 SCS Same-Spin Energy      =      -0.2123598917843923 [Eh]
	 SCS Opposite-Spin Energy  =      -2.3687245746105270 [Eh]
	 SCS Correlation Energy    =      -2.5810844663949193 [Eh]
	 SCS Total Energy          =    -573.0649586881058895 [Eh]
	-----------------------------------------------------------

  Dipole Moment: [D]
     X:    -1.1969      Y:    -0.9119      Z:    -0.4443     Total:     1.5689

*** Psi4 exiting successfully. Buy a developer a beer!
