                               Psi4 1.3.2 release

  ==> Input File <==

--------------------------------------------------------------------------
#psi4
#
memory 32 gb

molecule  {
0 1
  N        0.0678190     0.9536280     0.3022870
  N        2.3787710     0.9561460     0.2207080
  C       -1.1096527     0.3858095     0.1480700
  C        1.2435610     0.2442270     0.0818760
  C        0.1402100     2.4122570     0.3330790
  C       -1.5868590    -0.6993050     0.9921800
  C       -2.0897480     0.7954790    -0.8469150
  C        1.2497210    -1.1235430    -0.2722420
  C       -2.8402720    -1.2929990     0.8487880
  C       -3.3529590     0.2138150    -0.9676140
  C       -3.7300960    -0.8357430    -0.1274420
  C        2.4727450    -1.7522840    -0.4525030
  C        3.5488610     0.3171890     0.0404760
  C        3.6581100    -1.0291840    -0.2852360
  H        0.8914220     2.7227450     1.0594170
  H       -0.8398030     2.7868350     0.6320060
  H        0.4165240     2.8365740    -0.6404330
  H       -0.9028320    -1.0219250     1.7735780
  H       -1.7862700     1.5949720    -1.5186410
  H        0.3236690    -1.6661200    -0.4241870
  H       -3.1324200    -2.0992380     1.5176810
  H       -4.0389250     0.5738560    -1.7308950
  H       -4.7117870    -1.2913710    -0.2288330
  H        2.5003580    -2.8034100    -0.7313100
  H        4.4376410     0.9347650     0.1641390
  H        4.6312890    -1.4915970    -0.4182900
units angstrom
no_reorient  #important for SAPT in psi4, default
symmetry c1  #important for SAPT in psi4, default
}

set PROPERTIES_ORIGIN ["COM"]
properties('MP2/aug-cc-pvtz', properties = ['dipole'])
--------------------------------------------------------------------------

    Molecular point group: c1
  Charge       = 0
  Multiplicity = 1
  Basis Set: AUG-CC-PVTZ
    Blend: AUG-CC-PVTZ
  Basis Set: (AUG-CC-PVTZ AUX)
    Blend: AUG-CC-PVTZ-JKFIT

    Orbital Energies [Eh]
    ---------------------

    Doubly Occupied:

       1A    -15.583711     2A    -15.554376     3A    -11.322087
       4A    -11.283922     5A    -11.275999     6A    -11.258307
       7A    -11.254784     8A    -11.240156     9A    -11.239792
      10A    -11.238560    11A    -11.237249    12A    -11.233744
      13A    -11.231686    14A    -11.227332    15A     -1.316356
      16A     -1.233401    17A     -1.132639    18A     -1.083265
      19A     -1.031978    20A     -1.012499    21A     -1.000691
      22A     -0.935448    23A     -0.869947    24A     -0.849334
      25A     -0.824128    26A     -0.789941    27A     -0.736887
      28A     -0.692132    29A     -0.674979    30A     -0.664094
      31A     -0.652709    32A     -0.630552    33A     -0.618391
      34A     -0.603609    35A     -0.584828    36A     -0.580897
      37A     -0.573925    38A     -0.544164    39A     -0.539872
      40A     -0.530365    41A     -0.515273    42A     -0.500587
      43A     -0.487552    44A     -0.429903    45A     -0.418427
      46A     -0.380629    47A     -0.339551    48A     -0.333487
      49A     -0.284889

  @DF-RHF Final Energy:  -570.46802592319125

   => Energetics <=

    Nuclear Repulsion Energy =            820.2621387874556831
    One-Electron Energy =               -2400.3022596160308240
    Two-Electron Energy =                1009.5720949053840059
    Total Energy =                       -570.4680259231912487
  Basis Set: (AUG-CC-PVTZ AUX)
    Blend: AUG-CC-PVTZ-RI
    Molecular point group: c1

    Geometry (in Angstrom), charge = 0, multiplicity = 1:

       Center              X                  Y                   Z               Mass
    ------------   -----------------  -----------------  -----------------  -----------------
         N            0.050030844797     0.956583810948     0.298573241950    14.003074004430
         N            2.360982844797     0.959101810948     0.216994241950    14.003074004430
         C           -1.127440855203     0.388765310948     0.144356241950    12.000000000000
         C            1.225772844797     0.247182810948     0.078162241950    12.000000000000
         C            0.122421844797     2.415212810948     0.329365241950    12.000000000000
         C           -1.604647155203    -0.696349189052     0.988466241950    12.000000000000
         C           -2.107536155203     0.798434810948    -0.850628758050    12.000000000000
         C            1.231932844797    -1.120587189052    -0.275955758050    12.000000000000
         C           -2.858060155203    -1.290043189052     0.845074241950    12.000000000000
         C           -3.370747155203     0.216770810948    -0.971327758050    12.000000000000
         C           -3.747884155203    -0.832787189052    -0.131155758050    12.000000000000
         C            2.454956844797    -1.749328189052    -0.456216758050    12.000000000000
         C            3.531072844797     0.320144810948     0.036762241950    12.000000000000
         C            3.640321844797    -1.026228189052    -0.288949758050    12.000000000000
         H            0.873633844797     2.725700810948     1.055703241950     1.007825032230
         H           -0.857591155203     2.789790810948     0.628292241950     1.007825032230
         H            0.398735844797     2.839529810948    -0.644146758050     1.007825032230
         H           -0.920620155203    -1.018969189052     1.769864241950     1.007825032230
         H           -1.804058155203     1.597927810948    -1.522354758050     1.007825032230
         H            0.305880844797    -1.663164189052    -0.427900758050     1.007825032230
         H           -3.150208155203    -2.096282189052     1.513967241950     1.007825032230
         H           -4.056713155203     0.576811810948    -1.734608758050     1.007825032230
         H           -4.729575155203    -1.288415189052    -0.232546758050     1.007825032230
         H            2.482569844797    -2.800454189052    -0.735023758050     1.007825032230
         H            4.419852844797     0.937720810948     0.160425241950     1.007825032230
         H            4.613500844797    -1.488641189052    -0.422003758050     1.007825032230

  Basis Set: AUG-CC-PVTZ
    Blend: AUG-CC-PVTZ
  Basis Set: (AUG-CC-PVTZ AUX)
    Blend: AUG-CC-PVTZ-JKFIT
	 Reference Energy          =    -570.4680259231912487 [Eh]
	 Singles Energy            =      -0.0000000000000000 [Eh]
	 Same-Spin Energy          =      -0.6388826290566177 [Eh]
	 Opposite-Spin Energy      =      -1.9763665135301030 [Eh]
	 Correlation Energy        =      -2.6152491425867206 [Eh]
	 Total Energy              =    -573.0832750657780252 [Eh]

	 ================> DF-SCS-MP2 Energies <==================
	-----------------------------------------------------------
	 SCS Same-Spin Scale       =       0.3333333333333333 [-]
	 SCS Opposite-Spin Scale   =       1.2000000000000000 [-]
	 SCS Same-Spin Energy      =      -0.2129608763522059 [Eh]
	 SCS Opposite-Spin Energy  =      -2.3716398162361236 [Eh]
	 SCS Correlation Energy    =      -2.5846006925883294 [Eh]
	 SCS Total Energy          =    -573.0526266157795590 [Eh]
	-----------------------------------------------------------

  Dipole Moment: [D]
     X:    -0.4739      Y:    -0.7607      Z:    -0.4172     Total:     0.9886

*** Psi4 exiting successfully. Buy a developer a beer!
