                               Psi4 1.3.2 release

  ==> Input File <==

--------------------------------------------------------------------------
#psi4
#
memory 32 gb

molecule  {
0 1
  N        0.0944186     0.9931353     0.3116763
  N        2.3787710     0.9561460     0.2207080
  C       -1.1991060     0.3426720     0.1363540
  C        1.2435610     0.2442270     0.0818760
  C        0.1402100     2.4122570     0.3330790
  C       -1.5868590    -0.6993050     0.9921800
  C       -2.0897480     0.7954790    -0.8469150
  C        1.2497210    -1.1235430    -0.2722420
  C       -2.8402720    -1.2929990     0.8487880
  C       -3.3529590     0.2138150    -0.9676140
  C       -3.7300960    -0.8357430    -0.1274420
  C        2.4727450    -1.7522840    -0.4525030
  C        3.5488610     0.3171890     0.0404760
  C        3.6581100    -1.0291840    -0.2852360
  H        0.8914220     2.7227450     1.0594170
  H       -0.8398030     2.7868350     0.6320060
  H        0.4165240     2.8365740    -0.6404330
  H       -0.9028320    -1.0219250     1.7735780
  H       -1.7862700     1.5949720    -1.5186410
  H        0.3236690    -1.6661200    -0.4241870
  H       -3.1324200    -2.0992380     1.5176810
  H       -4.0389250     0.5738560    -1.7308950
  H       -4.7117870    -1.2913710    -0.2288330
  H        2.5003580    -2.8034100    -0.7313100
  H        4.4376410     0.9347650     0.1641390
  H        4.6312890    -1.4915970    -0.4182900
units angstrom
no_reorient  #important for SAPT in psi4, default
symmetry c1  #important for SAPT in psi4, default
}

set PROPERTIES_ORIGIN ["COM"]
properties('MP2/aug-cc-pvtz', properties = ['dipole'])
--------------------------------------------------------------------------

    Molecular point group: c1
  Charge       = 0
  Multiplicity = 1
  Basis Set: AUG-CC-PVTZ
    Blend: AUG-CC-PVTZ
  Basis Set: (AUG-CC-PVTZ AUX)
    Blend: AUG-CC-PVTZ-JKFIT

    Orbital Energies [Eh]
    ---------------------

    Doubly Occupied:

       1A    -15.578817     2A    -15.547705     3A    -11.316528
       4A    -11.282993     5A    -11.271959     6A    -11.255490
       7A    -11.245345     8A    -11.244749     9A    -11.244608
      10A    -11.241029    11A    -11.240125    12A    -11.239770
      13A    -11.228379    14A    -11.222579    15A     -1.294420
      16A     -1.217752    17A     -1.146457    18A     -1.079107
      19A     -1.028061    20A     -1.020904    21A     -1.009160
      22A     -0.925248    23A     -0.859420    24A     -0.840690
      25A     -0.833103    26A     -0.792652    27A     -0.728176
      28A     -0.695318    29A     -0.669695    30A     -0.656718
      31A     -0.647502    32A     -0.631226    33A     -0.615498
      34A     -0.603967    35A     -0.593285    36A     -0.587742
      37A     -0.567358    38A     -0.538313    39A     -0.534511
      40A     -0.528590    41A     -0.509722    42A     -0.503028
      43A     -0.502052    44A     -0.427245    45A     -0.413220
      46A     -0.376982    47A     -0.345078    48A     -0.340487
      49A     -0.289440

  @DF-RHF Final Energy:  -570.48126245042863

   => Energetics <=

    Nuclear Repulsion Energy =            819.3931764169735743
    One-Electron Energy =               -2398.7244778076224065
    Two-Electron Energy =                1008.8500389402202018
    Total Energy =                       -570.4812624504286305
  Basis Set: (AUG-CC-PVTZ AUX)
    Blend: AUG-CC-PVTZ-RI
    Molecular point group: c1

    Geometry (in Angstrom), charge = 0, multiplicity = 1:

       Center              X                  Y                   Z               Mass
    ------------   -----------------  -----------------  -----------------  -----------------
         N            0.080437958368     0.995897880985     0.308012041868    14.003074004430
         N            2.364790358368     0.958908580985     0.217043741868    14.003074004430
         C           -1.213086641632     0.345434580985     0.132689741868    12.000000000000
         C            1.229580358368     0.246989580985     0.078211741868    12.000000000000
         C            0.126229358368     2.415019580985     0.329414741868    12.000000000000
         C           -1.600839641632    -0.696542419015     0.988515741868    12.000000000000
         C           -2.103728641632     0.798241580985    -0.850579258132    12.000000000000
         C            1.235740358368    -1.120780419015    -0.275906258132    12.000000000000
         C           -2.854252641632    -1.290236419015     0.845123741868    12.000000000000
         C           -3.366939641632     0.216577580985    -0.971278258132    12.000000000000
         C           -3.744076641632    -0.832980419015    -0.131106258132    12.000000000000
         C            2.458764358368    -1.749521419015    -0.456167258132    12.000000000000
         C            3.534880358368     0.319951580985     0.036811741868    12.000000000000
         C            3.644129358368    -1.026421419015    -0.288900258132    12.000000000000
         H            0.877441358368     2.725507580985     1.055752741868     1.007825032230
         H           -0.853783641632     2.789597580985     0.628341741868     1.007825032230
         H            0.402543358368     2.839336580985    -0.644097258132     1.007825032230
         H           -0.916812641632    -1.019162419015     1.769913741868     1.007825032230
         H           -1.800250641632     1.597734580985    -1.522305258132     1.007825032230
         H            0.309688358368    -1.663357419015    -0.427851258132     1.007825032230
         H           -3.146400641632    -2.096475419015     1.514016741868     1.007825032230
         H           -4.052905641632     0.576618580985    -1.734559258132     1.007825032230
         H           -4.725767641632    -1.288608419015    -0.232497258132     1.007825032230
         H            2.486377358368    -2.800647419015    -0.734974258132     1.007825032230
         H            4.423660358368     0.937527580985     0.160474741868     1.007825032230
         H            4.617308358368    -1.488834419015    -0.421954258132     1.007825032230

  Basis Set: AUG-CC-PVTZ
    Blend: AUG-CC-PVTZ
  Basis Set: (AUG-CC-PVTZ AUX)
    Blend: AUG-CC-PVTZ-JKFIT
	 Reference Energy          =    -570.4812624504286305 [Eh]
	 Singles Energy            =      -0.0000000000000000 [Eh]
	 Same-Spin Energy          =      -0.6370844914482571 [Eh]
	 Opposite-Spin Energy      =      -1.9739771016322816 [Eh]
	 Correlation Energy        =      -2.6110615930805388 [Eh]
	 Total Energy              =    -573.0923240435091657 [Eh]

	 ================> DF-SCS-MP2 Energies <==================
	-----------------------------------------------------------
	 SCS Same-Spin Scale       =       0.3333333333333333 [-]
	 SCS Opposite-Spin Scale   =       1.2000000000000000 [-]
	 SCS Same-Spin Energy      =      -0.2123614971494190 [Eh]
	 SCS Opposite-Spin Energy  =      -2.3687725219587379 [Eh]
	 SCS Correlation Energy    =      -2.5811340191081569 [Eh]
	 SCS Total Energy          =    -573.0623964695367931 [Eh]
	-----------------------------------------------------------

  Dipole Moment: [D]
     X:    -1.3283      Y:    -1.0150      Z:    -0.4482     Total:     1.7308

*** Psi4 exiting successfully. Buy a developer a beer!
