                               Psi4 1.3.2 release

  ==> Input File <==

--------------------------------------------------------------------------
#psi4
#
memory 32 gb

molecule  {
0 1
  N        0.0550544     0.9335472     0.2974909
  N        2.3787710     0.9561460     0.2207080
  C       -1.1991060     0.3426720     0.1363540
  C        1.2435610     0.2442270     0.0818760
  C        0.1402100     2.4122570     0.3330790
  C       -1.5868590    -0.6993050     0.9921800
  C       -2.0897480     0.7954790    -0.8469150
  C        1.2497210    -1.1235430    -0.2722420
  C       -2.8402720    -1.2929990     0.8487880
  C       -3.3529590     0.2138150    -0.9676140
  C       -3.7300960    -0.8357430    -0.1274420
  C        2.4727450    -1.7522840    -0.4525030
  C        3.5488610     0.3171890     0.0404760
  C        3.6581100    -1.0291840    -0.2852360
  H        0.8914220     2.7227450     1.0594170
  H       -0.8398030     2.7868350     0.6320060
  H        0.4165240     2.8365740    -0.6404330
  H       -0.9028320    -1.0219250     1.7735780
  H       -1.7862700     1.5949720    -1.5186410
  H        0.3236690    -1.6661200    -0.4241870
  H       -3.1324200    -2.0992380     1.5176810
  H       -4.0389250     0.5738560    -1.7308950
  H       -4.7117870    -1.2913710    -0.2288330
  H        2.5003580    -2.8034100    -0.7313100
  H        4.4376410     0.9347650     0.1641390
  H        4.6312890    -1.4915970    -0.4182900
units angstrom
no_reorient  #important for SAPT in psi4, default
symmetry c1  #important for SAPT in psi4, default
}

set PROPERTIES_ORIGIN ["COM"]
properties('MP2/aug-cc-pvtz', properties = ['dipole'])
--------------------------------------------------------------------------

    Molecular point group: c1
  Charge       = 0
  Multiplicity = 1
  Basis Set: AUG-CC-PVTZ
    Blend: AUG-CC-PVTZ
  Basis Set: (AUG-CC-PVTZ AUX)
    Blend: AUG-CC-PVTZ-JKFIT

    Orbital Energies [Eh]
    ---------------------

    Doubly Occupied:

       1A    -15.579180     2A    -15.549632     3A    -11.317665
       4A    -11.278829     5A    -11.272884     6A    -11.254884
       7A    -11.251874     8A    -11.243231     9A    -11.242777
      10A    -11.238404    11A    -11.237459    12A    -11.236683
      13A    -11.227097    14A    -11.222924    15A     -1.295405
      16A     -1.222016    17A     -1.142728    18A     -1.079217
      19A     -1.029046    20A     -1.020203    21A     -1.002620
      22A     -0.927672    23A     -0.861049    24A     -0.844555
      25A     -0.833235    26A     -0.791640    27A     -0.731495
      28A     -0.692564    29A     -0.669252    30A     -0.658784
      31A     -0.648278    32A     -0.628231    33A     -0.614640
      34A     -0.602149    35A     -0.590316    36A     -0.582173
      37A     -0.569191    38A     -0.539255    39A     -0.535791
      40A     -0.527672    41A     -0.512154    42A     -0.505737
      43A     -0.500094    44A     -0.430922    45A     -0.413724
      46A     -0.377545    47A     -0.343608    48A     -0.338728
      49A     -0.287878

  @DF-RHF Final Energy:  -570.48341315019195

   => Energetics <=

    Nuclear Repulsion Energy =            819.9723461373840792
    One-Electron Energy =               -2399.9053428855368111
    Two-Electron Energy =                1009.4495835979606682
    Total Energy =                       -570.4834131501919501
  Basis Set: (AUG-CC-PVTZ AUX)
    Blend: AUG-CC-PVTZ-RI
    Molecular point group: c1

    Geometry (in Angstrom), charge = 0, multiplicity = 1:

       Center              X                  Y                   Z               Mass
    ------------   -----------------  -----------------  -----------------  -----------------
         N            0.044067890149     0.940842189213     0.294905616087    14.003074004430
         N            2.367784490149     0.963440989213     0.218122716087    14.003074004430
         C           -1.210092509851     0.349966989213     0.133768716087    12.000000000000
         C            1.232574490149     0.251521989213     0.079290716087    12.000000000000
         C            0.129223490149     2.419551989213     0.330493716087    12.000000000000
         C           -1.597845509851    -0.692010010787     0.989594716087    12.000000000000
         C           -2.100734509851     0.802773989213    -0.849500283913    12.000000000000
         C            1.238734490149    -1.116248010787    -0.274827283913    12.000000000000
         C           -2.851258509851    -1.285704010787     0.846202716087    12.000000000000
         C           -3.363945509851     0.221109989213    -0.970199283913    12.000000000000
         C           -3.741082509851    -0.828448010787    -0.130027283913    12.000000000000
         C            2.461758490149    -1.744989010787    -0.455088283913    12.000000000000
         C            3.537874490149     0.324483989213     0.037890716087    12.000000000000
         C            3.647123490149    -1.021889010787    -0.287821283913    12.000000000000
         H            0.880435490149     2.730039989213     1.056831716087     1.007825032230
         H           -0.850789509851     2.794129989213     0.629420716087     1.007825032230
         H            0.405537490149     2.843868989213    -0.643018283913     1.007825032230
         H           -0.913818509851    -1.014630010787     1.770992716087     1.007825032230
         H           -1.797256509851     1.602266989213    -1.521226283913     1.007825032230
         H            0.312682490149    -1.658825010787    -0.426772283913     1.007825032230
         H           -3.143406509851    -2.091943010787     1.515095716087     1.007825032230
         H           -4.049911509851     0.581150989213    -1.733480283913     1.007825032230
         H           -4.722773509851    -1.284076010787    -0.231418283913     1.007825032230
         H            2.489371490149    -2.796115010787    -0.733895283913     1.007825032230
         H            4.426654490149     0.942059989213     0.161553716087     1.007825032230
         H            4.620302490149    -1.484302010787    -0.420875283913     1.007825032230

  Basis Set: AUG-CC-PVTZ
    Blend: AUG-CC-PVTZ
  Basis Set: (AUG-CC-PVTZ AUX)
    Blend: AUG-CC-PVTZ-JKFIT
	 Reference Energy          =    -570.4834131501919501 [Eh]
	 Singles Energy            =      -0.0000000000000000 [Eh]
	 Same-Spin Energy          =      -0.6372252012706232 [Eh]
	 Opposite-Spin Energy      =      -1.9741015343927359 [Eh]
	 Correlation Energy        =      -2.6113267356633592 [Eh]
	 Total Energy              =    -573.0947398858553470 [Eh]

	 ================> DF-SCS-MP2 Energies <==================
	-----------------------------------------------------------
	 SCS Same-Spin Scale       =       0.3333333333333333 [-]
	 SCS Opposite-Spin Scale   =       1.2000000000000000 [-]
	 SCS Same-Spin Energy      =      -0.2124084004235411 [Eh]
	 SCS Opposite-Spin Energy  =      -2.3689218412712831 [Eh]
	 SCS Correlation Energy    =      -2.5813302416948241 [Eh]
	 SCS Total Energy          =    -573.0647433918867364 [Eh]
	-----------------------------------------------------------

  Dipole Moment: [D]
     X:    -1.1297      Y:    -0.8420      Z:    -0.4331     Total:     1.4740

*** Psi4 exiting successfully. Buy a developer a beer!
