                               Psi4 1.3.2 release

  ==> Input File <==

--------------------------------------------------------------------------
#psi4
#
memory 32 gb

molecule  {
0 1
  N        0.0678190     0.9536280     0.3022870
  N        2.3787710     0.9561460     0.2207080
  C       -1.1991060     0.3426720     0.1363540
  C        1.1633726     0.1231454     0.0919043
  C        0.1402100     2.4122570     0.3330790
  C       -1.5868590    -0.6993050     0.9921800
  C       -2.0897480     0.7954790    -0.8469150
  C        1.2497210    -1.1235430    -0.2722420
  C       -2.8402720    -1.2929990     0.8487880
  C       -3.3529590     0.2138150    -0.9676140
  C       -3.7300960    -0.8357430    -0.1274420
  C        2.4727450    -1.7522840    -0.4525030
  C        3.5488610     0.3171890     0.0404760
  C        3.6581100    -1.0291840    -0.2852360
  H        0.8914220     2.7227450     1.0594170
  H       -0.8398030     2.7868350     0.6320060
  H        0.4165240     2.8365740    -0.6404330
  H       -0.9028320    -1.0219250     1.7735780
  H       -1.7862700     1.5949720    -1.5186410
  H        0.3236690    -1.6661200    -0.4241870
  H       -3.1324200    -2.0992380     1.5176810
  H       -4.0389250     0.5738560    -1.7308950
  H       -4.7117870    -1.2913710    -0.2288330
  H        2.5003580    -2.8034100    -0.7313100
  H        4.4376410     0.9347650     0.1641390
  H        4.6312890    -1.4915970    -0.4182900
units angstrom
no_reorient  #important for SAPT in psi4, default
symmetry c1  #important for SAPT in psi4, default
}

set PROPERTIES_ORIGIN ["COM"]
properties('MP2/aug-cc-pvtz', properties = ['dipole'])
--------------------------------------------------------------------------

    Molecular point group: c1
  Charge       = 0
  Multiplicity = 1
  Basis Set: AUG-CC-PVTZ
    Blend: AUG-CC-PVTZ
  Basis Set: (AUG-CC-PVTZ AUX)
    Blend: AUG-CC-PVTZ-JKFIT

    Orbital Energies [Eh]
    ---------------------

    Doubly Occupied:

       1A    -15.579666     2A    -15.556765     3A    -11.311968
       4A    -11.276866     5A    -11.272433     6A    -11.260172
       7A    -11.252477     8A    -11.242573     9A    -11.242438
      10A    -11.237241    11A    -11.236622    12A    -11.236319
      13A    -11.224597    14A    -11.215193    15A     -1.286105
      16A     -1.205353    17A     -1.141985    18A     -1.081939
      19A     -1.034108    20A     -1.019469    21A     -1.006138
      22A     -0.929541    23A     -0.854738    24A     -0.849416
      25A     -0.832987    26A     -0.788003    27A     -0.726989
      28A     -0.695120    29A     -0.670520    30A     -0.651819
      31A     -0.642982    32A     -0.627886    33A     -0.620781
      34A     -0.597772    35A     -0.591834    36A     -0.584843
      37A     -0.569178    38A     -0.542747    39A     -0.531910
      40A     -0.524046    41A     -0.507267    42A     -0.500070
      43A     -0.499756    44A     -0.432411    45A     -0.411442
      46A     -0.374490    47A     -0.343390    48A     -0.340301
      49A     -0.289699

  @DF-RHF Final Energy:  -570.45515482033056

   => Energetics <=

    Nuclear Repulsion Energy =            819.9257364521481577
    One-Electron Energy =               -2399.8570488024856786
    Two-Electron Energy =                1009.4761575300069580
    Total Energy =                       -570.4551548203305629
  Basis Set: (AUG-CC-PVTZ AUX)
    Blend: AUG-CC-PVTZ-RI
    Molecular point group: c1

    Geometry (in Angstrom), charge = 0, multiplicity = 1:

       Center              X                  Y                   Z               Mass
    ------------   -----------------  -----------------  -----------------  -----------------
         N            0.061088421467     0.967287931980     0.298683249526    14.003074004430
         N            2.372040421467     0.969805931980     0.217104249526    14.003074004430
         C           -1.205836578533     0.356331931980     0.132750249526    12.000000000000
         C            1.156642021467     0.136805331980     0.088300549526    12.000000000000
         C            0.133479421467     2.425916931980     0.329475249526    12.000000000000
         C           -1.593589578533    -0.685645068020     0.988576249526    12.000000000000
         C           -2.096478578533     0.809138931980    -0.850518750474    12.000000000000
         C            1.242990421467    -1.109883068020    -0.275845750474    12.000000000000
         C           -2.847002578533    -1.279339068020     0.845184249526    12.000000000000
         C           -3.359689578533     0.227474931980    -0.971217750474    12.000000000000
         C           -3.736826578533    -0.822083068020    -0.131045750474    12.000000000000
         C            2.466014421467    -1.738624068020    -0.456106750474    12.000000000000
         C            3.542130421467     0.330848931980     0.036872249526    12.000000000000
         C            3.651379421467    -1.015524068020    -0.288839750474    12.000000000000
         H            0.884691421467     2.736404931980     1.055813249526     1.007825032230
         H           -0.846533578533     2.800494931980     0.628402249526     1.007825032230
         H            0.409793421467     2.850233931980    -0.644036750474     1.007825032230
         H           -0.909562578533    -1.008265068020     1.769974249526     1.007825032230
         H           -1.793000578533     1.608631931980    -1.522244750474     1.007825032230
         H            0.316938421467    -1.652460068020    -0.427790750474     1.007825032230
         H           -3.139150578533    -2.085578068020     1.514077249526     1.007825032230
         H           -4.045655578533     0.587515931980    -1.734498750474     1.007825032230
         H           -4.718517578533    -1.277711068020    -0.232436750474     1.007825032230
         H            2.493627421467    -2.789750068020    -0.734913750474     1.007825032230
         H            4.430910421467     0.948424931980     0.160535249526     1.007825032230
         H            4.624558421467    -1.477937068020    -0.421893750474     1.007825032230

  Basis Set: AUG-CC-PVTZ
    Blend: AUG-CC-PVTZ
  Basis Set: (AUG-CC-PVTZ AUX)
    Blend: AUG-CC-PVTZ-JKFIT
	 Reference Energy          =    -570.4551548203305629 [Eh]
	 Singles Energy            =      -0.0000000000000000 [Eh]
	 Same-Spin Energy          =      -0.6383605362327466 [Eh]
	 Opposite-Spin Energy      =      -1.9778083772241883 [Eh]
	 Correlation Energy        =      -2.6161689134569350 [Eh]
	 Total Energy              =    -573.0713237337874943 [Eh]

	 ================> DF-SCS-MP2 Energies <==================
	-----------------------------------------------------------
	 SCS Same-Spin Scale       =       0.3333333333333333 [-]
	 SCS Opposite-Spin Scale   =       1.2000000000000000 [-]
	 SCS Same-Spin Energy      =      -0.2127868454109155 [Eh]
	 SCS Opposite-Spin Energy  =      -2.3733700526690260 [Eh]
	 SCS Correlation Energy    =      -2.5861568980799414 [Eh]
	 SCS Total Energy          =    -573.0413117184104976 [Eh]
	-----------------------------------------------------------

  Dipole Moment: [D]
     X:    -1.0617      Y:    -0.8519      Z:    -0.4204     Total:     1.4246

*** Psi4 exiting successfully. Buy a developer a beer!
