                               Psi4 1.4a3.dev225

  ==> Input File <==

--------------------------------------------------------------------------
#psi4
#
memory 32 gb

molecule  {
0 1
  N        0.0678190     0.9536280     0.3022870
  N        2.3787710     0.9561460     0.2207080
  C       -1.1991060     0.3426720     0.1363540
  C        1.2435610     0.2442270     0.0818760
  C        0.1426879     2.4621844     0.3341330
  C       -1.5868590    -0.6993050     0.9921800
  C       -2.0897480     0.7954790    -0.8469150
  C        1.2497210    -1.1235430    -0.2722420
  C       -2.8402720    -1.2929990     0.8487880
  C       -3.3529590     0.2138150    -0.9676140
  C       -3.7300960    -0.8357430    -0.1274420
  C        2.4727450    -1.7522840    -0.4525030
  C        3.5488610     0.3171890     0.0404760
  C        3.6581100    -1.0291840    -0.2852360
  H        0.8914220     2.7227450     1.0594170
  H       -0.8398030     2.7868350     0.6320060
  H        0.4165240     2.8365740    -0.6404330
  H       -0.9028320    -1.0219250     1.7735780
  H       -1.7862700     1.5949720    -1.5186410
  H        0.3236690    -1.6661200    -0.4241870
  H       -3.1324200    -2.0992380     1.5176810
  H       -4.0389250     0.5738560    -1.7308950
  H       -4.7117870    -1.2913710    -0.2288330
  H        2.5003580    -2.8034100    -0.7313100
  H        4.4376410     0.9347650     0.1641390
  H        4.6312890    -1.4915970    -0.4182900
units angstrom
no_reorient  #important for SAPT in psi4, default
symmetry c1  #important for SAPT in psi4, default
}

set PROPERTIES_ORIGIN ["COM"]
properties('MP2/aug-cc-pvtz', properties = ['dipole'])
--------------------------------------------------------------------------

    Molecular point group: c1
  Charge       = 0
  Multiplicity = 1
  Basis Set: AUG-CC-PVTZ
    Blend: AUG-CC-PVTZ
  Basis Set: (AUG-CC-PVTZ AUX)
    Blend: AUG-CC-PVTZ-JKFIT

    Orbital Energies [Eh]
    ---------------------

    Doubly Occupied:

       1A    -15.577737     2A    -15.547932     3A    -11.316232
       4A    -11.279366     5A    -11.271913     6A    -11.254317
       7A    -11.251178     8A    -11.243228     9A    -11.242844
      10A    -11.238561    11A    -11.237553    12A    -11.236943
      13A    -11.226283    14A    -11.221703    15A     -1.289052
      16A     -1.216645    17A     -1.142038    18A     -1.078202
      19A     -1.027229    20A     -1.019695    21A     -1.002110
      22A     -0.929844    23A     -0.858804    24A     -0.843024
      25A     -0.832421    26A     -0.791330    27A     -0.728463
      28A     -0.691327    29A     -0.666615    30A     -0.656466
      31A     -0.646515    32A     -0.626804    33A     -0.615031
      34A     -0.603007    35A     -0.589571    36A     -0.581220
      37A     -0.568115    38A     -0.545663    39A     -0.538695
      40A     -0.526504    41A     -0.510581    42A     -0.505356
      43A     -0.499671    44A     -0.431672    45A     -0.413077
      46A     -0.376605    47A     -0.343448    48A     -0.338381
      49A     -0.287330

  @DF-RHF Final Energy:  -570.48223361737098

   => Energetics <=

    Nuclear Repulsion Energy =            818.6424188697282034
    One-Electron Energy =               -2397.3167011750892925
    Two-Electron Energy =                1008.1920486879899954
    Total Energy =                       -570.4822336173709800
  Basis Set: (AUG-CC-PVTZ AUX)
    Blend: AUG-CC-PVTZ-RI
    Molecular point group: c1

    Geometry (in Angstrom), charge = 0, multiplicity = 1:

       Center              X                  Y                   Z               Mass
    ------------   -----------------  -----------------  -----------------  -----------------
         N            0.055700070901     0.956141232032     0.299268211892    14.003074004430
         N            2.366652070901     0.958659232032     0.217689211892    14.003074004430
         C           -1.211224929099     0.345185232032     0.133335211892    12.000000000000
         C            1.231442070901     0.246740232032     0.078857211892    12.000000000000
         C            0.130568970901     2.464697632032     0.331114211892    12.000000000000
         C           -1.598977929099    -0.696791767968     0.989161211892    12.000000000000
         C           -2.101866929099     0.797992232032    -0.849933788108    12.000000000000
         C            1.237602070901    -1.121029767968    -0.275260788108    12.000000000000
         C           -2.852390929099    -1.290485767968     0.845769211892    12.000000000000
         C           -3.365077929099     0.216328232032    -0.970632788108    12.000000000000
         C           -3.742214929099    -0.833229767968    -0.130460788108    12.000000000000
         C            2.460626070901    -1.749770767968    -0.455521788108    12.000000000000
         C            3.536742070901     0.319702232032     0.037457211892    12.000000000000
         C            3.645991070901    -1.026670767968    -0.288254788108    12.000000000000
         H            0.879303070901     2.725258232032     1.056398211892     1.007825032230
         H           -0.851921929099     2.789348232032     0.628987211892     1.007825032230
         H            0.404405070901     2.839087232032    -0.643451788108     1.007825032230
         H           -0.914950929099    -1.019411767968     1.770559211892     1.007825032230
         H           -1.798388929099     1.597485232032    -1.521659788108     1.007825032230
         H            0.311550070901    -1.663606767968    -0.427205788108     1.007825032230
         H           -3.144538929099    -2.096724767968     1.514662211892     1.007825032230
         H           -4.051043929099     0.576369232032    -1.733913788108     1.007825032230
         H           -4.723905929099    -1.288857767968    -0.231851788108     1.007825032230
         H            2.488239070901    -2.800896767968    -0.734328788108     1.007825032230
         H            4.425522070901     0.937278232032     0.161120211892     1.007825032230
         H            4.619170070901    -1.489083767968    -0.421308788108     1.007825032230

  Basis Set: AUG-CC-PVTZ
    Blend: AUG-CC-PVTZ
  Basis Set: (AUG-CC-PVTZ AUX)
    Blend: AUG-CC-PVTZ-JKFIT
	 Reference Energy          =    -570.4822336173709800 [Eh]
	 Singles Energy            =      -0.0000000000000000 [Eh]
	 Same-Spin Energy          =      -0.6368625381025783 [Eh]
	 Opposite-Spin Energy      =      -1.9740011288444623 [Eh]
	 Correlation Energy        =      -2.6108636669470409 [Eh]
	 Total Energy              =    -573.0930972843179916 [Eh]

	 ================> DF-SCS-MP2 Energies <==================
	-----------------------------------------------------------
	 SCS Same-Spin Scale       =       0.3333333333333333 [-]
	 SCS Opposite-Spin Scale   =       1.2000000000000000 [-]
	 SCS Same-Spin Energy      =      -0.2122875127008594 [Eh]
	 SCS Opposite-Spin Energy  =      -2.3688013546133546 [Eh]
	 SCS Correlation Energy    =      -2.5810888673142141 [Eh]
	 SCS Total Energy          =    -573.0633224846851590 [Eh]
	-----------------------------------------------------------

  Dipole Moment: [D]
     X:    -1.2095      Y:    -0.7449      Z:    -0.4366     Total:     1.4861

*** Psi4 exiting successfully. Buy a developer a beer!
