                               Psi4 1.3.2 release

  ==> Input File <==

--------------------------------------------------------------------------
#psi4
#
memory 32 gb

molecule  {
0 1
  N        0.0678190     0.9536280     0.3022870
  N        2.3787710     0.9561460     0.2207080
  C       -1.1991060     0.3426720     0.1363540
  C        1.1590212     0.2952353     0.0977243
  C        0.1402100     2.4122570     0.3330790
  C       -1.5868590    -0.6993050     0.9921800
  C       -2.0897480     0.7954790    -0.8469150
  C        1.2497210    -1.1235430    -0.2722420
  C       -2.8402720    -1.2929990     0.8487880
  C       -3.3529590     0.2138150    -0.9676140
  C       -3.7300960    -0.8357430    -0.1274420
  C        2.4727450    -1.7522840    -0.4525030
  C        3.5488610     0.3171890     0.0404760
  C        3.6581100    -1.0291840    -0.2852360
  H        0.8914220     2.7227450     1.0594170
  H       -0.8398030     2.7868350     0.6320060
  H        0.4165240     2.8365740    -0.6404330
  H       -0.9028320    -1.0219250     1.7735780
  H       -1.7862700     1.5949720    -1.5186410
  H        0.3236690    -1.6661200    -0.4241870
  H       -3.1324200    -2.0992380     1.5176810
  H       -4.0389250     0.5738560    -1.7308950
  H       -4.7117870    -1.2913710    -0.2288330
  H        2.5003580    -2.8034100    -0.7313100
  H        4.4376410     0.9347650     0.1641390
  H        4.6312890    -1.4915970    -0.4182900
units angstrom
no_reorient  #important for SAPT in psi4, default
symmetry c1  #important for SAPT in psi4, default
}

set PROPERTIES_ORIGIN ["COM"]
properties('MP2/aug-cc-pvtz', properties = ['dipole'])
--------------------------------------------------------------------------

    Molecular point group: c1
  Charge       = 0
  Multiplicity = 1
  Basis Set: AUG-CC-PVTZ
    Blend: AUG-CC-PVTZ
  Basis Set: (AUG-CC-PVTZ AUX)
    Blend: AUG-CC-PVTZ-JKFIT

    Orbital Energies [Eh]
    ---------------------

    Doubly Occupied:

       1A    -15.594648     2A    -15.539326     3A    -11.320463
       4A    -11.288475     5A    -11.265583     6A    -11.258707
       7A    -11.249318     8A    -11.248667     9A    -11.247869
      10A    -11.247088    11A    -11.245196    12A    -11.244546
      13A    -11.224404    14A    -11.211251    15A     -1.321900
      16A     -1.208156    17A     -1.152946    18A     -1.065717
      19A     -1.031188    20A     -1.026602    21A     -1.005113
      22A     -0.940981    23A     -0.866595    24A     -0.842168
      25A     -0.829400    26A     -0.791432    27A     -0.738933
      28A     -0.696293    29A     -0.673145    30A     -0.660411
      31A     -0.657654    32A     -0.630830    33A     -0.612333
      34A     -0.606871    35A     -0.595276    36A     -0.585210
      37A     -0.567163    38A     -0.545117    39A     -0.529463
      40A     -0.526913    41A     -0.515115    42A     -0.508978
      43A     -0.505775    44A     -0.443800    45A     -0.392356
      46A     -0.368969    47A     -0.348919    48A     -0.343436
      49A     -0.278982

  @DF-RHF Final Energy:  -570.46941867375324

   => Energetics <=

    Nuclear Repulsion Energy =            820.2107542064417203
    One-Electron Energy =               -2400.1609803343812928
    Two-Electron Energy =                1009.4808074541862197
    Total Energy =                       -570.4694186737532391
  Basis Set: (AUG-CC-PVTZ AUX)
    Blend: AUG-CC-PVTZ-RI
    Molecular point group: c1

    Geometry (in Angstrom), charge = 0, multiplicity = 1:

       Center              X                  Y                   Z               Mass
    ------------   -----------------  -----------------  -----------------  -----------------
         N            0.061372054201     0.956070776863     0.298303890581    14.003074004430
         N            2.372324054201     0.958588776863     0.216724890581    14.003074004430
         C           -1.205552945799     0.345114776863     0.132370890581    12.000000000000
         C            1.152574254201     0.297678076863     0.093741190581    12.000000000000
         C            0.133763054201     2.414699776863     0.329095890581    12.000000000000
         C           -1.593305945799    -0.696862223137     0.988196890581    12.000000000000
         C           -2.096194945799     0.797921776863    -0.850898109419    12.000000000000
         C            1.243274054201    -1.121100223137    -0.276225109419    12.000000000000
         C           -2.846718945799    -1.290556223137     0.844804890581    12.000000000000
         C           -3.359405945799     0.216257776863    -0.971597109419    12.000000000000
         C           -3.736542945799    -0.833300223137    -0.131425109419    12.000000000000
         C            2.466298054201    -1.749841223137    -0.456486109419    12.000000000000
         C            3.542414054201     0.319631776863     0.036492890581    12.000000000000
         C            3.651663054201    -1.026741223137    -0.289219109419    12.000000000000
         H            0.884975054201     2.725187776863     1.055433890581     1.007825032230
         H           -0.846249945799     2.789277776863     0.628022890581     1.007825032230
         H            0.410077054201     2.839016776863    -0.644416109419     1.007825032230
         H           -0.909278945799    -1.019482223137     1.769594890581     1.007825032230
         H           -1.792716945799     1.597414776863    -1.522624109419     1.007825032230
         H            0.317222054201    -1.663677223137    -0.428170109419     1.007825032230
         H           -3.138866945799    -2.096795223137     1.513697890581     1.007825032230
         H           -4.045371945799     0.576298776863    -1.734878109419     1.007825032230
         H           -4.718233945799    -1.288928223137    -0.232816109419     1.007825032230
         H            2.493911054201    -2.800967223137    -0.735293109419     1.007825032230
         H            4.431194054201     0.937207776863     0.160155890581     1.007825032230
         H            4.624842054201    -1.489154223137    -0.422273109419     1.007825032230

  Basis Set: AUG-CC-PVTZ
    Blend: AUG-CC-PVTZ
  Basis Set: (AUG-CC-PVTZ AUX)
    Blend: AUG-CC-PVTZ-JKFIT
	 Reference Energy          =    -570.4694186737532391 [Eh]
	 Singles Energy            =      -0.0000000000000000 [Eh]
	 Same-Spin Energy          =      -0.6376956866769998 [Eh]
	 Opposite-Spin Energy      =      -1.9752900867715140 [Eh]
	 Correlation Energy        =      -2.6129857734485138 [Eh]
	 Total Energy              =    -573.0824044472017249 [Eh]

	 ================> DF-SCS-MP2 Energies <==================
	-----------------------------------------------------------
	 SCS Same-Spin Scale       =       0.3333333333333333 [-]
	 SCS Opposite-Spin Scale   =       1.2000000000000000 [-]
	 SCS Same-Spin Energy      =      -0.2125652288923333 [Eh]
	 SCS Opposite-Spin Energy  =      -2.3703481041258168 [Eh]
	 SCS Correlation Energy    =      -2.5829133330181500 [Eh]
	 SCS Total Energy          =    -573.0523320067713939 [Eh]
	-----------------------------------------------------------

  Dipole Moment: [D]
     X:    -2.2866      Y:    -0.4936      Z:    -0.2990     Total:     2.3583

*** Psi4 exiting successfully. Buy a developer a beer!
