                               Psi4 1.3.2 release

  ==> Input File <==

--------------------------------------------------------------------------
#psi4
#
memory 32 gb

molecule  {
0 1
  N        0.0678190     0.9536280     0.3022870
  N        2.3787710     0.9561460     0.2207080
  C       -1.1991060     0.3426720     0.1363540
  C        1.2435610     0.2442270     0.0818760
  C        0.1501215     2.6119668     0.3372949
  C       -1.5868590    -0.6993050     0.9921800
  C       -2.0897480     0.7954790    -0.8469150
  C        1.2497210    -1.1235430    -0.2722420
  C       -2.8402720    -1.2929990     0.8487880
  C       -3.3529590     0.2138150    -0.9676140
  C       -3.7300960    -0.8357430    -0.1274420
  C        2.4727450    -1.7522840    -0.4525030
  C        3.5488610     0.3171890     0.0404760
  C        3.6581100    -1.0291840    -0.2852360
  H        0.8914220     2.7227450     1.0594170
  H       -0.8398030     2.7868350     0.6320060
  H        0.4165240     2.8365740    -0.6404330
  H       -0.9028320    -1.0219250     1.7735780
  H       -1.7862700     1.5949720    -1.5186410
  H        0.3236690    -1.6661200    -0.4241870
  H       -3.1324200    -2.0992380     1.5176810
  H       -4.0389250     0.5738560    -1.7308950
  H       -4.7117870    -1.2913710    -0.2288330
  H        2.5003580    -2.8034100    -0.7313100
  H        4.4376410     0.9347650     0.1641390
  H        4.6312890    -1.4915970    -0.4182900
units angstrom
no_reorient  #important for SAPT in psi4, default
symmetry c1  #important for SAPT in psi4, default
}

set PROPERTIES_ORIGIN ["COM"]
properties('MP2/aug-cc-pvtz', properties = ['dipole'])
--------------------------------------------------------------------------

    Molecular point group: c1
  Charge       = 0
  Multiplicity = 1
  Basis Set: AUG-CC-PVTZ
    Blend: AUG-CC-PVTZ
  Basis Set: (AUG-CC-PVTZ AUX)
    Blend: AUG-CC-PVTZ-JKFIT

    Orbital Energies [Eh]
    ---------------------

    Doubly Occupied:

       1A    -15.571661     2A    -15.545071     3A    -11.313223
       4A    -11.276642     5A    -11.269981     6A    -11.261362
       7A    -11.252046     8A    -11.241666     9A    -11.241101
      10A    -11.236260    11A    -11.235322    12A    -11.234173
      13A    -11.222870    14A    -11.218684    15A     -1.277084
      16A     -1.206957    17A     -1.136743    18A     -1.075423
      19A     -1.023830    20A     -1.017319    21A     -0.996484
      22A     -0.939302    23A     -0.854879    24A     -0.841500
      25A     -0.830034    26A     -0.788887    27A     -0.723606
      28A     -0.686924    29A     -0.660507    30A     -0.652508
      31A     -0.644957    32A     -0.624203    33A     -0.618877
      34A     -0.611591    35A     -0.588595    36A     -0.583911
      37A     -0.568208    38A     -0.545859    39A     -0.540630
      40A     -0.519846    41A     -0.508102    42A     -0.503140
      43A     -0.490519    44A     -0.432046    45A     -0.411107
      46A     -0.374370    47A     -0.341529    48A     -0.334868
      49A     -0.283300

  @DF-RHF Final Energy:  -570.45737036186574

   => Energetics <=

    Nuclear Repulsion Energy =            815.4175904189446555
    One-Electron Energy =               -2391.0345078758741693
    Two-Electron Energy =                1005.1595470950637718
    Total Energy =                       -570.4573703618657419
  Basis Set: (AUG-CC-PVTZ AUX)
    Blend: AUG-CC-PVTZ-RI
    Molecular point group: c1

    Geometry (in Angstrom), charge = 0, multiplicity = 1:

       Center              X                  Y                   Z               Mass
    ------------   -----------------  -----------------  -----------------  -----------------
         N            0.055215534363     0.946378123245     0.299062113087    14.003074004430
         N            2.366167534363     0.948896123245     0.217483113087    14.003074004430
         C           -1.211709465637     0.335422123245     0.133129113087    12.000000000000
         C            1.230957534363     0.236977123245     0.078651113087    12.000000000000
         C            0.137518034363     2.604716923245     0.334070013087    12.000000000000
         C           -1.599462465637    -0.706554876755     0.988955113087    12.000000000000
         C           -2.102351465637     0.788229123245    -0.850139886913    12.000000000000
         C            1.237117534363    -1.130792876755    -0.275466886913    12.000000000000
         C           -2.852875465637    -1.300248876755     0.845563113087    12.000000000000
         C           -3.365562465637     0.206565123245    -0.970838886913    12.000000000000
         C           -3.742699465637    -0.842992876755    -0.130666886913    12.000000000000
         C            2.460141534363    -1.759533876755    -0.455727886913    12.000000000000
         C            3.536257534363     0.309939123245     0.037251113087    12.000000000000
         C            3.645506534363    -1.036433876755    -0.288460886913    12.000000000000
         H            0.878818534363     2.715495123245     1.056192113087     1.007825032230
         H           -0.852406465637     2.779585123245     0.628781113087     1.007825032230
         H            0.403920534363     2.829324123245    -0.643657886913     1.007825032230
         H           -0.915435465637    -1.029174876755     1.770353113087     1.007825032230
         H           -1.798873465637     1.587722123245    -1.521865886913     1.007825032230
         H            0.311065534363    -1.673369876755    -0.427411886913     1.007825032230
         H           -3.145023465637    -2.106487876755     1.514456113087     1.007825032230
         H           -4.051528465637     0.566606123245    -1.734119886913     1.007825032230
         H           -4.724390465637    -1.298620876755    -0.232057886913     1.007825032230
         H            2.487754534363    -2.810659876755    -0.734534886913     1.007825032230
         H            4.425037534363     0.927515123245     0.160914113087     1.007825032230
         H            4.618685534363    -1.498846876755    -0.421514886913     1.007825032230

  Basis Set: AUG-CC-PVTZ
    Blend: AUG-CC-PVTZ
  Basis Set: (AUG-CC-PVTZ AUX)
    Blend: AUG-CC-PVTZ-JKFIT
	 Reference Energy          =    -570.4573703618657419 [Eh]
	 Singles Energy            =      -0.0000000000000000 [Eh]
	 Same-Spin Energy          =      -0.6370804342391889 [Eh]
	 Opposite-Spin Energy      =      -1.9756761465364172 [Eh]
	 Correlation Energy        =      -2.6127565807756064 [Eh]
	 Total Energy              =    -573.0701269426413091 [Eh]

	 ================> DF-SCS-MP2 Energies <==================
	-----------------------------------------------------------
	 SCS Same-Spin Scale       =       0.3333333333333333 [-]
	 SCS Opposite-Spin Scale   =       1.2000000000000000 [-]
	 SCS Same-Spin Energy      =      -0.2123601447463963 [Eh]
	 SCS Opposite-Spin Energy  =      -2.3708113758437004 [Eh]
	 SCS Correlation Energy    =      -2.5831715205900965 [Eh]
	 SCS Total Energy          =    -573.0405418824558410 [Eh]
	-----------------------------------------------------------

  Dipole Moment: [D]
     X:    -1.2394      Y:    -0.3492      Z:    -0.4231     Total:     1.3554

*** Psi4 exiting successfully. Buy a developer a beer!
