                               Psi4 1.3.2 release

  ==> Input File <==

--------------------------------------------------------------------------
#psi4
#
memory 32 gb

molecule  {
0 1
  N        0.0678190     0.9536280     0.3022870
  N        2.3787710     0.9561460     0.2207080
  C       -1.1991060     0.3426720     0.1363540
  C        1.2674673     0.2863828     0.0790652
  C        0.1402100     2.4122570     0.3330790
  C       -1.5868590    -0.6993050     0.9921800
  C       -2.0897480     0.7954790    -0.8469150
  C        1.2497210    -1.1235430    -0.2722420
  C       -2.8402720    -1.2929990     0.8487880
  C       -3.3529590     0.2138150    -0.9676140
  C       -3.7300960    -0.8357430    -0.1274420
  C        2.4727450    -1.7522840    -0.4525030
  C        3.5488610     0.3171890     0.0404760
  C        3.6581100    -1.0291840    -0.2852360
  H        0.8914220     2.7227450     1.0594170
  H       -0.8398030     2.7868350     0.6320060
  H        0.4165240     2.8365740    -0.6404330
  H       -0.9028320    -1.0219250     1.7735780
  H       -1.7862700     1.5949720    -1.5186410
  H        0.3236690    -1.6661200    -0.4241870
  H       -3.1324200    -2.0992380     1.5176810
  H       -4.0389250     0.5738560    -1.7308950
  H       -4.7117870    -1.2913710    -0.2288330
  H        2.5003580    -2.8034100    -0.7313100
  H        4.4376410     0.9347650     0.1641390
  H        4.6312890    -1.4915970    -0.4182900
units angstrom
no_reorient  #important for SAPT in psi4, default
symmetry c1  #important for SAPT in psi4, default
}

set PROPERTIES_ORIGIN ["COM"]
properties('MP2/aug-cc-pvtz', properties = ['dipole'])
--------------------------------------------------------------------------

    Molecular point group: c1
  Charge       = 0
  Multiplicity = 1
  Basis Set: AUG-CC-PVTZ
    Blend: AUG-CC-PVTZ
  Basis Set: (AUG-CC-PVTZ AUX)
    Blend: AUG-CC-PVTZ-JKFIT

    Orbital Energies [Eh]
    ---------------------

    Doubly Occupied:

       1A    -15.578393     2A    -15.545811     3A    -11.317621
       4A    -11.281337     5A    -11.272524     6A    -11.252991
       7A    -11.248719     8A    -11.244039     9A    -11.243653
      10A    -11.239850    11A    -11.238710    12A    -11.238238
      13A    -11.231098    14A    -11.223041    15A     -1.299279
      16A     -1.225966    17A     -1.144523    18A     -1.079828
      19A     -1.026567    20A     -1.020730    21A     -1.003711
      22A     -0.926105    23A     -0.863474    24A     -0.841505
      25A     -0.832655    26A     -0.791922    27A     -0.731530
      28A     -0.693372    29A     -0.670239    30A     -0.660349
      31A     -0.648684    32A     -0.629547    33A     -0.613204
      34A     -0.603661    35A     -0.591052    36A     -0.582793
      37A     -0.568525    38A     -0.538555    39A     -0.536613
      40A     -0.528483    41A     -0.512801    42A     -0.505829
      43A     -0.501353    44A     -0.429346    45A     -0.411515
      46A     -0.379605    47A     -0.344238    48A     -0.338236
      49A     -0.288351

  @DF-RHF Final Energy:  -570.48298144553087

   => Energetics <=

    Nuclear Repulsion Energy =            819.7680907496425107
    One-Electron Energy =               -2399.4618065572403793
    Two-Electron Energy =                1009.2107343620671145
    Total Energy =                       -570.4829814455308679
  Basis Set: (AUG-CC-PVTZ AUX)
    Blend: AUG-CC-PVTZ-RI
    Molecular point group: c1

    Geometry (in Angstrom), charge = 0, multiplicity = 1:

       Center              X                  Y                   Z               Mass
    ------------   -----------------  -----------------  -----------------  -----------------
         N            0.054303326021     0.956647800068     0.299520127089    14.003074004430
         N            2.365255326021     0.959165800068     0.217941127089    14.003074004430
         C           -1.212621673979     0.345691800068     0.133587127089    12.000000000000
         C            1.253951626021     0.289402600068     0.076298327089    12.000000000000
         C            0.126694326021     2.415276800068     0.330312127089    12.000000000000
         C           -1.600374673979    -0.696285199932     0.989413127089    12.000000000000
         C           -2.103263673979     0.798498800068    -0.849681872911    12.000000000000
         C            1.236205326021    -1.120523199932    -0.275008872911    12.000000000000
         C           -2.853787673979    -1.289979199932     0.846021127089    12.000000000000
         C           -3.366474673979     0.216834800068    -0.970380872911    12.000000000000
         C           -3.743611673979    -0.832723199932    -0.130208872911    12.000000000000
         C            2.459229326021    -1.749264199932    -0.455269872911    12.000000000000
         C            3.535345326021     0.320208800068     0.037709127089    12.000000000000
         C            3.644594326021    -1.026164199932    -0.288002872911    12.000000000000
         H            0.877906326021     2.725764800068     1.056650127089     1.007825032230
         H           -0.853318673979     2.789854800068     0.629239127089     1.007825032230
         H            0.403008326021     2.839593800068    -0.643199872911     1.007825032230
         H           -0.916347673979    -1.018905199932     1.770811127089     1.007825032230
         H           -1.799785673979     1.597991800068    -1.521407872911     1.007825032230
         H            0.310153326021    -1.663100199932    -0.426953872911     1.007825032230
         H           -3.145935673979    -2.096218199932     1.514914127089     1.007825032230
         H           -4.052440673979     0.576875800068    -1.733661872911     1.007825032230
         H           -4.725302673979    -1.288351199932    -0.231599872911     1.007825032230
         H            2.486842326021    -2.800390199932    -0.734076872911     1.007825032230
         H            4.424125326021     0.937784800068     0.161372127089     1.007825032230
         H            4.617773326021    -1.488577199932    -0.421056872911     1.007825032230

  Basis Set: AUG-CC-PVTZ
    Blend: AUG-CC-PVTZ
  Basis Set: (AUG-CC-PVTZ AUX)
    Blend: AUG-CC-PVTZ-JKFIT
	 Reference Energy          =    -570.4829814455308679 [Eh]
	 Singles Energy            =      -0.0000000000000000 [Eh]
	 Same-Spin Energy          =      -0.6365519600641907 [Eh]
	 Opposite-Spin Energy      =      -1.9732603843123595 [Eh]
	 Correlation Energy        =      -2.6098123443765502 [Eh]
	 Total Energy              =    -573.0927937899074323 [Eh]

	 ================> DF-SCS-MP2 Energies <==================
	-----------------------------------------------------------
	 SCS Same-Spin Scale       =       0.3333333333333333 [-]
	 SCS Opposite-Spin Scale   =       1.2000000000000000 [-]
	 SCS Same-Spin Energy      =      -0.2121839866880635 [Eh]
	 SCS Opposite-Spin Energy  =      -2.3679124611748312 [Eh]
	 SCS Correlation Energy    =      -2.5800964478628949 [Eh]
	 SCS Total Energy          =    -573.0630778933937108 [Eh]
	-----------------------------------------------------------

  Dipole Moment: [D]
     X:    -1.2202      Y:    -0.8983      Z:    -0.4428     Total:     1.5786

*** Psi4 exiting successfully. Buy a developer a beer!
