                               Psi4 1.3.2 release

  ==> Input File <==

--------------------------------------------------------------------------
#psi4
#
memory 32 gb

molecule  {
0 1
  N        0.0678190     0.9536280     0.3022870
  N        2.4033278     0.9175729     0.2097471
  C       -1.1991060     0.3426720     0.1363540
  C        1.2435610     0.2442270     0.0818760
  C        0.1402100     2.4122570     0.3330790
  C       -1.5868590    -0.6993050     0.9921800
  C       -2.0897480     0.7954790    -0.8469150
  C        1.2497210    -1.1235430    -0.2722420
  C       -2.8402720    -1.2929990     0.8487880
  C       -3.3529590     0.2138150    -0.9676140
  C       -3.7300960    -0.8357430    -0.1274420
  C        2.4727450    -1.7522840    -0.4525030
  C        3.5488610     0.3171890     0.0404760
  C        3.6581100    -1.0291840    -0.2852360
  H        0.8914220     2.7227450     1.0594170
  H       -0.8398030     2.7868350     0.6320060
  H        0.4165240     2.8365740    -0.6404330
  H       -0.9028320    -1.0219250     1.7735780
  H       -1.7862700     1.5949720    -1.5186410
  H        0.3236690    -1.6661200    -0.4241870
  H       -3.1324200    -2.0992380     1.5176810
  H       -4.0389250     0.5738560    -1.7308950
  H       -4.7117870    -1.2913710    -0.2288330
  H        2.5003580    -2.8034100    -0.7313100
  H        4.4376410     0.9347650     0.1641390
  H        4.6312890    -1.4915970    -0.4182900
units angstrom
no_reorient  #important for SAPT in psi4, default
symmetry c1  #important for SAPT in psi4, default
}

set PROPERTIES_ORIGIN ["COM"]
properties('MP2/aug-cc-pvtz', properties = ['dipole'])
--------------------------------------------------------------------------

    Molecular point group: c1
  Charge       = 0
  Multiplicity = 1
  Basis Set: AUG-CC-PVTZ
    Blend: AUG-CC-PVTZ
  Basis Set: (AUG-CC-PVTZ AUX)
    Blend: AUG-CC-PVTZ-JKFIT

    Orbital Energies [Eh]
    ---------------------

    Doubly Occupied:

       1A    -15.580637     2A    -15.544401     3A    -11.317677
       4A    -11.281073     5A    -11.267531     6A    -11.252680
       7A    -11.250976     8A    -11.244121     9A    -11.243739
      10A    -11.239920    11A    -11.238733    12A    -11.238346
      13A    -11.225867    14A    -11.220216    15A     -1.296836
      16A     -1.229001    17A     -1.144954    18A     -1.077643
      19A     -1.030219    20A     -1.021222    21A     -1.005248
      22A     -0.927094    23A     -0.862723    24A     -0.841748
      25A     -0.833204    26A     -0.795121    27A     -0.731767
      28A     -0.693599    29A     -0.671398    30A     -0.658006
      31A     -0.648661    32A     -0.630646    33A     -0.615766
      34A     -0.603722    35A     -0.591541    36A     -0.584764
      37A     -0.568533    38A     -0.540475    39A     -0.538735
      40A     -0.528956    41A     -0.512823    42A     -0.505851
      43A     -0.501482    44A     -0.430871    45A     -0.405677
      46A     -0.379566    47A     -0.344310    48A     -0.339607
      49A     -0.287008

  @DF-RHF Final Energy:  -570.48447743024224

   => Energetics <=

    Nuclear Repulsion Energy =            820.3319153712124034
    One-Electron Energy =               -2400.5833985582466994
    Two-Electron Energy =                1009.7670057567921731
    Total Energy =                       -570.4844774302422366
  Basis Set: (AUG-CC-PVTZ AUX)
    Blend: AUG-CC-PVTZ-RI
    Molecular point group: c1

    Geometry (in Angstrom), charge = 0, multiplicity = 1:

       Center              X                  Y                   Z               Mass
    ------------   -----------------  -----------------  -----------------  -----------------
         N            0.053993738445     0.962329556173     0.300170624984    14.003074004430
         N            2.389502538445     0.926274456173     0.207630724984    14.003074004430
         C           -1.212931261555     0.351373556173     0.134237624984    12.000000000000
         C            1.229735738445     0.252928556173     0.079759624984    12.000000000000
         C            0.126384738445     2.420958556173     0.330962624984    12.000000000000
         C           -1.600684261555    -0.690603443827     0.990063624984    12.000000000000
         C           -2.103573261555     0.804180556173    -0.849031375016    12.000000000000
         C            1.235895738445    -1.114841443827    -0.274358375016    12.000000000000
         C           -2.854097261555    -1.284297443827     0.846671624984    12.000000000000
         C           -3.366784261555     0.222516556173    -0.969730375016    12.000000000000
         C           -3.743921261555    -0.827041443827    -0.129558375016    12.000000000000
         C            2.458919738445    -1.743582443827    -0.454619375016    12.000000000000
         C            3.535035738445     0.325890556173     0.038359624984    12.000000000000
         C            3.644284738445    -1.020482443827    -0.287352375016    12.000000000000
         H            0.877596738445     2.731446556173     1.057300624984     1.007825032230
         H           -0.853628261555     2.795536556173     0.629889624984     1.007825032230
         H            0.402698738445     2.845275556173    -0.642549375016     1.007825032230
         H           -0.916657261555    -1.013223443827     1.771461624984     1.007825032230
         H           -1.800095261555     1.603673556173    -1.520757375016     1.007825032230
         H            0.309843738445    -1.657418443827    -0.426303375016     1.007825032230
         H           -3.146245261555    -2.090536443827     1.515564624984     1.007825032230
         H           -4.052750261555     0.582557556173    -1.733011375016     1.007825032230
         H           -4.725612261555    -1.282669443827    -0.230949375016     1.007825032230
         H            2.486532738445    -2.794708443827    -0.733426375016     1.007825032230
         H            4.423815738445     0.943466556173     0.162022624984     1.007825032230
         H            4.617463738445    -1.482895443827    -0.420406375016     1.007825032230

  Basis Set: AUG-CC-PVTZ
    Blend: AUG-CC-PVTZ
  Basis Set: (AUG-CC-PVTZ AUX)
    Blend: AUG-CC-PVTZ-JKFIT
	 Reference Energy          =    -570.4844774302422366 [Eh]
	 Singles Energy            =      -0.0000000000000000 [Eh]
	 Same-Spin Energy          =      -0.6368782889862815 [Eh]
	 Opposite-Spin Energy      =      -1.9727393746410264 [Eh]
	 Correlation Energy        =      -2.6096176636273078 [Eh]
	 Total Energy              =    -573.0940950938695551 [Eh]

	 ================> DF-SCS-MP2 Energies <==================
	-----------------------------------------------------------
	 SCS Same-Spin Scale       =       0.3333333333333333 [-]
	 SCS Opposite-Spin Scale   =       1.2000000000000000 [-]
	 SCS Same-Spin Energy      =      -0.2122927629954272 [Eh]
	 SCS Opposite-Spin Energy  =      -2.3672872495692316 [Eh]
	 SCS Correlation Energy    =      -2.5795800125646586 [Eh]
	 SCS Total Energy          =    -573.0640574428068703 [Eh]
	-----------------------------------------------------------

  Dipole Moment: [D]
     X:    -1.2819      Y:    -0.7892      Z:    -0.4072     Total:     1.5595

*** Psi4 exiting successfully. Buy a developer a beer!
