                               Psi4 1.3.2 release

  ==> Input File <==

--------------------------------------------------------------------------
#psi4
#
memory 32 gb

molecule  {
0 1
  N        0.0189723     0.8718829     0.2834463
  N        2.3787710     0.9561460     0.2207080
  C       -1.1991060     0.3426720     0.1363540
  C        1.2435610     0.2442270     0.0818760
  C        0.1402100     2.4122570     0.3330790
  C       -1.5868590    -0.6993050     0.9921800
  C       -2.0897480     0.7954790    -0.8469150
  C        1.2497210    -1.1235430    -0.2722420
  C       -2.8402720    -1.2929990     0.8487880
  C       -3.3529590     0.2138150    -0.9676140
  C       -3.7300960    -0.8357430    -0.1274420
  C        2.4727450    -1.7522840    -0.4525030
  C        3.5488610     0.3171890     0.0404760
  C        3.6581100    -1.0291840    -0.2852360
  H        0.8914220     2.7227450     1.0594170
  H       -0.8398030     2.7868350     0.6320060
  H        0.4165240     2.8365740    -0.6404330
  H       -0.9028320    -1.0219250     1.7735780
  H       -1.7862700     1.5949720    -1.5186410
  H        0.3236690    -1.6661200    -0.4241870
  H       -3.1324200    -2.0992380     1.5176810
  H       -4.0389250     0.5738560    -1.7308950
  H       -4.7117870    -1.2913710    -0.2288330
  H        2.5003580    -2.8034100    -0.7313100
  H        4.4376410     0.9347650     0.1641390
  H        4.6312890    -1.4915970    -0.4182900
units angstrom
no_reorient  #important for SAPT in psi4, default
symmetry c1  #important for SAPT in psi4, default
}

set PROPERTIES_ORIGIN ["COM"]
properties('MP2/aug-cc-pvtz', properties = ['dipole'])
--------------------------------------------------------------------------

    Molecular point group: c1
  Charge       = 0
  Multiplicity = 1
  Basis Set: AUG-CC-PVTZ
    Blend: AUG-CC-PVTZ
  Basis Set: (AUG-CC-PVTZ AUX)
    Blend: AUG-CC-PVTZ-JKFIT

    Orbital Energies [Eh]
    ---------------------

    Doubly Occupied:

       1A    -15.579438     2A    -15.551917     3A    -11.319872
       4A    -11.274360     5A    -11.274006     6A    -11.258545
       7A    -11.254477     8A    -11.241632     9A    -11.240721
      10A    -11.235431    11A    -11.234708    12A    -11.232832
      13A    -11.226192    14A    -11.223561    15A     -1.299325
      16A     -1.227972    17A     -1.139135    18A     -1.079503
      19A     -1.031687    20A     -1.018798    21A     -0.995991
      22A     -0.930372    23A     -0.864469    24A     -0.847970
      25A     -0.833234    26A     -0.790319    27A     -0.735137
      28A     -0.690004    29A     -0.669409    30A     -0.661462
      31A     -0.649812    32A     -0.625395    33A     -0.614178
      34A     -0.601116    35A     -0.588288    36A     -0.577877
      37A     -0.571139    38A     -0.540280    39A     -0.536660
      40A     -0.526416    41A     -0.513853    42A     -0.506781
      43A     -0.495497    44A     -0.433415    45A     -0.414260
      46A     -0.378286    47A     -0.341933    48A     -0.336709
      49A     -0.285486

  @DF-RHF Final Energy:  -570.47220437828264

   => Energetics <=

    Nuclear Repulsion Energy =            820.6338485869829356
    One-Electron Energy =               -2401.2123817748147303
    Two-Electron Energy =                1010.1063288095492680
    Total Energy =                       -570.4722043782826404
  Basis Set: (AUG-CC-PVTZ AUX)
    Blend: AUG-CC-PVTZ-RI
    Molecular point group: c1

    Geometry (in Angstrom), charge = 0, multiplicity = 1:

       Center              X                  Y                   Z               Mass
    ------------   -----------------  -----------------  -----------------  -----------------
         N            0.010730277839     0.883868217998     0.281929280734    14.003074004430
         N            2.370528977839     0.968131317998     0.219190980734    14.003074004430
         C           -1.207348022161     0.354657317998     0.134836980734    12.000000000000
         C            1.235318977839     0.256212317998     0.080358980734    12.000000000000
         C            0.131967977839     2.424242317998     0.331561980734    12.000000000000
         C           -1.595101022161    -0.687319682002     0.990662980734    12.000000000000
         C           -2.097990022161     0.807464317998    -0.848432019266    12.000000000000
         C            1.241478977839    -1.111557682002    -0.273759019266    12.000000000000
         C           -2.848514022161    -1.281013682002     0.847270980734    12.000000000000
         C           -3.361201022161     0.225800317998    -0.969131019266    12.000000000000
         C           -3.738338022161    -0.823757682002    -0.128959019266    12.000000000000
         C            2.464502977839    -1.740298682002    -0.454020019266    12.000000000000
         C            3.540618977839     0.329174317998     0.038958980734    12.000000000000
         C            3.649867977839    -1.017198682002    -0.286753019266    12.000000000000
         H            0.883179977839     2.734730317998     1.057899980734     1.007825032230
         H           -0.848045022161     2.798820317998     0.630488980734     1.007825032230
         H            0.408281977839     2.848559317998    -0.641950019266     1.007825032230
         H           -0.911074022161    -1.009939682002     1.772060980734     1.007825032230
         H           -1.794512022161     1.606957317998    -1.520158019266     1.007825032230
         H            0.315426977839    -1.654134682002    -0.425704019266     1.007825032230
         H           -3.140662022161    -2.087252682002     1.516163980734     1.007825032230
         H           -4.047167022161     0.585841317998    -1.732412019266     1.007825032230
         H           -4.720029022161    -1.279385682002    -0.230350019266     1.007825032230
         H            2.492115977839    -2.791424682002    -0.732827019266     1.007825032230
         H            4.429398977839     0.946750317998     0.162621980734     1.007825032230
         H            4.623046977839    -1.479611682002    -0.419807019266     1.007825032230

  Basis Set: AUG-CC-PVTZ
    Blend: AUG-CC-PVTZ
  Basis Set: (AUG-CC-PVTZ AUX)
    Blend: AUG-CC-PVTZ-JKFIT
	 Reference Energy          =    -570.4722043782826404 [Eh]
	 Singles Energy            =      -0.0000000000000000 [Eh]
	 Same-Spin Energy          =      -0.6379697287212021 [Eh]
	 Opposite-Spin Energy      =      -1.9753149538118886 [Eh]
	 Correlation Energy        =      -2.6132846825330907 [Eh]
	 Total Energy              =    -573.0854890608156893 [Eh]

	 ================> DF-SCS-MP2 Energies <==================
	-----------------------------------------------------------
	 SCS Same-Spin Scale       =       0.3333333333333333 [-]
	 SCS Opposite-Spin Scale   =       1.2000000000000000 [-]
	 SCS Same-Spin Energy      =      -0.2126565762404007 [Eh]
	 SCS Opposite-Spin Energy  =      -2.3703779445742663 [Eh]
	 SCS Correlation Energy    =      -2.5830345208146670 [Eh]
	 SCS Total Energy          =    -573.0552388990972759 [Eh]
	-----------------------------------------------------------

  Dipole Moment: [D]
     X:    -0.9058      Y:    -0.6751      Z:    -0.4155     Total:     1.2037

*** Psi4 exiting successfully. Buy a developer a beer!
