                               Psi4 1.3.2 release

  ==> Input File <==

--------------------------------------------------------------------------
#psi4
#
memory 32 gb

molecule  {
0 1
  N        0.0678190     0.9536280     0.3022870
  N        2.3787710     0.9561460     0.2207080
  C       -1.1991060     0.3426720     0.1363540
  C        1.2310688     0.2234700     0.0833823
  C        0.1402100     2.4122570     0.3330790
  C       -1.5868590    -0.6993050     0.9921800
  C       -2.0897480     0.7954790    -0.8469150
  C        1.2497210    -1.1235430    -0.2722420
  C       -2.8402720    -1.2929990     0.8487880
  C       -3.3529590     0.2138150    -0.9676140
  C       -3.7300960    -0.8357430    -0.1274420
  C        2.4727450    -1.7522840    -0.4525030
  C        3.5488610     0.3171890     0.0404760
  C        3.6581100    -1.0291840    -0.2852360
  H        0.8914220     2.7227450     1.0594170
  H       -0.8398030     2.7868350     0.6320060
  H        0.4165240     2.8365740    -0.6404330
  H       -0.9028320    -1.0219250     1.7735780
  H       -1.7862700     1.5949720    -1.5186410
  H        0.3236690    -1.6661200    -0.4241870
  H       -3.1324200    -2.0992380     1.5176810
  H       -4.0389250     0.5738560    -1.7308950
  H       -4.7117870    -1.2913710    -0.2288330
  H        2.5003580    -2.8034100    -0.7313100
  H        4.4376410     0.9347650     0.1641390
  H        4.6312890    -1.4915970    -0.4182900
units angstrom
no_reorient  #important for SAPT in psi4, default
symmetry c1  #important for SAPT in psi4, default
}

set PROPERTIES_ORIGIN ["COM"]
properties('MP2/aug-cc-pvtz', properties = ['dipole'])
--------------------------------------------------------------------------

    Molecular point group: c1
  Charge       = 0
  Multiplicity = 1
  Basis Set: AUG-CC-PVTZ
    Blend: AUG-CC-PVTZ
  Basis Set: (AUG-CC-PVTZ AUX)
    Blend: AUG-CC-PVTZ-JKFIT

    Orbital Energies [Eh]
    ---------------------

    Doubly Occupied:

       1A    -15.579309     2A    -15.550458     3A    -11.316668
       4A    -11.279712     5A    -11.272570     6A    -11.256042
       7A    -11.250140     8A    -11.243571     9A    -11.243277
      10A    -11.239017    11A    -11.238049    12A    -11.237645
      13A    -11.225526    14A    -11.222819    15A     -1.292873
      16A     -1.217604    17A     -1.143656    18A     -1.079076
      19A     -1.029546    20A     -1.020396    21A     -1.005250
      22A     -0.927209    23A     -0.858730    24A     -0.844536
      25A     -0.833383    26A     -0.791737    27A     -0.729763
      28A     -0.693595    29A     -0.669295    30A     -0.656559
      31A     -0.647399    32A     -0.629028    33A     -0.615852
      34A     -0.602049    35A     -0.591221    36A     -0.584487
      37A     -0.568517    38A     -0.539590    39A     -0.534538
      40A     -0.527592    41A     -0.510505    42A     -0.504633
      43A     -0.500967    44A     -0.430104    45A     -0.414082
      46A     -0.376419    47A     -0.344050    48A     -0.339756
      49A     -0.288612

  @DF-RHF Final Energy:  -570.48267420886020

   => Energetics <=

    Nuclear Repulsion Energy =            819.7800422753241492
    One-Electron Energy =               -2399.5306176286421760
    Two-Electron Energy =                1009.2679011444578236
    Total Energy =                       -570.4826742088602032
  Basis Set: (AUG-CC-PVTZ AUX)
    Blend: AUG-CC-PVTZ-RI
    Molecular point group: c1

    Geometry (in Angstrom), charge = 0, multiplicity = 1:

       Center              X                  Y                   Z               Mass
    ------------   -----------------  -----------------  -----------------  -----------------
         N            0.056675851198     0.960748579001     0.299238730097    14.003074004430
         N            2.367627851198     0.963266579001     0.217659730097    14.003074004430
         C           -1.210249148802     0.349792579001     0.133305730097    12.000000000000
         C            1.219925651198     0.230590579001     0.080334030097    12.000000000000
         C            0.129066851198     2.419377579001     0.330030730097    12.000000000000
         C           -1.598002148802    -0.692184420999     0.989131730097    12.000000000000
         C           -2.100891148802     0.802599579001    -0.849963269903    12.000000000000
         C            1.238577851198    -1.116422420999    -0.275290269903    12.000000000000
         C           -2.851415148802    -1.285878420999     0.845739730097    12.000000000000
         C           -3.364102148802     0.220935579001    -0.970662269903    12.000000000000
         C           -3.741239148802    -0.828622420999    -0.130490269903    12.000000000000
         C            2.461601851198    -1.745163420999    -0.455551269903    12.000000000000
         C            3.537717851198     0.324309579001     0.037427730097    12.000000000000
         C            3.646966851198    -1.022063420999    -0.288284269903    12.000000000000
         H            0.880278851198     2.729865579001     1.056368730097     1.007825032230
         H           -0.850946148802     2.793955579001     0.628957730097     1.007825032230
         H            0.405380851198     2.843694579001    -0.643481269903     1.007825032230
         H           -0.913975148802    -1.014804420999     1.770529730097     1.007825032230
         H           -1.797413148802     1.602092579001    -1.521689269903     1.007825032230
         H            0.312525851198    -1.658999420999    -0.427235269903     1.007825032230
         H           -3.143563148802    -2.092117420999     1.514632730097     1.007825032230
         H           -4.050068148802     0.580976579001    -1.733943269903     1.007825032230
         H           -4.722930148802    -1.284250420999    -0.231881269903     1.007825032230
         H            2.489214851198    -2.796289420999    -0.734358269903     1.007825032230
         H            4.426497851198     0.941885579001     0.161090730097     1.007825032230
         H            4.620145851198    -1.484476420999    -0.421338269903     1.007825032230

  Basis Set: AUG-CC-PVTZ
    Blend: AUG-CC-PVTZ
  Basis Set: (AUG-CC-PVTZ AUX)
    Blend: AUG-CC-PVTZ-JKFIT
	 Reference Energy          =    -570.4826742088602032 [Eh]
	 Singles Energy            =      -0.0000000000000000 [Eh]
	 Same-Spin Energy          =      -0.6373625021763428 [Eh]
	 Opposite-Spin Energy      =      -1.9743907990949028 [Eh]
	 Correlation Energy        =      -2.6117533012712455 [Eh]
	 Total Energy              =    -573.0944275101314815 [Eh]

	 ================> DF-SCS-MP2 Energies <==================
	-----------------------------------------------------------
	 SCS Same-Spin Scale       =       0.3333333333333333 [-]
	 SCS Opposite-Spin Scale   =       1.2000000000000000 [-]
	 SCS Same-Spin Energy      =      -0.2124541673921143 [Eh]
	 SCS Opposite-Spin Energy  =      -2.3692689589138833 [Eh]
	 SCS Correlation Energy    =      -2.5817231263059974 [Eh]
	 SCS Total Energy          =    -573.0643973351661771 [Eh]
	-----------------------------------------------------------

  Dipole Moment: [D]
     X:    -1.1828      Y:    -0.8956      Z:    -0.4360     Total:     1.5464

*** Psi4 exiting successfully. Buy a developer a beer!
