                               Psi4 1.3.2 release

  ==> Input File <==

--------------------------------------------------------------------------
#psi4
#
memory 32 gb

molecule  {
0 1
  N        0.0860135     0.9525715     0.3201144
  N        2.3787710     0.9561460     0.2207080
  C       -1.1991060     0.3426720     0.1363540
  C        1.2435610     0.2442270     0.0818760
  C        0.1402100     2.4122570     0.3330790
  C       -1.5868590    -0.6993050     0.9921800
  C       -2.0897480     0.7954790    -0.8469150
  C        1.2497210    -1.1235430    -0.2722420
  C       -2.8402720    -1.2929990     0.8487880
  C       -3.3529590     0.2138150    -0.9676140
  C       -3.7300960    -0.8357430    -0.1274420
  C        2.4727450    -1.7522840    -0.4525030
  C        3.5488610     0.3171890     0.0404760
  C        3.6581100    -1.0291840    -0.2852360
  H        0.8914220     2.7227450     1.0594170
  H       -0.8398030     2.7868350     0.6320060
  H        0.4165240     2.8365740    -0.6404330
  H       -0.9028320    -1.0219250     1.7735780
  H       -1.7862700     1.5949720    -1.5186410
  H        0.3236690    -1.6661200    -0.4241870
  H       -3.1324200    -2.0992380     1.5176810
  H       -4.0389250     0.5738560    -1.7308950
  H       -4.7117870    -1.2913710    -0.2288330
  H        2.5003580    -2.8034100    -0.7313100
  H        4.4376410     0.9347650     0.1641390
  H        4.6312890    -1.4915970    -0.4182900
units angstrom
no_reorient  #important for SAPT in psi4, default
symmetry c1  #important for SAPT in psi4, default
}

set PROPERTIES_ORIGIN ["COM"]
properties('MP2/aug-cc-pvtz', properties = ['dipole'])
--------------------------------------------------------------------------

    Molecular point group: c1
  Charge       = 0
  Multiplicity = 1
  Basis Set: AUG-CC-PVTZ
    Blend: AUG-CC-PVTZ
  Basis Set: (AUG-CC-PVTZ AUX)
    Blend: AUG-CC-PVTZ-JKFIT

    Orbital Energies [Eh]
    ---------------------

    Doubly Occupied:

       1A    -15.580117     2A    -15.547316     3A    -11.315696
       4A    -11.281805     5A    -11.271769     6A    -11.254533
       7A    -11.249761     8A    -11.244603     9A    -11.243965
      10A    -11.240896    11A    -11.239248    12A    -11.238711
      13A    -11.226594    14A    -11.221592    15A     -1.295561
      16A     -1.218156    17A     -1.145191    18A     -1.078416
      19A     -1.028276    20A     -1.021088    21A     -1.005106
      22A     -0.927368    23A     -0.860175    24A     -0.841845
      25A     -0.833611    26A     -0.792311    27A     -0.729998
      28A     -0.693767    29A     -0.669356    30A     -0.657500
      31A     -0.647757    32A     -0.629260    33A     -0.614401
      34A     -0.603257    35A     -0.591376    36A     -0.584571
      37A     -0.566711    38A     -0.540151    39A     -0.534915
      40A     -0.527673    41A     -0.511133    42A     -0.505085
      43A     -0.501402    44A     -0.431241    45A     -0.412589
      46A     -0.376658    47A     -0.344647    48A     -0.339808
      49A     -0.288602

  @DF-RHF Final Energy:  -570.48382650019380

   => Energetics <=

    Nuclear Repulsion Energy =            819.6863710751360941
    One-Electron Energy =               -2399.3292625714875612
    Two-Electron Energy =                1009.1590649961576673
    Total Energy =                       -570.4838265001937998
  Basis Set: (AUG-CC-PVTZ AUX)
    Blend: AUG-CC-PVTZ-RI
    Molecular point group: c1

    Geometry (in Angstrom), charge = 0, multiplicity = 1:

       Center              X                  Y                   Z               Mass
    ------------   -----------------  -----------------  -----------------  -----------------
         N            0.072672169647     0.958419457106     0.315808320533    14.003074004430
         N            2.365429669647     0.961993957106     0.216401920533    14.003074004430
         C           -1.212447330353     0.348519957106     0.132047920533    12.000000000000
         C            1.230219669647     0.250074957106     0.077569920533    12.000000000000
         C            0.126868669647     2.418104957106     0.328772920533    12.000000000000
         C           -1.600200330353    -0.693457042894     0.987873920533    12.000000000000
         C           -2.103089330353     0.801326957106    -0.851221079467    12.000000000000
         C            1.236379669647    -1.117695042894    -0.276548079467    12.000000000000
         C           -2.853613330353    -1.287151042894     0.844481920533    12.000000000000
         C           -3.366300330353     0.219662957106    -0.971920079467    12.000000000000
         C           -3.743437330353    -0.829895042894    -0.131748079467    12.000000000000
         C            2.459403669647    -1.746436042894    -0.456809079467    12.000000000000
         C            3.535519669647     0.323036957106     0.036169920533    12.000000000000
         C            3.644768669647    -1.023336042894    -0.289542079467    12.000000000000
         H            0.878080669647     2.728592957106     1.055110920533     1.007825032230
         H           -0.853144330353     2.792682957106     0.627699920533     1.007825032230
         H            0.403182669647     2.842421957106    -0.644739079467     1.007825032230
         H           -0.916173330353    -1.016077042894     1.769271920533     1.007825032230
         H           -1.799611330353     1.600819957106    -1.522947079467     1.007825032230
         H            0.310327669647    -1.660272042894    -0.428493079467     1.007825032230
         H           -3.145761330353    -2.093390042894     1.513374920533     1.007825032230
         H           -4.052266330353     0.579703957106    -1.735201079467     1.007825032230
         H           -4.725128330353    -1.285523042894    -0.233139079467     1.007825032230
         H            2.487016669647    -2.797562042894    -0.735616079467     1.007825032230
         H            4.424299669647     0.940612957106     0.159832920533     1.007825032230
         H            4.617947669647    -1.485749042894    -0.422596079467     1.007825032230

  Basis Set: AUG-CC-PVTZ
    Blend: AUG-CC-PVTZ
  Basis Set: (AUG-CC-PVTZ AUX)
    Blend: AUG-CC-PVTZ-JKFIT
	 Reference Energy          =    -570.4838265001937998 [Eh]
	 Singles Energy            =      -0.0000000000000000 [Eh]
	 Same-Spin Energy          =      -0.6369768011254370 [Eh]
	 Opposite-Spin Energy      =      -1.9738828165842988 [Eh]
	 Correlation Energy        =      -2.6108596177097358 [Eh]
	 Total Energy              =    -573.0946861179035068 [Eh]

	 ================> DF-SCS-MP2 Energies <==================
	-----------------------------------------------------------
	 SCS Same-Spin Scale       =       0.3333333333333333 [-]
	 SCS Opposite-Spin Scale   =       1.2000000000000000 [-]
	 SCS Same-Spin Energy      =      -0.2123256003751456 [Eh]
	 SCS Opposite-Spin Energy  =      -2.3686593799011586 [Eh]
	 SCS Correlation Energy    =      -2.5809849802763041 [Eh]
	 SCS Total Energy          =    -573.0648114804700981 [Eh]
	-----------------------------------------------------------

  Dipole Moment: [D]
     X:    -1.3308      Y:    -0.8852      Z:    -0.4539     Total:     1.6615

*** Psi4 exiting successfully. Buy a developer a beer!
