                               Psi4 1.3.2 release

  ==> Input File <==

--------------------------------------------------------------------------
#psi4
#
memory 32 gb

molecule  {
-1 1
  O        1.1476120    -0.2089480     0.0000010
  O       -1.1813224    -0.1276210     0.0000016
  C       -0.0000020     0.3144140    -0.0000020
  H        0.0000020     1.4566920     0.0000040
units angstrom
no_reorient  #important for SAPT in psi4, default
symmetry c1  #important for SAPT in psi4, default
}

set PROPERTIES_ORIGIN ["COM"]
properties('MP2/aug-cc-pvtz', properties = ['dipole'])
--------------------------------------------------------------------------

    Molecular point group: c1
  Charge       = -1
  Multiplicity = 1
  Basis Set: AUG-CC-PVTZ
    Blend: AUG-CC-PVTZ
  Basis Set: (AUG-CC-PVTZ AUX)
    Blend: AUG-CC-PVTZ-JKFIT

    Orbital Energies [Eh]
    ---------------------

    Doubly Occupied:

       1A    -20.295505     2A    -20.293760     3A    -11.130884
       4A     -1.152609     5A     -1.066090     6A     -0.551736
       7A     -0.427487     8A     -0.390797     9A     -0.341239
      10A     -0.217356    11A     -0.192233    12A     -0.182740

  @DF-RHF Final Energy:  -188.27053420997757

   => Energetics <=

    Nuclear Repulsion Energy =             61.8239879691161534
    One-Electron Energy =                -387.7041722149990051
    Two-Electron Energy =                 137.6096500359052754
    Total Energy =                       -188.2705342099775692
  Basis Set: (AUG-CC-PVTZ AUX)
    Blend: AUG-CC-PVTZ-RI
    Molecular point group: c1

    Geometry (in Angstrom), charge = -1, multiplicity = 1:

       Center              X                  Y                   Z               Mass
    ------------   -----------------  -----------------  -----------------  -----------------
         O            1.159595223634    -0.205784862742     0.000000519573    15.994914619570
         O           -1.169339176366    -0.124457862742     0.000001119573    15.994914619570
         C            0.011981223634     0.317577137258    -0.000002480427    12.000000000000
         H            0.011985223634     1.459855137258     0.000003519573     1.007825032230

  Basis Set: AUG-CC-PVTZ
    Blend: AUG-CC-PVTZ
  Basis Set: (AUG-CC-PVTZ AUX)
    Blend: AUG-CC-PVTZ-JKFIT
	 Reference Energy          =    -188.2705342099775692 [Eh]
	 Singles Energy            =      -0.0000000000000000 [Eh]
	 Same-Spin Energy          =      -0.1811871340341404 [Eh]
	 Opposite-Spin Energy      =      -0.5237501426311754 [Eh]
	 Correlation Energy        =      -0.7049372766653157 [Eh]
	 Total Energy              =    -188.9754714866428742 [Eh]

	 ================> DF-SCS-MP2 Energies <==================
	-----------------------------------------------------------
	 SCS Same-Spin Scale       =       0.3333333333333333 [-]
	 SCS Opposite-Spin Scale   =       1.2000000000000000 [-]
	 SCS Same-Spin Energy      =      -0.0603957113447135 [Eh]
	 SCS Opposite-Spin Energy  =      -0.6285001711574104 [Eh]
	 SCS Correlation Energy    =      -0.6888958825021239 [Eh]
	 SCS Total Energy          =    -188.9594300924796926 [Eh]
	-----------------------------------------------------------

  Dipole Moment: [D]
     X:     0.0406      Y:     1.1169      Z:    -0.0000     Total:     1.1177

*** Psi4 exiting successfully. Buy a developer a beer!
