                               Psi4 1.3.2 release

  ==> Input File <==

--------------------------------------------------------------------------
#psi4
#
memory 32 gb

molecule  {
-1 1
  O        1.1476120    -0.2089480     0.0000010
  O       -1.1960296    -0.0861243     0.0000019
  C       -0.0000020     0.3144140    -0.0000020
  H        0.0000020     1.4566920     0.0000040
units angstrom
no_reorient  #important for SAPT in psi4, default
symmetry c1  #important for SAPT in psi4, default
}

set PROPERTIES_ORIGIN ["COM"]
properties('MP2/aug-cc-pvtz', properties = ['dipole'])
--------------------------------------------------------------------------

    Molecular point group: c1
  Charge       = -1
  Multiplicity = 1
  Basis Set: AUG-CC-PVTZ
    Blend: AUG-CC-PVTZ
  Basis Set: (AUG-CC-PVTZ AUX)
    Blend: AUG-CC-PVTZ-JKFIT

    Orbital Energies [Eh]
    ---------------------

    Doubly Occupied:

       1A    -20.297583     2A    -20.294976     3A    -11.131691
       4A     -1.152770     5A     -1.069118     6A     -0.550910
       7A     -0.427622     8A     -0.392560     9A     -0.342151
      10A     -0.220443    11A     -0.194225    12A     -0.179516

  @DF-RHF Final Energy:  -188.26864396620147

   => Energetics <=

    Nuclear Repulsion Energy =             61.7482670445735167
    One-Electron Energy =                -387.5266908297585360
    Two-Electron Energy =                 137.5097798189835316
    Total Energy =                       -188.2686439662014664
  Basis Set: (AUG-CC-PVTZ AUX)
    Blend: AUG-CC-PVTZ-RI
    Molecular point group: c1

    Geometry (in Angstrom), charge = -1, multiplicity = 1:

       Center              X                  Y                   Z               Mass
    ------------   -----------------  -----------------  -----------------  -----------------
         O            1.164823060776    -0.220535324388     0.000000412935    15.994914619570
         O           -1.178818539224    -0.097711624388     0.000001312935    15.994914619570
         C            0.017209060776     0.302826675612    -0.000002587065    12.000000000000
         H            0.017213060776     1.445104675612     0.000003412935     1.007825032230

  Basis Set: AUG-CC-PVTZ
    Blend: AUG-CC-PVTZ
  Basis Set: (AUG-CC-PVTZ AUX)
    Blend: AUG-CC-PVTZ-JKFIT
	 Reference Energy          =    -188.2686439662014664 [Eh]
	 Singles Energy            =      -0.0000000000000000 [Eh]
	 Same-Spin Energy          =      -0.1812812609942629 [Eh]
	 Opposite-Spin Energy      =      -0.5239609938807729 [Eh]
	 Correlation Energy        =      -0.7052422548750358 [Eh]
	 Total Energy              =    -188.9738862210764978 [Eh]

	 ================> DF-SCS-MP2 Energies <==================
	-----------------------------------------------------------
	 SCS Same-Spin Scale       =       0.3333333333333333 [-]
	 SCS Opposite-Spin Scale   =       1.2000000000000000 [-]
	 SCS Same-Spin Energy      =      -0.0604270869980876 [Eh]
	 SCS Opposite-Spin Energy  =      -0.6287531926569274 [Eh]
	 SCS Correlation Energy    =      -0.6891802796550150 [Eh]
	 SCS Total Energy          =    -188.9578242458564716 [Eh]
	-----------------------------------------------------------

  Dipole Moment: [D]
     X:     0.0579      Y:     1.0452      Z:    -0.0000     Total:     1.0468

*** Psi4 exiting successfully. Buy a developer a beer!
