                               Psi4 1.3.2 release

  ==> Input File <==

--------------------------------------------------------------------------
#psi4
#
memory 32 gb

molecule  {
-1 1
  O        1.1476120    -0.2089480     0.0000010
  O       -1.1565692    -0.1888408     0.0000012
  C       -0.0000020     0.3144140    -0.0000020
  H        0.0000020     1.4566920     0.0000040
units angstrom
no_reorient  #important for SAPT in psi4, default
symmetry c1  #important for SAPT in psi4, default
}

set PROPERTIES_ORIGIN ["COM"]
properties('MP2/aug-cc-pvtz', properties = ['dipole'])
--------------------------------------------------------------------------

    Molecular point group: c1
  Charge       = -1
  Multiplicity = 1
  Basis Set: AUG-CC-PVTZ
    Blend: AUG-CC-PVTZ
  Basis Set: (AUG-CC-PVTZ AUX)
    Blend: AUG-CC-PVTZ-JKFIT

    Orbital Energies [Eh]
    ---------------------

    Doubly Occupied:

       1A    -20.292322     2A    -20.291884     3A    -11.129717
       4A     -1.152518     5A     -1.061373     6A     -0.553048
       7A     -0.427328     8A     -0.387979     9A     -0.339904
      10A     -0.212486    11A     -0.189143    12A     -0.187180

  @DF-RHF Final Energy:  -188.27213811218738

   => Energetics <=

    Nuclear Repulsion Energy =             61.9511506378203407
    One-Electron Energy =                -387.9968104826253352
    Two-Electron Energy =                 137.7735217326176382
    Total Energy =                       -188.2721381121873776
  Basis Set: (AUG-CC-PVTZ AUX)
    Blend: AUG-CC-PVTZ-RI
    Molecular point group: c1

    Geometry (in Angstrom), charge = -1, multiplicity = 1:

       Center              X                  Y                   Z               Mass
    ------------   -----------------  -----------------  -----------------  -----------------
         O            1.150796424519    -0.184023606741     0.000000661758    15.994914619570
         O           -1.153384775481    -0.163916406741     0.000000861758    15.994914619570
         C            0.003182424519     0.339338393259    -0.000002338242    12.000000000000
         H            0.003186424519     1.481616393259     0.000003661758     1.007825032230

  Basis Set: AUG-CC-PVTZ
    Blend: AUG-CC-PVTZ
  Basis Set: (AUG-CC-PVTZ AUX)
    Blend: AUG-CC-PVTZ-JKFIT
	 Reference Energy          =    -188.2721381121873776 [Eh]
	 Singles Energy            =      -0.0000000000000000 [Eh]
	 Same-Spin Energy          =      -0.1810959701723562 [Eh]
	 Opposite-Spin Energy      =      -0.5235264597747252 [Eh]
	 Correlation Energy        =      -0.7046224299470815 [Eh]
	 Total Energy              =    -188.9767605421344570 [Eh]

	 ================> DF-SCS-MP2 Energies <==================
	-----------------------------------------------------------
	 SCS Same-Spin Scale       =       0.3333333333333333 [-]
	 SCS Opposite-Spin Scale   =       1.2000000000000000 [-]
	 SCS Same-Spin Energy      =      -0.0603653233907854 [Eh]
	 SCS Opposite-Spin Energy  =      -0.6282317517296703 [Eh]
	 SCS Correlation Energy    =      -0.6885970751204556 [Eh]
	 SCS Total Energy          =    -188.9607351873078471 [Eh]
	-----------------------------------------------------------

  Dipole Moment: [D]
     X:     0.0109      Y:     1.2215      Z:    -0.0000     Total:     1.2215

*** Psi4 exiting successfully. Buy a developer a beer!
