                               Psi4 1.3.2 release

  ==> Input File <==

--------------------------------------------------------------------------
#psi4
#
memory 32 gb

molecule  {
-1 1
  O        1.1476120    -0.2089480     0.0000010
  O       -1.1476100    -0.2089490     0.0000010
  C       -0.0000020     0.3144140    -0.0000020
  H        0.0000027     1.6566920     0.0000051
units angstrom
no_reorient  #important for SAPT in psi4, default
symmetry c1  #important for SAPT in psi4, default
}

set PROPERTIES_ORIGIN ["COM"]
properties('MP2/aug-cc-pvtz', properties = ['dipole'])
--------------------------------------------------------------------------

    Molecular point group: c1
  Charge       = -1
  Multiplicity = 1
  Basis Set: AUG-CC-PVTZ
    Blend: AUG-CC-PVTZ
  Basis Set: (AUG-CC-PVTZ AUX)
    Blend: AUG-CC-PVTZ-JKFIT

    Orbital Energies [Eh]
    ---------------------

    Doubly Occupied:

       1A    -20.304486     2A    -20.304452     3A    -11.158671
       4A     -1.161933     5A     -1.070823     6A     -0.525005
       7A     -0.421063     8A     -0.396411     9A     -0.349873
      10A     -0.219597    11A     -0.199224    12A     -0.181843

  @DF-RHF Final Energy:  -188.25439452495999

   => Energetics <=

    Nuclear Repulsion Energy =             61.2627147896345363
    One-Electron Energy =                -386.4474566507643090
    Two-Electron Energy =                 136.9303473361698025
    Total Energy =                       -188.2543945249599915
  Basis Set: (AUG-CC-PVTZ AUX)
    Blend: AUG-CC-PVTZ-RI
    Molecular point group: c1

    Geometry (in Angstrom), charge = -1, multiplicity = 1:

       Center              X                  Y                   Z               Mass
    ------------   -----------------  -----------------  -----------------  -----------------
         O            1.147611761966    -0.181355380194     0.000000708213    15.994914619570
         O           -1.147610238034    -0.181356380194     0.000000708213    15.994914619570
         C           -0.000002238034     0.342006619806    -0.000002291787    12.000000000000
         H            0.000002461966     1.684284619806     0.000004808213     1.007825032230

  Basis Set: AUG-CC-PVTZ
    Blend: AUG-CC-PVTZ
  Basis Set: (AUG-CC-PVTZ AUX)
    Blend: AUG-CC-PVTZ-JKFIT
	 Reference Energy          =    -188.2543945249599915 [Eh]
	 Singles Energy            =      -0.0000000000000000 [Eh]
	 Same-Spin Energy          =      -0.1818876759720591 [Eh]
	 Opposite-Spin Energy      =      -0.5256515394179240 [Eh]
	 Correlation Energy        =      -0.7075392153899831 [Eh]
	 Total Energy              =    -188.9619337403499628 [Eh]

	 ================> DF-SCS-MP2 Energies <==================
	-----------------------------------------------------------
	 SCS Same-Spin Scale       =       0.3333333333333333 [-]
	 SCS Opposite-Spin Scale   =       1.2000000000000000 [-]
	 SCS Same-Spin Energy      =      -0.0606292253240197 [Eh]
	 SCS Opposite-Spin Energy  =      -0.6307818473015088 [Eh]
	 SCS Correlation Energy    =      -0.6914110726255285 [Eh]
	 SCS Total Energy          =    -188.9458055975855189 [Eh]
	-----------------------------------------------------------

  Dipole Moment: [D]
     X:    -0.0000      Y:     0.4975      Z:    -0.0000     Total:     0.4975

*** Psi4 exiting successfully. Buy a developer a beer!
