                               Psi4 1.3.2 release

  ==> Input File <==

--------------------------------------------------------------------------
#psi4
#
memory 32 gb

molecule  {
-1 1
  O        1.1476120    -0.2089480     0.0000010
  O       -1.0866170    -0.3260397     0.0000001
  C       -0.0000020     0.3144140    -0.0000020
  H        0.0000020     1.4566920     0.0000040
units angstrom
no_reorient  #important for SAPT in psi4, default
symmetry c1  #important for SAPT in psi4, default
}

set PROPERTIES_ORIGIN ["COM"]
properties('MP2/aug-cc-pvtz', properties = ['dipole'])
--------------------------------------------------------------------------

    Molecular point group: c1
  Charge       = -1
  Multiplicity = 1
  Basis Set: AUG-CC-PVTZ
    Blend: AUG-CC-PVTZ
  Basis Set: (AUG-CC-PVTZ AUX)
    Blend: AUG-CC-PVTZ-JKFIT

    Orbital Energies [Eh]
    ---------------------

    Doubly Occupied:

       1A    -20.287187     2A    -20.284554     3A    -11.127187
       4A     -1.153047     5A     -1.049451     6A     -0.556415
       7A     -0.426987     8A     -0.380600     9A     -0.336957
      10A     -0.200105    11A     -0.195667    12A     -0.181393

  @DF-RHF Final Energy:  -188.27008037687196

   => Energetics <=

    Nuclear Repulsion Energy =             62.3140395958965740
    One-Electron Energy =                -388.8091380914828505
    Two-Electron Energy =                 138.2250181187143028
    Total Energy =                       -188.2700803768719595
  Basis Set: (AUG-CC-PVTZ AUX)
    Blend: AUG-CC-PVTZ-RI
    Molecular point group: c1

    Geometry (in Angstrom), charge = -1, multiplicity = 1:

       Center              X                  Y                   Z               Mass
    ------------   -----------------  -----------------  -----------------  -----------------
         O            1.125931140216    -0.135254738076     0.000001052765    15.994914619570
         O           -1.108297859784    -0.252346438076     0.000000152765    15.994914619570
         C           -0.021682859784     0.388107261924    -0.000001947235    12.000000000000
         H           -0.021678859784     1.530385261924     0.000004052765     1.007825032230

  Basis Set: AUG-CC-PVTZ
    Blend: AUG-CC-PVTZ
  Basis Set: (AUG-CC-PVTZ AUX)
    Blend: AUG-CC-PVTZ-JKFIT
	 Reference Energy          =    -188.2700803768719595 [Eh]
	 Singles Energy            =      -0.0000000000000000 [Eh]
	 Same-Spin Energy          =      -0.1811151649468069 [Eh]
	 Opposite-Spin Energy      =      -0.5234531544300577 [Eh]
	 Correlation Energy        =      -0.7045683193768646 [Eh]
	 Total Energy              =    -188.9746486962488348 [Eh]

	 ================> DF-SCS-MP2 Energies <==================
	-----------------------------------------------------------
	 SCS Same-Spin Scale       =       0.3333333333333333 [-]
	 SCS Opposite-Spin Scale   =       1.2000000000000000 [-]
	 SCS Same-Spin Energy      =      -0.0603717216489356 [Eh]
	 SCS Opposite-Spin Energy  =      -0.6281437853160692 [Eh]
	 SCS Correlation Energy    =      -0.6885155069650049 [Eh]
	 SCS Total Energy          =    -188.9585958838369777 [Eh]
	-----------------------------------------------------------

  Dipole Moment: [D]
     X:    -0.0752      Y:     1.4492      Z:    -0.0000     Total:     1.4511

*** Psi4 exiting successfully. Buy a developer a beer!
