                               Psi4 1.4a3.dev225

  ==> Input File <==

--------------------------------------------------------------------------
#psi4
#
memory 32 gb

molecule  {
-1 1
  O        0.0000000    -0.2135500     1.1409510
  O        0.0000000    -0.2135500    -1.1409510
  C        0.0000000     0.3271000     0.0000000
  H        0.0000000     1.4042070     0.0000000
units angstrom
no_reorient  #important for SAPT in psi4, default
symmetry c1  #important for SAPT in psi4, default
}

set PROPERTIES_ORIGIN ["COM"]
properties('MP2/aug-cc-pvtz', properties = ['dipole'])
--------------------------------------------------------------------------

    Molecular point group: c1
  Charge       = -1
  Multiplicity = 1
  Basis Set: AUG-CC-PVTZ
    Blend: AUG-CC-PVTZ
  Basis Set: (AUG-CC-PVTZ AUX)
    Blend: AUG-CC-PVTZ-JKFIT

    Orbital Energies [Eh]
    ---------------------

    Doubly Occupied:

       1A    -20.286849     2A    -20.286817     3A    -11.119365
       4A     -1.149958     5A     -1.053791     6A     -0.570264
       7A     -0.427989     8A     -0.382824     9A     -0.335825
      10A     -0.205756    11A     -0.192613    12A     -0.183507

  @DF-RHF Final Energy:  -188.27209638616384

   => Energetics <=

    Nuclear Repulsion Energy =             62.3028180906661930
    One-Electron Energy =                -388.7587113440379767
    Two-Electron Energy =                 138.1837968672079171
    Total Energy =                       -188.2720963861638381
  Basis Set: (AUG-CC-PVTZ AUX)
    Blend: AUG-CC-PVTZ-RI
    Molecular point group: c1

    Geometry (in Angstrom), charge = -1, multiplicity = 1:

       Center              X                  Y                   Z               Mass
    ------------   -----------------  -----------------  -----------------  -----------------
         O            0.000000000000    -0.180414204521     1.140951000000    15.994914619570
         O            0.000000000000    -0.180414204521    -1.140951000000    15.994914619570
         C            0.000000000000     0.360235795479     0.000000000000    12.000000000000
         H            0.000000000000     1.437342795479     0.000000000000     1.007825032230

  Basis Set: AUG-CC-PVTZ
    Blend: AUG-CC-PVTZ
  Basis Set: (AUG-CC-PVTZ AUX)
    Blend: AUG-CC-PVTZ-JKFIT
	 Reference Energy          =    -188.2720963861638381 [Eh]
	 Singles Energy            =      -0.0000000000000000 [Eh]
	 Same-Spin Energy          =      -0.1809171671207142 [Eh]
	 Opposite-Spin Energy      =      -0.5231903662075428 [Eh]
	 Correlation Energy        =      -0.7041075333282569 [Eh]
	 Total Energy              =    -188.9762039194920931 [Eh]

	 ================> DF-SCS-MP2 Energies <==================
	-----------------------------------------------------------
	 SCS Same-Spin Scale       =       0.3333333333333333 [-]
	 SCS Opposite-Spin Scale   =       1.2000000000000000 [-]
	 SCS Same-Spin Energy      =      -0.0603057223735714 [Eh]
	 SCS Opposite-Spin Energy  =      -0.6278284394490513 [Eh]
	 SCS Correlation Energy    =      -0.6881341618226227 [Eh]
	 SCS Total Energy          =    -188.9602305479864697 [Eh]
	-----------------------------------------------------------

  Dipole Moment: [D]
     X:     0.0000      Y:     1.4985      Z:     0.0000     Total:     1.4985

*** Psi4 exiting successfully. Buy a developer a beer!
