                               Psi4 1.3.2 release

  ==> Input File <==

--------------------------------------------------------------------------
#psi4
#
memory 32 gb

molecule  {
-1 1
  O        1.1476120    -0.2089480     0.0000010
  O       -1.1476100    -0.2089490     0.0000010
  C       -0.0000020     0.3144140    -0.0000020
  H        0.0000024     1.5566920     0.0000045
units angstrom
no_reorient  #important for SAPT in psi4, default
symmetry c1  #important for SAPT in psi4, default
}

set PROPERTIES_ORIGIN ["COM"]
properties('MP2/aug-cc-pvtz', properties = ['dipole'])
--------------------------------------------------------------------------

    Molecular point group: c1
  Charge       = -1
  Multiplicity = 1
  Basis Set: AUG-CC-PVTZ
    Blend: AUG-CC-PVTZ
  Basis Set: (AUG-CC-PVTZ AUX)
    Blend: AUG-CC-PVTZ-JKFIT

    Orbital Energies [Eh]
    ---------------------

    Doubly Occupied:

       1A    -20.297293     2A    -20.297260     3A    -11.144304
       4A     -1.156636     5A     -1.064826     6A     -0.535771
       7A     -0.424687     8A     -0.391264     9A     -0.344194
      10A     -0.214813    11A     -0.193168    12A     -0.185545

  @DF-RHF Final Energy:  -188.26571730665796

   => Energetics <=

    Nuclear Repulsion Energy =             61.6082796995666016
    One-Electron Energy =                -387.2484715196938510
    Two-Electron Energy =                 137.3744745134692948
    Total Energy =                       -188.2657173066579617
  Basis Set: (AUG-CC-PVTZ AUX)
    Blend: AUG-CC-PVTZ-RI
    Molecular point group: c1

    Geometry (in Angstrom), charge = -1, multiplicity = 1:

       Center              X                  Y                   Z               Mass
    ------------   -----------------  -----------------  -----------------  -----------------
         O            1.147611768686    -0.179115652260     0.000000721651    15.994914619570
         O           -1.147610231314    -0.179116652260     0.000000721651    15.994914619570
         C           -0.000002231314     0.344246347740    -0.000002278349    12.000000000000
         H            0.000002168686     1.586524347740     0.000004221651     1.007825032230

  Basis Set: AUG-CC-PVTZ
    Blend: AUG-CC-PVTZ
  Basis Set: (AUG-CC-PVTZ AUX)
    Blend: AUG-CC-PVTZ-JKFIT
	 Reference Energy          =    -188.2657173066579617 [Eh]
	 Singles Energy            =      -0.0000000000000000 [Eh]
	 Same-Spin Energy          =      -0.1814542248218135 [Eh]
	 Opposite-Spin Energy      =      -0.5243875405256624 [Eh]
	 Correlation Energy        =      -0.7058417653474759 [Eh]
	 Total Energy              =    -188.9715590720054479 [Eh]

	 ================> DF-SCS-MP2 Energies <==================
	-----------------------------------------------------------
	 SCS Same-Spin Scale       =       0.3333333333333333 [-]
	 SCS Opposite-Spin Scale   =       1.2000000000000000 [-]
	 SCS Same-Spin Energy      =      -0.0604847416072712 [Eh]
	 SCS Opposite-Spin Energy  =      -0.6292650486307948 [Eh]
	 SCS Correlation Energy    =      -0.6897497902380659 [Eh]
	 SCS Total Energy          =    -188.9554670968960295 [Eh]
	-----------------------------------------------------------

  Dipole Moment: [D]
     X:    -0.0000      Y:     0.9098      Z:    -0.0000     Total:     0.9098

*** Psi4 exiting successfully. Buy a developer a beer!
