                               Psi4 1.3.2 release

  ==> Input File <==

--------------------------------------------------------------------------
#psi4
#
memory 32 gb

molecule  {
-1 1
  O        1.1476120    -0.2089480     0.0000010
  O       -1.1476100    -0.2089490     0.0000010
  C       -0.0000020     0.3144140    -0.0000020
  H        0.0000013     1.2566920     0.0000029
units angstrom
no_reorient  #important for SAPT in psi4, default
symmetry c1  #important for SAPT in psi4, default
}

set PROPERTIES_ORIGIN ["COM"]
properties('MP2/aug-cc-pvtz', properties = ['dipole'])
--------------------------------------------------------------------------

    Molecular point group: c1
  Charge       = -1
  Multiplicity = 1
  Basis Set: AUG-CC-PVTZ
    Blend: AUG-CC-PVTZ
  Basis Set: (AUG-CC-PVTZ AUX)
    Blend: AUG-CC-PVTZ-JKFIT

    Orbital Energies [Eh]
    ---------------------

    Doubly Occupied:

       1A    -20.282743     2A    -20.282712     3A    -11.098618
       4A     -1.148330     5A     -1.052413     6A     -0.609682
       7A     -0.429300     8A     -0.381183     9A     -0.332941
      10A     -0.205039    11A     -0.193398    12A     -0.180764

  @DF-RHF Final Energy:  -188.25105818128750

   => Energetics <=

    Nuclear Repulsion Energy =             62.9497660790921927
    One-Electron Energy =                -390.0073983868717278
    Two-Electron Energy =                 138.8065741264920518
    Total Energy =                       -188.2510581812875046
  Basis Set: (AUG-CC-PVTZ AUX)
    Blend: AUG-CC-PVTZ-RI
    Molecular point group: c1

    Geometry (in Angstrom), charge = -1, multiplicity = 1:

       Center              X                  Y                   Z               Mass
    ------------   -----------------  -----------------  -----------------  -----------------
         O            1.147611793323    -0.172396468459     0.000000757487    15.994914619570
         O           -1.147610206677    -0.172397468459     0.000000757487    15.994914619570
         C           -0.000002206677     0.350965531541    -0.000002242513    12.000000000000
         H            0.000001093323     1.293243531541     0.000002657487     1.007825032230

  Basis Set: AUG-CC-PVTZ
    Blend: AUG-CC-PVTZ
  Basis Set: (AUG-CC-PVTZ AUX)
    Blend: AUG-CC-PVTZ-JKFIT
	 Reference Energy          =    -188.2510581812875046 [Eh]
	 Singles Energy            =      -0.0000000000000000 [Eh]
	 Same-Spin Energy          =      -0.1806483966741077 [Eh]
	 Opposite-Spin Energy      =      -0.5229538944589071 [Eh]
	 Correlation Energy        =      -0.7036022911330148 [Eh]
	 Total Energy              =    -188.9546604724205281 [Eh]

	 ================> DF-SCS-MP2 Energies <==================
	-----------------------------------------------------------
	 SCS Same-Spin Scale       =       0.3333333333333333 [-]
	 SCS Opposite-Spin Scale   =       1.2000000000000000 [-]
	 SCS Same-Spin Energy      =      -0.0602161322247026 [Eh]
	 SCS Opposite-Spin Energy  =      -0.6275446733506884 [Eh]
	 SCS Correlation Energy    =      -0.6877608055753910 [Eh]
	 SCS Total Energy          =    -188.9388189868628842 [Eh]
	-----------------------------------------------------------

  Dipole Moment: [D]
     X:    -0.0000      Y:     1.7347      Z:    -0.0000     Total:     1.7347

*** Psi4 exiting successfully. Buy a developer a beer!
