                               Psi4 1.4a3.dev225

  ==> Input File <==

--------------------------------------------------------------------------
#psi4
#
memory 32 gb

molecule  {
-1 1
  O        0.0000000    -0.2135500     1.1409510
  O        0.0000000    -0.2135500    -1.1409510
  C        0.0000000     0.3271000     0.0000000
  H        0.0000000     1.4742070     0.0000000
units angstrom
no_reorient  #important for SAPT in psi4, default
symmetry c1  #important for SAPT in psi4, default
}

set PROPERTIES_ORIGIN ["COM"]
properties('MP2/aug-cc-pvtz', properties = ['dipole'])
--------------------------------------------------------------------------

    Molecular point group: c1
  Charge       = -1
  Multiplicity = 1
  Basis Set: AUG-CC-PVTZ
    Blend: AUG-CC-PVTZ
  Basis Set: (AUG-CC-PVTZ AUX)
    Blend: AUG-CC-PVTZ-JKFIT

    Orbital Energies [Eh]
    ---------------------

    Doubly Occupied:

       1A    -20.290303     2A    -20.290270     3A    -11.129948
       4A     -1.152062     5A     -1.056731     6A     -0.553512
       7A     -0.426834     8A     -0.385220     9A     -0.338503
      10A     -0.208085    11A     -0.190845    12A     -0.186450

  @DF-RHF Final Energy:  -188.27194741581857

   => Energetics <=

    Nuclear Repulsion Energy =             62.0020014723606820
    One-Electron Energy =                -388.1303737919665195
    Two-Electron Energy =                 137.8564249037872571
    Total Energy =                       -188.2719474158185733
  Basis Set: (AUG-CC-PVTZ AUX)
    Blend: AUG-CC-PVTZ-RI
    Molecular point group: c1

    Geometry (in Angstrom), charge = -1, multiplicity = 1:

       Center              X                  Y                   Z               Mass
    ------------   -----------------  -----------------  -----------------  -----------------
         O            0.000000000000    -0.181982014074     1.140951000000    15.994914619570
         O            0.000000000000    -0.181982014074    -1.140951000000    15.994914619570
         C            0.000000000000     0.358667985926     0.000000000000    12.000000000000
         H            0.000000000000     1.505774985926     0.000000000000     1.007825032230

  Basis Set: AUG-CC-PVTZ
    Blend: AUG-CC-PVTZ
  Basis Set: (AUG-CC-PVTZ AUX)
    Blend: AUG-CC-PVTZ-JKFIT
	 Reference Energy          =    -188.2719474158185733 [Eh]
	 Singles Energy            =      -0.0000000000000000 [Eh]
	 Same-Spin Energy          =      -0.1811272106277699 [Eh]
	 Opposite-Spin Energy      =      -0.5235888448985757 [Eh]
	 Correlation Energy        =      -0.7047160555263456 [Eh]
	 Total Energy              =    -188.9766634713449207 [Eh]

	 ================> DF-SCS-MP2 Energies <==================
	-----------------------------------------------------------
	 SCS Same-Spin Scale       =       0.3333333333333333 [-]
	 SCS Opposite-Spin Scale   =       1.2000000000000000 [-]
	 SCS Same-Spin Energy      =      -0.0603757368759233 [Eh]
	 SCS Opposite-Spin Energy  =      -0.6283066138782908 [Eh]
	 SCS Correlation Energy    =      -0.6886823507542141 [Eh]
	 SCS Total Energy          =    -188.9606297665727936 [Eh]
	-----------------------------------------------------------

  Dipole Moment: [D]
     X:     0.0000      Y:     1.3019      Z:     0.0000     Total:     1.3019

*** Psi4 exiting successfully. Buy a developer a beer!
