                               Psi4 1.4a3.dev225

  ==> Input File <==

--------------------------------------------------------------------------
#psi4
#
memory 32 gb

molecule  {
-1 1
  O        0.0000000    -0.2135500     1.1409510
  O        0.0000000    -0.2135500    -1.1409510
  C        0.0000000     0.3271000     0.0000000
  H        0.0000000     1.5042070     0.0000000
units angstrom
no_reorient  #important for SAPT in psi4, default
symmetry c1  #important for SAPT in psi4, default
}

set PROPERTIES_ORIGIN ["COM"]
properties('MP2/aug-cc-pvtz', properties = ['dipole'])
--------------------------------------------------------------------------

    Molecular point group: c1
  Charge       = -1
  Multiplicity = 1
  Basis Set: AUG-CC-PVTZ
    Blend: AUG-CC-PVTZ
  Basis Set: (AUG-CC-PVTZ AUX)
    Blend: AUG-CC-PVTZ-JKFIT

    Orbital Energies [Eh]
    ---------------------

    Doubly Occupied:

       1A    -20.291959     2A    -20.291926     3A    -11.134420
       4A     -1.153156     5A     -1.058129     6A     -0.547392
       7A     -0.426165     8A     -0.386381     9A     -0.339796
      10A     -0.209198    11A     -0.190018    12A     -0.187853

  @DF-RHF Final Energy:  -188.27047327071440

   => Energetics <=

    Nuclear Repulsion Energy =             61.8812302638499574
    One-Electron Energy =                -387.8706212690871666
    Two-Electron Energy =                 137.7189177345228188
    Total Energy =                       -188.2704732707144046
  Basis Set: (AUG-CC-PVTZ AUX)
    Blend: AUG-CC-PVTZ-RI
    Molecular point group: c1

    Geometry (in Angstrom), charge = -1, multiplicity = 1:

       Center              X                  Y                   Z               Mass
    ------------   -----------------  -----------------  -----------------  -----------------
         O            0.000000000000    -0.182653932454     1.140951000000    15.994914619570
         O            0.000000000000    -0.182653932454    -1.140951000000    15.994914619570
         C            0.000000000000     0.357996067546     0.000000000000    12.000000000000
         H            0.000000000000     1.535103067546     0.000000000000     1.007825032230

  Basis Set: AUG-CC-PVTZ
    Blend: AUG-CC-PVTZ
  Basis Set: (AUG-CC-PVTZ AUX)
    Blend: AUG-CC-PVTZ-JKFIT
	 Reference Energy          =    -188.2704732707144046 [Eh]
	 Singles Energy            =      -0.0000000000000000 [Eh]
	 Same-Spin Energy          =      -0.1812324943685081 [Eh]
	 Opposite-Spin Energy      =      -0.5238261985947869 [Eh]
	 Correlation Energy        =      -0.7050586929632949 [Eh]
	 Total Energy              =    -188.9755319636776960 [Eh]

	 ================> DF-SCS-MP2 Energies <==================
	-----------------------------------------------------------
	 SCS Same-Spin Scale       =       0.3333333333333333 [-]
	 SCS Opposite-Spin Scale   =       1.2000000000000000 [-]
	 SCS Same-Spin Energy      =      -0.0604108314561694 [Eh]
	 SCS Opposite-Spin Energy  =      -0.6285914383137442 [Eh]
	 SCS Correlation Energy    =      -0.6890022697699135 [Eh]
	 SCS Total Energy          =    -188.9594755404843056 [Eh]
	-----------------------------------------------------------

  Dipole Moment: [D]
     X:    -0.0000      Y:     1.2071      Z:    -0.0000     Total:     1.2071

*** Psi4 exiting successfully. Buy a developer a beer!
