                               Psi4 1.3.2 release

  ==> Input File <==

--------------------------------------------------------------------------
#psi4
#
memory 32 gb

molecule  {
-1 1
  O        1.1476120    -0.2089480     0.0000010
  O       -1.1286458    -0.2486811     0.0000007
  C       -0.0000020     0.3144140    -0.0000020
  H        0.0000020     1.4566920     0.0000040
units angstrom
no_reorient  #important for SAPT in psi4, default
symmetry c1  #important for SAPT in psi4, default
}

set PROPERTIES_ORIGIN ["COM"]
properties('MP2/aug-cc-pvtz', properties = ['dipole'])
--------------------------------------------------------------------------

    Molecular point group: c1
  Charge       = -1
  Multiplicity = 1
  Basis Set: AUG-CC-PVTZ
    Blend: AUG-CC-PVTZ
  Basis Set: (AUG-CC-PVTZ AUX)
    Blend: AUG-CC-PVTZ-JKFIT

    Orbital Energies [Eh]
    ---------------------

    Doubly Occupied:

       1A    -20.289932     2A    -20.289052     3A    -11.128601
       4A     -1.152613     5A     -1.056430     6A     -0.554441
       7A     -0.427191     8A     -0.384953     9A     -0.338610
      10A     -0.207304    11A     -0.191183    12A     -0.185919

  @DF-RHF Final Energy:  -188.27225906615416

   => Energetics <=

    Nuclear Repulsion Energy =             62.0950645290222738
    One-Electron Energy =                -388.3221890407107821
    Two-Electron Energy =                 137.9548654455343240
    Total Energy =                       -188.2722590661541631
  Basis Set: (AUG-CC-PVTZ AUX)
    Blend: AUG-CC-PVTZ-RI
    Molecular point group: c1

    Geometry (in Angstrom), charge = -1, multiplicity = 1:

       Center              X                  Y                   Z               Mass
    ------------   -----------------  -----------------  -----------------  -----------------
         O            1.140870742701    -0.162752709296     0.000000839488    15.994914619570
         O           -1.135387057299    -0.202485809296     0.000000539488    15.994914619570
         C           -0.006743257299     0.360609290704    -0.000002160512    12.000000000000
         H           -0.006739257299     1.502887290704     0.000003839488     1.007825032230

  Basis Set: AUG-CC-PVTZ
    Blend: AUG-CC-PVTZ
  Basis Set: (AUG-CC-PVTZ AUX)
    Blend: AUG-CC-PVTZ-JKFIT
	 Reference Energy          =    -188.2722590661541631 [Eh]
	 Singles Energy            =      -0.0000000000000000 [Eh]
	 Same-Spin Energy          =      -0.1810643404954435 [Eh]
	 Opposite-Spin Energy      =      -0.5234162581499556 [Eh]
	 Correlation Energy        =      -0.7044805986453991 [Eh]
	 Total Energy              =    -188.9767396647995668 [Eh]

	 ================> DF-SCS-MP2 Energies <==================
	-----------------------------------------------------------
	 SCS Same-Spin Scale       =       0.3333333333333333 [-]
	 SCS Opposite-Spin Scale   =       1.2000000000000000 [-]
	 SCS Same-Spin Energy      =      -0.0603547801651478 [Eh]
	 SCS Opposite-Spin Energy  =      -0.6280995097799468 [Eh]
	 SCS Correlation Energy    =      -0.6884542899450946 [Eh]
	 SCS Total Energy          =    -188.9607133560992622 [Eh]
	-----------------------------------------------------------

  Dipole Moment: [D]
     X:    -0.0233      Y:     1.3220      Z:    -0.0000     Total:     1.3223

*** Psi4 exiting successfully. Buy a developer a beer!
