                               Psi4 1.3.2 release

  ==> Input File <==

--------------------------------------------------------------------------
#psi4
#
memory 32 gb

molecule  {
-1 1
  O        1.1476120    -0.2089480     0.0000010
  O       -1.1383013    -0.2288978     0.0000008
  C       -0.0000020     0.3144140    -0.0000020
  H        0.0000020     1.4566920     0.0000040
units angstrom
no_reorient  #important for SAPT in psi4, default
symmetry c1  #important for SAPT in psi4, default
}

set PROPERTIES_ORIGIN ["COM"]
properties('MP2/aug-cc-pvtz', properties = ['dipole'])
--------------------------------------------------------------------------

    Molecular point group: c1
  Charge       = -1
  Multiplicity = 1
  Basis Set: AUG-CC-PVTZ
    Blend: AUG-CC-PVTZ
  Basis Set: (AUG-CC-PVTZ AUX)
    Blend: AUG-CC-PVTZ-JKFIT

    Orbital Energies [Eh]
    ---------------------

    Doubly Occupied:

       1A    -20.290592     2A    -20.290151     3A    -11.128968
       4A     -1.152560     5A     -1.058104     6A     -0.553968
       7A     -0.427236     8A     -0.385985     9A     -0.339037
      10A     -0.209067    11A     -0.189896    12A     -0.187009

  @DF-RHF Final Energy:  -188.27238434832282

   => Energetics <=

    Nuclear Repulsion Energy =             62.0451975217226135
    One-Electron Energy =                -388.2100164963160296
    Two-Electron Energy =                 137.8924346262705853
    Total Energy =                       -188.2723843483228165
  Basis Set: (AUG-CC-PVTZ AUX)
    Blend: AUG-CC-PVTZ-RI
    Molecular point group: c1

    Geometry (in Angstrom), charge = -1, multiplicity = 1:

       Center              X                  Y                   Z               Mass
    ------------   -----------------  -----------------  -----------------  -----------------
         O            1.144302897123    -0.169784902407     0.000000803942    15.994914619570
         O           -1.141610402877    -0.189734702407     0.000000603942    15.994914619570
         C           -0.003311102877     0.353577097593    -0.000002196058    12.000000000000
         H           -0.003307102877     1.495855097593     0.000003803942     1.007825032230

  Basis Set: AUG-CC-PVTZ
    Blend: AUG-CC-PVTZ
  Basis Set: (AUG-CC-PVTZ AUX)
    Blend: AUG-CC-PVTZ-JKFIT
	 Reference Energy          =    -188.2723843483228165 [Eh]
	 Singles Energy            =      -0.0000000000000000 [Eh]
	 Same-Spin Energy          =      -0.1810682762988174 [Eh]
	 Opposite-Spin Energy      =      -0.5234401572132340 [Eh]
	 Correlation Energy        =      -0.7045084335120514 [Eh]
	 Total Energy              =    -188.9768927818348629 [Eh]

	 ================> DF-SCS-MP2 Energies <==================
	-----------------------------------------------------------
	 SCS Same-Spin Scale       =       0.3333333333333333 [-]
	 SCS Opposite-Spin Scale   =       1.2000000000000000 [-]
	 SCS Same-Spin Energy      =      -0.0603560920996058 [Eh]
	 SCS Opposite-Spin Energy  =      -0.6281281886558808 [Eh]
	 SCS Correlation Energy    =      -0.6884842807554866 [Eh]
	 SCS Total Energy          =    -188.9608686290783055 [Eh]
	-----------------------------------------------------------

  Dipole Moment: [D]
     X:    -0.0114      Y:     1.2890      Z:    -0.0000     Total:     1.2890

*** Psi4 exiting successfully. Buy a developer a beer!
