                               Psi4 1.4a3.dev225

  ==> Input File <==

--------------------------------------------------------------------------
#psi4
#
memory 32 gb

molecule  {
-1 1
  O        0.0000000    -0.2135500     1.1409510
  O        0.0000000    -0.2135500    -1.1409510
  C        0.0000000     0.3271000     0.0000000
  H        0.0000000     1.4342070     0.0000000
units angstrom
no_reorient  #important for SAPT in psi4, default
symmetry c1  #important for SAPT in psi4, default
}

set PROPERTIES_ORIGIN ["COM"]
properties('MP2/aug-cc-pvtz', properties = ['dipole'])
--------------------------------------------------------------------------

    Molecular point group: c1
  Charge       = -1
  Multiplicity = 1
  Basis Set: AUG-CC-PVTZ
    Blend: AUG-CC-PVTZ
  Basis Set: (AUG-CC-PVTZ AUX)
    Blend: AUG-CC-PVTZ-JKFIT

    Orbital Energies [Eh]
    ---------------------

    Doubly Occupied:

       1A    -20.288259     2A    -20.288227     3A    -11.123921
       4A     -1.150781     5A     -1.054996     6A     -0.562666
       7A     -0.427560     8A     -0.383797     9A     -0.336915
      10A     -0.206709    11A     -0.191880    12A     -0.184712

  @DF-RHF Final Energy:  -188.27267985683721

   => Energetics <=

    Nuclear Repulsion Energy =             62.1704638285420614
    One-Electron Energy =                -388.4854418109211451
    Two-Electron Energy =                 138.0422981255418904
    Total Energy =                       -188.2726798568372146
  Basis Set: (AUG-CC-PVTZ AUX)
    Blend: AUG-CC-PVTZ-RI
    Molecular point group: c1

    Geometry (in Angstrom), charge = -1, multiplicity = 1:

       Center              X                  Y                   Z               Mass
    ------------   -----------------  -----------------  -----------------  -----------------
         O            0.000000000000    -0.181086122901     1.140951000000    15.994914619570
         O            0.000000000000    -0.181086122901    -1.140951000000    15.994914619570
         C            0.000000000000     0.359563877099     0.000000000000    12.000000000000
         H            0.000000000000     1.466670877099     0.000000000000     1.007825032230

  Basis Set: AUG-CC-PVTZ
    Blend: AUG-CC-PVTZ
  Basis Set: (AUG-CC-PVTZ AUX)
    Blend: AUG-CC-PVTZ-JKFIT
	 Reference Energy          =    -188.2726798568372146 [Eh]
	 Singles Energy            =      -0.0000000000000000 [Eh]
	 Same-Spin Energy          =      -0.1810005281850018 [Eh]
	 Opposite-Spin Energy      =      -0.5233339024286223 [Eh]
	 Correlation Energy        =      -0.7043344306136241 [Eh]
	 Total Energy              =    -188.9770142874508281 [Eh]

	 ================> DF-SCS-MP2 Energies <==================
	-----------------------------------------------------------
	 SCS Same-Spin Scale       =       0.3333333333333333 [-]
	 SCS Opposite-Spin Scale   =       1.2000000000000000 [-]
	 SCS Same-Spin Energy      =      -0.0603335093950006 [Eh]
	 SCS Opposite-Spin Energy  =      -0.6280006829143467 [Eh]
	 SCS Correlation Energy    =      -0.6883341923093473 [Eh]
	 SCS Total Energy          =    -188.9610140491465700 [Eh]
	-----------------------------------------------------------

  Dipole Moment: [D]
     X:    -0.0000      Y:     1.4185      Z:     0.0000     Total:     1.4185

*** Psi4 exiting successfully. Buy a developer a beer!
