                               Psi4 1.3.2 release

  ==> Input File <==

--------------------------------------------------------------------------
#psi4
#
memory 32 gb

molecule  {
-1 1
  O        1.1476120    -0.2089480     0.0000010
  O       -1.1476100    -0.2089490     0.0000010
  C       -0.0000020     0.3144140    -0.0000020
  H        0.0000016     1.3566920     0.0000035
units angstrom
no_reorient  #important for SAPT in psi4, default
symmetry c1  #important for SAPT in psi4, default
}

set PROPERTIES_ORIGIN ["COM"]
properties('MP2/aug-cc-pvtz', properties = ['dipole'])
--------------------------------------------------------------------------

    Molecular point group: c1
  Charge       = -1
  Multiplicity = 1
  Basis Set: AUG-CC-PVTZ
    Blend: AUG-CC-PVTZ
  Basis Set: (AUG-CC-PVTZ AUX)
    Blend: AUG-CC-PVTZ-JKFIT

    Orbital Energies [Eh]
    ---------------------

    Doubly Occupied:

       1A    -20.286412     2A    -20.286381     3A    -11.113952
       4A     -1.149726     5A     -1.055619     6A     -0.578333
       7A     -0.428713     8A     -0.383630     9A     -0.335720
      10A     -0.207545    11A     -0.191106    12A     -0.183966

  @DF-RHF Final Energy:  -188.26990691304630

   => Energetics <=

    Nuclear Repulsion Energy =             62.4396981951320100
    One-Electron Energy =                -389.0170020993964499
    Two-Electron Energy =                 138.3073969912181553
    Total Energy =                       -188.2699069130462988
  Basis Set: (AUG-CC-PVTZ AUX)
    Blend: AUG-CC-PVTZ-RI
    Molecular point group: c1

    Geometry (in Angstrom), charge = -1, multiplicity = 1:

       Center              X                  Y                   Z               Mass
    ------------   -----------------  -----------------  -----------------  -----------------
         O            1.147611786603    -0.174636196393     0.000000744049    15.994914619570
         O           -1.147610213397    -0.174637196393     0.000000744049    15.994914619570
         C           -0.000002213397     0.348725803607    -0.000002255951    12.000000000000
         H            0.000001386603     1.391003803607     0.000003244049     1.007825032230

  Basis Set: AUG-CC-PVTZ
    Blend: AUG-CC-PVTZ
  Basis Set: (AUG-CC-PVTZ AUX)
    Blend: AUG-CC-PVTZ-JKFIT
	 Reference Energy          =    -188.2699069130462988 [Eh]
	 Singles Energy            =      -0.0000000000000000 [Eh]
	 Same-Spin Energy          =      -0.1807987979624624 [Eh]
	 Opposite-Spin Energy      =      -0.5229921861711648 [Eh]
	 Correlation Energy        =      -0.7037909841336273 [Eh]
	 Total Energy              =    -188.9736978971799317 [Eh]

	 ================> DF-SCS-MP2 Energies <==================
	-----------------------------------------------------------
	 SCS Same-Spin Scale       =       0.3333333333333333 [-]
	 SCS Opposite-Spin Scale   =       1.2000000000000000 [-]
	 SCS Same-Spin Energy      =      -0.0602662659874875 [Eh]
	 SCS Opposite-Spin Energy  =      -0.6275906234053977 [Eh]
	 SCS Correlation Energy    =      -0.6878568893928853 [Eh]
	 SCS Total Energy          =    -188.9577638024391888 [Eh]
	-----------------------------------------------------------

  Dipole Moment: [D]
     X:    -0.0000      Y:     1.5302      Z:    -0.0000     Total:     1.5302

*** Psi4 exiting successfully. Buy a developer a beer!
