                               Psi4 1.3.2 release

  ==> Input File <==

--------------------------------------------------------------------------
#psi4
#
memory 32 gb

molecule  {
-1 1
  O        1.1476120    -0.2089480     0.0000010
  O       -1.1083065    -0.2877272     0.0000004
  C       -0.0000020     0.3144140    -0.0000020
  H        0.0000020     1.4566920     0.0000040
units angstrom
no_reorient  #important for SAPT in psi4, default
symmetry c1  #important for SAPT in psi4, default
}

set PROPERTIES_ORIGIN ["COM"]
properties('MP2/aug-cc-pvtz', properties = ['dipole'])
--------------------------------------------------------------------------

    Molecular point group: c1
  Charge       = -1
  Multiplicity = 1
  Basis Set: AUG-CC-PVTZ
    Blend: AUG-CC-PVTZ
  Basis Set: (AUG-CC-PVTZ AUX)
    Blend: AUG-CC-PVTZ-JKFIT

    Orbital Energies [Eh]
    ---------------------

    Doubly Occupied:

       1A    -20.288581     2A    -20.286823     3A    -11.127883
       4A     -1.152784     5A     -1.052998     6A     -0.555412
       7A     -0.427095     8A     -0.382822     9A     -0.337773
      10A     -0.203688    11A     -0.193604    12A     -0.183689

  @DF-RHF Final Energy:  -188.27150752569025

   => Energetics <=

    Nuclear Repulsion Energy =             62.2005996472286853
    One-Electron Energy =                -388.5579098745542410
    Two-Electron Energy =                 138.0858027016353162
    Total Energy =                       -188.2715075256902537
  Basis Set: (AUG-CC-PVTZ AUX)
    Blend: AUG-CC-PVTZ-RI
    Molecular point group: c1

    Geometry (in Angstrom), charge = -1, multiplicity = 1:

       Center              X                  Y                   Z               Mass
    ------------   -----------------  -----------------  -----------------  -----------------
         O            1.133640913231    -0.148873340563     0.000000946127    15.994914619570
         O           -1.122277586769    -0.227652540563     0.000000346127    15.994914619570
         C           -0.013973086769     0.374488659437    -0.000002053873    12.000000000000
         H           -0.013969086769     1.516766659437     0.000003946127     1.007825032230

  Basis Set: AUG-CC-PVTZ
    Blend: AUG-CC-PVTZ
  Basis Set: (AUG-CC-PVTZ AUX)
    Blend: AUG-CC-PVTZ-JKFIT
	 Reference Energy          =    -188.2715075256902537 [Eh]
	 Singles Energy            =      -0.0000000000000000 [Eh]
	 Same-Spin Energy          =      -0.1810763701599702 [Eh]
	 Opposite-Spin Energy      =      -0.5234078205501936 [Eh]
	 Correlation Energy        =      -0.7044841907101638 [Eh]
	 Total Energy              =    -188.9759917164004150 [Eh]

	 ================> DF-SCS-MP2 Energies <==================
	-----------------------------------------------------------
	 SCS Same-Spin Scale       =       0.3333333333333333 [-]
	 SCS Opposite-Spin Scale   =       1.2000000000000000 [-]
	 SCS Same-Spin Energy      =      -0.0603587900533234 [Eh]
	 SCS Opposite-Spin Energy  =      -0.6280893846602323 [Eh]
	 SCS Correlation Energy    =      -0.6884481747135558 [Eh]
	 SCS Total Energy          =    -188.9599557004038104 [Eh]
	-----------------------------------------------------------

  Dipole Moment: [D]
     X:    -0.0484      Y:     1.3867      Z:    -0.0000     Total:     1.3875

*** Psi4 exiting successfully. Buy a developer a beer!
