                               Psi4 1.3.2 release

  ==> Input File <==

--------------------------------------------------------------------------
#psi4
#
memory 32 gb

molecule  {
-1 1
  O        1.1476120    -0.2089480     0.0000010
  O       -1.1651760    -0.1685792     0.0000013
  C       -0.0000020     0.3144140    -0.0000020
  H        0.0000020     1.4566920     0.0000040
units angstrom
no_reorient  #important for SAPT in psi4, default
symmetry c1  #important for SAPT in psi4, default
}

set PROPERTIES_ORIGIN ["COM"]
properties('MP2/aug-cc-pvtz', properties = ['dipole'])
--------------------------------------------------------------------------

    Molecular point group: c1
  Charge       = -1
  Multiplicity = 1
  Basis Set: AUG-CC-PVTZ
    Blend: AUG-CC-PVTZ
  Basis Set: (AUG-CC-PVTZ AUX)
    Blend: AUG-CC-PVTZ-JKFIT

    Orbital Energies [Eh]
    ---------------------

    Doubly Occupied:

       1A    -20.293392     2A    -20.292517     3A    -11.130100
       4A     -1.152528     5A     -1.062970     6A     -0.552602
       7A     -0.427377     8A     -0.388942     9A     -0.340344
      10A     -0.214143    11A     -0.190188    12A     -0.185750

  @DF-RHF Final Energy:  -188.27176775577490

   => Energetics <=

    Nuclear Repulsion Energy =             61.9069295801536938
    One-Electron Energy =                -387.8956880651315942
    Two-Electron Energy =                 137.7169907292029905
    Total Energy =                       -188.2717677557749028
  Basis Set: (AUG-CC-PVTZ AUX)
    Blend: AUG-CC-PVTZ-RI
    Molecular point group: c1

    Geometry (in Angstrom), charge = -1, multiplicity = 1:

       Center              X                  Y                   Z               Mass
    ------------   -----------------  -----------------  -----------------  -----------------
         O            1.153855806911    -0.191225816886     0.000000626212    15.994914619570
         O           -1.158932193089    -0.150857016886     0.000000926212    15.994914619570
         C            0.006241806911     0.332136183114    -0.000002373788    12.000000000000
         H            0.006245806911     1.474414183114     0.000003626212     1.007825032230

  Basis Set: AUG-CC-PVTZ
    Blend: AUG-CC-PVTZ
  Basis Set: (AUG-CC-PVTZ AUX)
    Blend: AUG-CC-PVTZ-JKFIT
	 Reference Energy          =    -188.2717677557749028 [Eh]
	 Singles Energy            =      -0.0000000000000000 [Eh]
	 Same-Spin Energy          =      -0.1811197265618379 [Eh]
	 Opposite-Spin Energy      =      -0.5235885693875477 [Eh]
	 Correlation Energy        =      -0.7047082959493857 [Eh]
	 Total Energy              =    -188.9764760517242905 [Eh]

	 ================> DF-SCS-MP2 Energies <==================
	-----------------------------------------------------------
	 SCS Same-Spin Scale       =       0.3333333333333333 [-]
	 SCS Opposite-Spin Scale   =       1.2000000000000000 [-]
	 SCS Same-Spin Energy      =      -0.0603732421872793 [Eh]
	 SCS Opposite-Spin Energy  =      -0.6283062832650572 [Eh]
	 SCS Correlation Energy    =      -0.6886795254523366 [Eh]
	 SCS Total Energy          =    -188.9604472812272320 [Eh]
	-----------------------------------------------------------

  Dipole Moment: [D]
     X:     0.0213      Y:     1.1870      Z:    -0.0000     Total:     1.1872

*** Psi4 exiting successfully. Buy a developer a beer!
