                               Psi4 1.3.2 release

  ==> Input File <==

--------------------------------------------------------------------------
#psi4
#
memory 32 gb

molecule  {
0 1
  S        1.2258560    -1.1625810    -0.0000180
  N        0.3264180     1.2510610     0.0000150
  C       -1.5198050    -0.4073720    -0.0000100
  C       -0.0728400    -0.0059560    -0.0000040
  C       -2.2053760     0.1167870    -1.2644160
  C       -2.2053680     0.1167230     1.2644280
  C        2.3605110     0.1219000     0.0000040
  C        1.6961240     1.3252530     0.0000200
  H       -1.5697880    -1.5042720    -0.0000380
  H       -2.1392250     1.2073760    -1.2930360
  H       -3.2606770    -0.1742520    -1.2762350
  H       -1.7266260    -0.2804090    -2.1642060
  H       -1.7266100    -0.2805170     2.1641940
  H       -3.2606680    -0.1743180     1.2762400
  H       -2.1392170     1.2073110     1.2931010
  H        3.4272512    -0.0583765    -0.0999970
  H        2.1774630     2.2973190     0.0000360
units angstrom
no_reorient  #important for SAPT in psi4, default
symmetry c1  #important for SAPT in psi4, default
}

set PROPERTIES_ORIGIN ["COM"]
properties('MP2/aug-cc-pvtz', properties = ['dipole'])
--------------------------------------------------------------------------

    Molecular point group: c1
  Charge       = 0
  Multiplicity = 1
  Basis Set: AUG-CC-PVTZ
    Blend: AUG-CC-PVTZ
  Basis Set: (AUG-CC-PVTZ AUX)
    Blend: AUG-CC-PVTZ-JKFIT

    Orbital Energies [Eh]
    ---------------------

    Doubly Occupied:

       1A    -91.993929     2A    -15.563953     3A    -11.310107
       4A    -11.269044     5A    -11.260713     6A    -11.249448
       7A    -11.219488     8A    -11.219218     9A     -8.994571
      10A     -6.675471    11A     -6.674959    12A     -6.674247
      13A     -1.274769    14A     -1.094595    15A     -1.061096
      16A     -0.980833    17A     -0.935822    18A     -0.840147
      19A     -0.792188    20A     -0.716383    21A     -0.682895
      22A     -0.625184    23A     -0.601654    24A     -0.586888
      25A     -0.566787    26A     -0.545532    27A     -0.531215
      28A     -0.504210    29A     -0.499230    30A     -0.487394
      31A     -0.483118    32A     -0.422098    33A     -0.386869
      34A     -0.327852

  @DF-RHF Final Energy:  -684.53315216178703

   => Energetics <=

    Nuclear Repulsion Energy =            437.5124797074784055
    One-Electron Energy =               -1805.9874483078826870
    Two-Electron Energy =                 683.9418164386172521
    Total Energy =                       -684.5331521617870294
  Basis Set: (AUG-CC-PVTZ AUX)
    Blend: AUG-CC-PVTZ-RI
    Molecular point group: c1

    Geometry (in Angstrom), charge = 0, multiplicity = 1:

       Center              X                  Y                   Z               Mass
    ------------   -----------------  -----------------  -----------------  -----------------
         S            1.146318327668    -1.145374463680     0.000775608879    31.972071174400
         N            0.246880327668     1.268267536320     0.000808608879    14.003074004430
         C           -1.599342672332    -0.390165463680     0.000783608879    12.000000000000
         C           -0.152377672332     0.011250536320     0.000789608879    12.000000000000
         C           -2.284913672332     0.133993536320    -1.263622391121    12.000000000000
         C           -2.284905672332     0.133929536320     1.265221608879    12.000000000000
         C            2.280973327668     0.139106536320     0.000797608879    12.000000000000
         C            1.616586327668     1.342459536320     0.000813608879    12.000000000000
         H           -1.649325672332    -1.487065463680     0.000755608879     1.007825032230
         H           -2.218762672332     1.224582536320    -1.292242391121     1.007825032230
         H           -3.340214672332    -0.157045463680    -1.275441391121     1.007825032230
         H           -1.806163672332    -0.263202463680    -2.163412391121     1.007825032230
         H           -1.806147672332    -0.263310463680     2.164987608879     1.007825032230
         H           -3.340205672332    -0.157111463680     1.277033608879     1.007825032230
         H           -2.218754672332     1.224517536320     1.293894608879     1.007825032230
         H            3.347713527668    -0.041169963680    -0.099203391121     1.007825032230
         H            2.097925327668     2.314525536320     0.000829608879     1.007825032230

  Basis Set: AUG-CC-PVTZ
    Blend: AUG-CC-PVTZ
  Basis Set: (AUG-CC-PVTZ AUX)
    Blend: AUG-CC-PVTZ-JKFIT
	 Reference Energy          =    -684.5331521617870294 [Eh]
	 Singles Energy            =      -0.0000000000000000 [Eh]
	 Same-Spin Energy          =      -0.3769204546747991 [Eh]
	 Opposite-Spin Energy      =      -1.1968583395588710 [Eh]
	 Correlation Energy        =      -1.5737787942336701 [Eh]
	 Total Energy              =    -686.1069309560207330 [Eh]

	 ================> DF-SCS-MP2 Energies <==================
	-----------------------------------------------------------
	 SCS Same-Spin Scale       =       0.3333333333333333 [-]
	 SCS Opposite-Spin Scale   =       1.2000000000000000 [-]
	 SCS Same-Spin Energy      =      -0.1256401515582664 [Eh]
	 SCS Opposite-Spin Energy  =      -1.4362300074706451 [Eh]
	 SCS Correlation Energy    =      -1.5618701590289115 [Eh]
	 SCS Total Energy          =    -686.0950223208159287 [Eh]
	-----------------------------------------------------------

  Dipole Moment: [D]
     X:     0.4859      Y:    -1.1425      Z:    -0.0845     Total:     1.2444

*** Psi4 exiting successfully. Buy a developer a beer!
