                               Psi4 1.3.2 release

  ==> Input File <==

--------------------------------------------------------------------------
#psi4
#
memory 32 gb

molecule  {
0 1
  S        1.2258560    -1.1625810    -0.0000180
  N        0.3264180     1.2510610     0.0000150
  C       -1.5198050    -0.4073720    -0.0000100
  C       -0.0728400    -0.0059560    -0.0000040
  C       -2.2053760     0.1167870    -1.2644160
  C       -2.2053680     0.1167230     1.2644280
  C        2.3605110     0.1219000     0.0000040
  C        1.6961240     1.3252530     0.0000200
  H       -1.5697880    -1.5042720    -0.0000380
  H       -2.1392250     1.2073760    -1.2930360
  H       -3.2606770    -0.1742520    -1.2762350
  H       -1.7266260    -0.2804090    -2.1642060
  H       -1.7266100    -0.2805170     2.1641940
  H       -3.2606680    -0.1743180     1.2762400
  H       -2.1392170     1.2073110     1.2931010
  H        3.4272510    -0.0583780     0.0000030
  H        2.1774627     2.2973175     0.1000360
units angstrom
no_reorient  #important for SAPT in psi4, default
symmetry c1  #important for SAPT in psi4, default
}

set PROPERTIES_ORIGIN ["COM"]
properties('MP2/aug-cc-pvtz', properties = ['dipole'])
--------------------------------------------------------------------------

    Molecular point group: c1
  Charge       = 0
  Multiplicity = 1
  Basis Set: AUG-CC-PVTZ
    Blend: AUG-CC-PVTZ
  Basis Set: (AUG-CC-PVTZ AUX)
    Blend: AUG-CC-PVTZ-JKFIT

    Orbital Energies [Eh]
    ---------------------

    Doubly Occupied:

       1A    -91.994027     2A    -15.563928     3A    -11.310029
       4A    -11.269257     5A    -11.260561     6A    -11.249428
       7A    -11.219358     8A    -11.219297     9A     -8.994666
      10A     -6.675565    11A     -6.675056    12A     -6.674343
      13A     -1.274722    14A     -1.094558    15A     -1.061246
      16A     -0.980697    17A     -0.935798    18A     -0.840065
      19A     -0.792428    20A     -0.716507    21A     -0.682499
      22A     -0.625493    23A     -0.601425    24A     -0.586771
      25A     -0.567023    26A     -0.545556    27A     -0.531342
      28A     -0.503929    29A     -0.499273    30A     -0.487377
      31A     -0.483053    32A     -0.422089    33A     -0.386876
      34A     -0.327820

  @DF-RHF Final Energy:  -684.53303638664011

   => Energetics <=

    Nuclear Repulsion Energy =            437.5127648634023103
    One-Electron Energy =               -1805.9874804569542448
    Two-Electron Energy =                 683.9416792069118856
    Total Energy =                       -684.5330363866401058
  Basis Set: (AUG-CC-PVTZ AUX)
    Blend: AUG-CC-PVTZ-RI
    Molecular point group: c1

    Geometry (in Angstrom), charge = 0, multiplicity = 1:

       Center              X                  Y                   Z               Mass
    ------------   -----------------  -----------------  -----------------  -----------------
         S            1.146318331635    -1.145374439882    -0.000810947864    31.972071174400
         N            0.246880331635     1.268267560118    -0.000777947864    14.003074004430
         C           -1.599342668365    -0.390165439882    -0.000802947864    12.000000000000
         C           -0.152377668365     0.011250560118    -0.000796947864    12.000000000000
         C           -2.284913668365     0.133993560118    -1.265208947864    12.000000000000
         C           -2.284905668365     0.133929560118     1.263635052136    12.000000000000
         C            2.280973331635     0.139106560118    -0.000788947864    12.000000000000
         C            1.616586331635     1.342459560118    -0.000772947864    12.000000000000
         H           -1.649325668365    -1.487065439882    -0.000830947864     1.007825032230
         H           -2.218762668365     1.224582560118    -1.293828947864     1.007825032230
         H           -3.340214668365    -0.157045439882    -1.277027947864     1.007825032230
         H           -1.806163668365    -0.263202439882    -2.164998947864     1.007825032230
         H           -1.806147668365    -0.263310439882     2.163401052136     1.007825032230
         H           -3.340205668365    -0.157111439882     1.275447052136     1.007825032230
         H           -2.218754668365     1.224517560118     1.292308052136     1.007825032230
         H            3.347713331635    -0.041171439882    -0.000789947864     1.007825032230
         H            2.097925031635     2.314524060118     0.099243052136     1.007825032230

  Basis Set: AUG-CC-PVTZ
    Blend: AUG-CC-PVTZ
  Basis Set: (AUG-CC-PVTZ AUX)
    Blend: AUG-CC-PVTZ-JKFIT
	 Reference Energy          =    -684.5330363866401058 [Eh]
	 Singles Energy            =      -0.0000000000000000 [Eh]
	 Same-Spin Energy          =      -0.3769291299262842 [Eh]
	 Opposite-Spin Energy      =      -1.1968767282178798 [Eh]
	 Correlation Energy        =      -1.5738058581441641 [Eh]
	 Total Energy              =    -686.1068422447842750 [Eh]

	 ================> DF-SCS-MP2 Energies <==================
	-----------------------------------------------------------
	 SCS Same-Spin Scale       =       0.3333333333333333 [-]
	 SCS Opposite-Spin Scale   =       1.2000000000000000 [-]
	 SCS Same-Spin Energy      =      -0.1256430433087614 [Eh]
	 SCS Opposite-Spin Energy  =      -1.4362520738614557 [Eh]
	 SCS Correlation Energy    =      -1.5618951171702171 [Eh]
	 SCS Total Energy          =    -686.0949315038103578 [Eh]
	-----------------------------------------------------------

  Dipole Moment: [D]
     X:     0.4891      Y:    -1.1518      Z:     0.0745     Total:     1.2535

*** Psi4 exiting successfully. Buy a developer a beer!
