                               Psi4 1.3.2 release

  ==> Input File <==

--------------------------------------------------------------------------
#psi4
#
memory 32 gb

molecule  {
0 1
  S        1.2258560    -1.1625810    -0.0000180
  N        0.3264180     1.2510610     0.0000150
  C       -1.5198050    -0.4073720    -0.0000100
  C       -0.0728400    -0.0059560    -0.0000040
  C       -2.2053760     0.1167870    -1.2644160
  C       -2.2053680     0.1167230     1.2644280
  C        2.3605110     0.1219000     0.0000040
  C        1.6961240     1.3252530     0.0000200
  H       -1.5697880    -1.5042720    -0.0000380
  H       -2.1392250     1.2073760    -1.2930360
  H       -3.2606770    -0.1742520    -1.2762350
  H       -1.7266260    -0.2804090    -2.1642060
  H       -1.7266100    -0.2805170     2.1641940
  H       -3.2606680    -0.1743180     1.2762400
  H       -2.1392170     1.2073110     1.2931010
  H        3.4272510    -0.0583780     0.0000030
  H        2.1774630     2.2973190     0.0000360
units angstrom
no_reorient  #important for SAPT in psi4, default
symmetry c1  #important for SAPT in psi4, default
}

set PROPERTIES_ORIGIN ["COM"]
properties('MP2/aug-cc-pvtz', properties = ['dipole'])
--------------------------------------------------------------------------

    Molecular point group: c1
  Charge       = 0
  Multiplicity = 1
  Basis Set: AUG-CC-PVTZ
    Blend: AUG-CC-PVTZ
  Basis Set: (AUG-CC-PVTZ AUX)
    Blend: AUG-CC-PVTZ-JKFIT

    Orbital Energies [Eh]
    ---------------------

    Doubly Occupied:

       1A    -91.993956     2A    -15.563896     3A    -11.309994
       4A    -11.268874     5A    -11.260416     6A    -11.249403
       7A    -11.219315     8A    -11.219300     9A     -8.994594
      10A     -6.675494    11A     -6.674984    12A     -6.674271
      13A     -1.274688    14A     -1.094548    15A     -1.061175
      16A     -0.980846    17A     -0.935778    18A     -0.840130
      19A     -0.792647    20A     -0.716544    21A     -0.683098
      22A     -0.625459    23A     -0.601602    24A     -0.586787
      25A     -0.567105    26A     -0.545553    27A     -0.531279
      28A     -0.504189    29A     -0.499280    30A     -0.487375
      31A     -0.483132    32A     -0.422054    33A     -0.386866
      34A     -0.327826

  @DF-RHF Final Energy:  -684.53365062094758

   => Energetics <=

    Nuclear Repulsion Energy =            437.5305629912319318
    One-Electron Energy =               -1806.0235167682801602
    Two-Electron Energy =                 683.9593031561005319
    Total Energy =                       -684.5336506209475829
  Basis Set: (AUG-CC-PVTZ AUX)
    Blend: AUG-CC-PVTZ-RI
    Molecular point group: c1

    Geometry (in Angstrom), charge = 0, multiplicity = 1:

       Center              X                  Y                   Z               Mass
    ------------   -----------------  -----------------  -----------------  -----------------
         S            1.146318329255    -1.145374451781    -0.000017669493    31.972071174400
         N            0.246880329255     1.268267548219     0.000015330507    14.003074004430
         C           -1.599342670745    -0.390165451781    -0.000009669493    12.000000000000
         C           -0.152377670745     0.011250548219    -0.000003669493    12.000000000000
         C           -2.284913670745     0.133993548219    -1.264415669493    12.000000000000
         C           -2.284905670745     0.133929548219     1.264428330507    12.000000000000
         C            2.280973329255     0.139106548219     0.000004330507    12.000000000000
         C            1.616586329255     1.342459548219     0.000020330507    12.000000000000
         H           -1.649325670745    -1.487065451781    -0.000037669493     1.007825032230
         H           -2.218762670745     1.224582548219    -1.293035669493     1.007825032230
         H           -3.340214670745    -0.157045451781    -1.276234669493     1.007825032230
         H           -1.806163670745    -0.263202451781    -2.164205669493     1.007825032230
         H           -1.806147670745    -0.263310451781     2.164194330507     1.007825032230
         H           -3.340205670745    -0.157111451781     1.276240330507     1.007825032230
         H           -2.218754670745     1.224517548219     1.293101330507     1.007825032230
         H            3.347713329255    -0.041171451781     0.000003330507     1.007825032230
         H            2.097925329255     2.314525548219     0.000036330507     1.007825032230

  Basis Set: AUG-CC-PVTZ
    Blend: AUG-CC-PVTZ
  Basis Set: (AUG-CC-PVTZ AUX)
    Blend: AUG-CC-PVTZ-JKFIT
	 Reference Energy          =    -684.5336506209475829 [Eh]
	 Singles Energy            =      -0.0000000000000000 [Eh]
	 Same-Spin Energy          =      -0.3768914652274189 [Eh]
	 Opposite-Spin Energy      =      -1.1968021542881329 [Eh]
	 Correlation Energy        =      -1.5736936195155518 [Eh]
	 Total Energy              =    -686.1073442404631351 [Eh]

	 ================> DF-SCS-MP2 Energies <==================
	-----------------------------------------------------------
	 SCS Same-Spin Scale       =       0.3333333333333333 [-]
	 SCS Opposite-Spin Scale   =       1.2000000000000000 [-]
	 SCS Same-Spin Energy      =      -0.1256304884091396 [Eh]
	 SCS Opposite-Spin Energy  =      -1.4361625851457593 [Eh]
	 SCS Correlation Energy    =      -1.5617930735548990 [Eh]
	 SCS Total Energy          =    -686.0954436945024781 [Eh]
	-----------------------------------------------------------

  Dipole Moment: [D]
     X:     0.4937      Y:    -1.1447      Z:    -0.0000     Total:     1.2466

*** Psi4 exiting successfully. Buy a developer a beer!
