                               Psi4 1.3.2 release

  ==> Input File <==

--------------------------------------------------------------------------
#psi4
#
memory 32 gb

molecule  {
0 1
  S        1.2258560    -1.1625810    -0.0000180
  N        0.3264180     1.2510610     0.0000150
  C       -1.5198050    -0.4073720    -0.0000100
  C       -0.0728400    -0.0059560    -0.0000040
  C       -2.2053760     0.1167870    -1.2644160
  C       -2.2053680     0.1167230     1.2644280
  C        2.3605110     0.1219000     0.0000040
  C        1.6961240     1.3252530     0.0000200
  H       -1.5697880    -1.5042720    -0.0000380
  H       -2.1392250     1.2073760    -1.2930360
  H       -3.2606770    -0.1742520    -1.2762350
  H       -1.7266260    -0.2804090    -2.1642060
  H       -1.7266100    -0.2805170     2.1641940
  H       -3.2606680    -0.1743180     1.2762400
  H       -2.1392170     1.2073110     1.2931010
  H        3.4272510    -0.0583780     0.0000030
  H        2.1774624     2.2973160     0.2000360
units angstrom
no_reorient  #important for SAPT in psi4, default
symmetry c1  #important for SAPT in psi4, default
}

set PROPERTIES_ORIGIN ["COM"]
properties('MP2/aug-cc-pvtz', properties = ['dipole'])
--------------------------------------------------------------------------

    Molecular point group: c1
  Charge       = 0
  Multiplicity = 1
  Basis Set: AUG-CC-PVTZ
    Blend: AUG-CC-PVTZ
  Basis Set: (AUG-CC-PVTZ AUX)
    Blend: AUG-CC-PVTZ-JKFIT

    Orbital Energies [Eh]
    ---------------------

    Doubly Occupied:

       1A    -91.994240     2A    -15.564028     3A    -11.310134
       4A    -11.270392     5A    -11.260991     6A    -11.249501
       7A    -11.219446     8A    -11.219327     9A     -8.994882
      10A     -6.675779    11A     -6.675271    12A     -6.674558
      13A     -1.274826    14A     -1.094591    15A     -1.061456
      16A     -0.980276    17A     -0.935857    18A     -0.839889
      19A     -0.791809    20A     -0.716420    21A     -0.680746
      22A     -0.625596    23A     -0.600896    24A     -0.586729
      25A     -0.566763    26A     -0.545570    27A     -0.531528
      28A     -0.503196    29A     -0.499220    30A     -0.487388
      31A     -0.482788    32A     -0.422194    33A     -0.386906
      34A     -0.327806

  @DF-RHF Final Energy:  -684.53108232097134

   => Energetics <=

    Nuclear Repulsion Energy =            437.4603689368500454
    One-Electron Energy =               -1805.8809014941832629
    Two-Electron Energy =                 683.8894502363618813
    Total Energy =                       -684.5310823209713362
  Basis Set: (AUG-CC-PVTZ AUX)
    Blend: AUG-CC-PVTZ-RI
    Molecular point group: c1

    Geometry (in Angstrom), charge = 0, multiplicity = 1:

       Center              X                  Y                   Z               Mass
    ------------   -----------------  -----------------  -----------------  -----------------
         S            1.146318334014    -1.145374427983    -0.001604226235    31.972071174400
         N            0.246880334014     1.268267572017    -0.001571226235    14.003074004430
         C           -1.599342665986    -0.390165427983    -0.001596226235    12.000000000000
         C           -0.152377665986     0.011250572017    -0.001590226235    12.000000000000
         C           -2.284913665986     0.133993572017    -1.266002226235    12.000000000000
         C           -2.284905665986     0.133929572017     1.262841773765    12.000000000000
         C            2.280973334014     0.139106572017    -0.001582226235    12.000000000000
         C            1.616586334014     1.342459572017    -0.001566226235    12.000000000000
         H           -1.649325665986    -1.487065427983    -0.001624226235     1.007825032230
         H           -2.218762665986     1.224582572017    -1.294622226235     1.007825032230
         H           -3.340214665986    -0.157045427983    -1.277821226235     1.007825032230
         H           -1.806163665986    -0.263202427983    -2.165792226235     1.007825032230
         H           -1.806147665986    -0.263310427983     2.162607773765     1.007825032230
         H           -3.340205665986    -0.157111427983     1.274653773765     1.007825032230
         H           -2.218754665986     1.224517572017     1.291514773765     1.007825032230
         H            3.347713334014    -0.041171427983    -0.001583226235     1.007825032230
         H            2.097924734014     2.314522572017     0.198449773765     1.007825032230

  Basis Set: AUG-CC-PVTZ
    Blend: AUG-CC-PVTZ
  Basis Set: (AUG-CC-PVTZ AUX)
    Blend: AUG-CC-PVTZ-JKFIT
	 Reference Energy          =    -684.5310823209713362 [Eh]
	 Singles Energy            =      -0.0000000000000000 [Eh]
	 Same-Spin Energy          =      -0.3770417756205536 [Eh]
	 Opposite-Spin Energy      =      -1.1971257766747756 [Eh]
	 Correlation Energy        =      -1.5741675522953291 [Eh]
	 Total Energy              =    -686.1052498732666436 [Eh]

	 ================> DF-SCS-MP2 Energies <==================
	-----------------------------------------------------------
	 SCS Same-Spin Scale       =       0.3333333333333333 [-]
	 SCS Opposite-Spin Scale   =       1.2000000000000000 [-]
	 SCS Same-Spin Energy      =      -0.1256805918735178 [Eh]
	 SCS Opposite-Spin Energy  =      -1.4365509320097307 [Eh]
	 SCS Correlation Energy    =      -1.5622315238832485 [Eh]
	 SCS Total Energy          =    -686.0933138448546060 [Eh]
	-----------------------------------------------------------

  Dipole Moment: [D]
     X:     0.4753      Y:    -1.1728      Z:     0.1478     Total:     1.2740

*** Psi4 exiting successfully. Buy a developer a beer!
