                               Psi4 1.3.2 release

  ==> Input File <==

--------------------------------------------------------------------------
#psi4
#
memory 32 gb

molecule  {
0 1
  S        1.2258560    -1.1625810    -0.0000180
  N        0.3264180     1.2510610     0.0000150
  C       -1.5198050    -0.4073720    -0.0000100
  C       -0.0728400    -0.0059560    -0.0000040
  C       -2.2053760     0.1167870    -1.2644160
  C       -2.2053680     0.1167230     1.2644280
  C        2.3605110     0.1219000     0.0000040
  C        1.6961240     1.3252530     0.0000200
  H       -1.5697880    -1.5042720    -0.0000380
  H       -2.1392250     1.2073760    -1.2930360
  H       -3.2606770    -0.1742520    -1.2762350
  H       -1.7266260    -0.2804090    -2.1642060
  H       -1.7266100    -0.2805170     2.1641940
  H       -3.2606680    -0.1743180     1.2762400
  H       -2.1392170     1.2073110     1.2931010
  H        3.4272510    -0.0583780     0.0000030
  H        2.1774626     2.2973168     0.1500360
units angstrom
no_reorient  #important for SAPT in psi4, default
symmetry c1  #important for SAPT in psi4, default
}

set PROPERTIES_ORIGIN ["COM"]
properties('MP2/aug-cc-pvtz', properties = ['dipole'])
--------------------------------------------------------------------------

    Molecular point group: c1
  Charge       = 0
  Multiplicity = 1
  Basis Set: AUG-CC-PVTZ
    Blend: AUG-CC-PVTZ
  Basis Set: (AUG-CC-PVTZ AUX)
    Blend: AUG-CC-PVTZ-JKFIT

    Orbital Energies [Eh]
    ---------------------

    Doubly Occupied:

       1A    -91.994116     2A    -15.563969     3A    -11.310072
       4A    -11.269733     5A    -11.260741     6A    -11.249458
       7A    -11.219397     8A    -11.219307     9A     -8.994756
      10A     -6.675655    11A     -6.675146    12A     -6.674432
      13A     -1.274765    14A     -1.094572    15A     -1.061334
      16A     -0.980517    17A     -0.935823    18A     -0.839988
      19A     -0.792164    20A     -0.716466    21A     -0.681761
      22A     -0.625536    23A     -0.601204    24A     -0.586753
      25A     -0.566917    26A     -0.545562    27A     -0.531420
      28A     -0.503614    29A     -0.499257    30A     -0.487381
      31A     -0.482947    32A     -0.422133    33A     -0.386888
      34A     -0.327814

  @DF-RHF Final Energy:  -684.53224179336041

   => Energetics <=

    Nuclear Repulsion Energy =            437.4907534852143272
    One-Electron Energy =               -1805.9427958307655899
    Two-Electron Energy =                 683.9198005521908499
    Total Energy =                       -684.5322417933604129
  Basis Set: (AUG-CC-PVTZ AUX)
    Blend: AUG-CC-PVTZ-RI
    Molecular point group: c1

    Geometry (in Angstrom), charge = 0, multiplicity = 1:

       Center              X                  Y                   Z               Mass
    ------------   -----------------  -----------------  -----------------  -----------------
         S            1.146318332428    -1.145374434329    -0.001207587050    31.972071174400
         N            0.246880332428     1.268267565671    -0.001174587050    14.003074004430
         C           -1.599342667572    -0.390165434329    -0.001199587050    12.000000000000
         C           -0.152377667572     0.011250565671    -0.001193587050    12.000000000000
         C           -2.284913667572     0.133993565671    -1.265605587050    12.000000000000
         C           -2.284905667572     0.133929565671     1.263238412950    12.000000000000
         C            2.280973332428     0.139106565671    -0.001185587050    12.000000000000
         C            1.616586332428     1.342459565671    -0.001169587050    12.000000000000
         H           -1.649325667572    -1.487065434329    -0.001227587050     1.007825032230
         H           -2.218762667572     1.224582565671    -1.294225587050     1.007825032230
         H           -3.340214667572    -0.157045434329    -1.277424587050     1.007825032230
         H           -1.806163667572    -0.263202434329    -2.165395587050     1.007825032230
         H           -1.806147667572    -0.263310434329     2.163004412950     1.007825032230
         H           -3.340205667572    -0.157111434329     1.275050412950     1.007825032230
         H           -2.218754667572     1.224517565671     1.291911412950     1.007825032230
         H            3.347713332428    -0.041171434329    -0.001186587050     1.007825032230
         H            2.097924932428     2.314523365671     0.148846412950     1.007825032230

  Basis Set: AUG-CC-PVTZ
    Blend: AUG-CC-PVTZ
  Basis Set: (AUG-CC-PVTZ AUX)
    Blend: AUG-CC-PVTZ-JKFIT
	 Reference Energy          =    -684.5322417933604129 [Eh]
	 Singles Energy            =      -0.0000000000000000 [Eh]
	 Same-Spin Energy          =      -0.3769761707327741 [Eh]
	 Opposite-Spin Energy      =      -1.1969768552028821 [Eh]
	 Correlation Energy        =      -1.5739530259356562 [Eh]
	 Total Energy              =    -686.1061948192960926 [Eh]

	 ================> DF-SCS-MP2 Energies <==================
	-----------------------------------------------------------
	 SCS Same-Spin Scale       =       0.3333333333333333 [-]
	 SCS Opposite-Spin Scale   =       1.2000000000000000 [-]
	 SCS Same-Spin Energy      =      -0.1256587235775914 [Eh]
	 SCS Opposite-Spin Energy  =      -1.4363722262434584 [Eh]
	 SCS Correlation Energy    =      -1.5620309498210498 [Eh]
	 SCS Total Energy          =    -686.0942727431814774 [Eh]
	-----------------------------------------------------------

  Dipole Moment: [D]
     X:     0.4833      Y:    -1.1606      Z:     0.1113     Total:     1.2621

*** Psi4 exiting successfully. Buy a developer a beer!
