                               Psi4 1.3.2 release

  ==> Input File <==

--------------------------------------------------------------------------
#psi4
#
memory 32 gb

molecule  {
0 1
  S        1.2258560    -1.1625810    -0.0000180
  N        0.3264180     1.2510610     0.0000150
  C       -1.5198050    -0.4073720    -0.0000100
  C       -0.0728400    -0.0059560    -0.0000040
  C       -2.2053760     0.1167870    -1.2644160
  C       -2.2053680     0.1167230     1.2644280
  C        2.3605110     0.1219000     0.0000040
  C        1.6961240     1.3252530     0.0000200
  H       -1.5697880    -1.5042720    -0.0000380
  H       -2.1392250     1.2073760    -1.2930360
  H       -3.2606770    -0.1742520    -1.2762350
  H       -1.7266260    -0.2804090    -2.1642060
  H       -1.7266100    -0.2805170     2.1641940
  H       -3.2606680    -0.1743180     1.2762400
  H       -2.1392170     1.2073110     1.2931010
  H        3.4272514    -0.0583750    -0.1999970
  H        2.1774630     2.2973190     0.0000360
units angstrom
no_reorient  #important for SAPT in psi4, default
symmetry c1  #important for SAPT in psi4, default
}

set PROPERTIES_ORIGIN ["COM"]
properties('MP2/aug-cc-pvtz', properties = ['dipole'])
--------------------------------------------------------------------------

    Molecular point group: c1
  Charge       = 0
  Multiplicity = 1
  Basis Set: AUG-CC-PVTZ
    Blend: AUG-CC-PVTZ
  Basis Set: (AUG-CC-PVTZ AUX)
    Blend: AUG-CC-PVTZ-JKFIT

    Orbital Energies [Eh]
    ---------------------

    Doubly Occupied:

       1A    -91.993857     2A    -15.564125     3A    -11.310444
       4A    -11.269547     5A    -11.261593     6A    -11.249583
       7A    -11.219754     8A    -11.219219     9A     -8.994511
      10A     -6.675410    11A     -6.674891    12A     -6.674181
      13A     -1.275011    14A     -1.094733    15A     -1.060871
      16A     -0.980801    17A     -0.935953    18A     -0.840205
      19A     -0.790891    20A     -0.715929    21A     -0.682301
      22A     -0.624367    23A     -0.601805    24A     -0.587179
      25A     -0.565834    26A     -0.545469    27A     -0.531020
      28A     -0.504276    29A     -0.499075    30A     -0.487454
      31A     -0.483063    32A     -0.422229    33A     -0.386880
      34A     -0.327931

  @DF-RHF Final Energy:  -684.53153315740929

   => Energetics <=

    Nuclear Repulsion Energy =            437.4592383388116446
    One-Electron Energy =               -1805.8807634011625396
    Two-Electron Energy =                 683.8899919049415530
    Total Energy =                       -684.5315331574092852
  Basis Set: (AUG-CC-PVTZ AUX)
    Blend: AUG-CC-PVTZ-RI
    Molecular point group: c1

    Geometry (in Angstrom), charge = 0, multiplicity = 1:

       Center              X                  Y                   Z               Mass
    ------------   -----------------  -----------------  -----------------  -----------------
         S            1.146318326082    -1.145374475580     0.001568887250    31.972071174400
         N            0.246880326082     1.268267524420     0.001601887250    14.003074004430
         C           -1.599342673918    -0.390165475580     0.001576887250    12.000000000000
         C           -0.152377673918     0.011250524420     0.001582887250    12.000000000000
         C           -2.284913673918     0.133993524420    -1.262829112750    12.000000000000
         C           -2.284905673918     0.133929524420     1.266014887250    12.000000000000
         C            2.280973326082     0.139106524420     0.001590887250    12.000000000000
         C            1.616586326082     1.342459524420     0.001606887250    12.000000000000
         H           -1.649325673918    -1.487065475580     0.001548887250     1.007825032230
         H           -2.218762673918     1.224582524420    -1.291449112750     1.007825032230
         H           -3.340214673918    -0.157045475580    -1.274648112750     1.007825032230
         H           -1.806163673918    -0.263202475580    -2.162619112750     1.007825032230
         H           -1.806147673918    -0.263310475580     2.165780887250     1.007825032230
         H           -3.340205673918    -0.157111475580     1.277826887250     1.007825032230
         H           -2.218754673918     1.224517524420     1.294687887250     1.007825032230
         H            3.347713726082    -0.041168475580    -0.198410112750     1.007825032230
         H            2.097925326082     2.314525524420     0.001622887250     1.007825032230

  Basis Set: AUG-CC-PVTZ
    Blend: AUG-CC-PVTZ
  Basis Set: (AUG-CC-PVTZ AUX)
    Blend: AUG-CC-PVTZ-JKFIT
	 Reference Energy          =    -684.5315331574092852 [Eh]
	 Singles Energy            =      -0.0000000000000000 [Eh]
	 Same-Spin Energy          =      -0.3770075808442800 [Eh]
	 Opposite-Spin Energy      =      -1.1970367652918199 [Eh]
	 Correlation Energy        =      -1.5740443461361000 [Eh]
	 Total Energy              =    -686.1055775035454189 [Eh]

	 ================> DF-SCS-MP2 Energies <==================
	-----------------------------------------------------------
	 SCS Same-Spin Scale       =       0.3333333333333333 [-]
	 SCS Opposite-Spin Scale   =       1.2000000000000000 [-]
	 SCS Same-Spin Energy      =      -0.1256691936147600 [Eh]
	 SCS Opposite-Spin Energy  =      -1.4364441183501839 [Eh]
	 SCS Correlation Energy    =      -1.5621133119649440 [Eh]
	 SCS Total Energy          =    -686.0936464693742209 [Eh]
	-----------------------------------------------------------

  Dipole Moment: [D]
     X:     0.4627      Y:    -1.1363      Z:    -0.1678     Total:     1.2384

*** Psi4 exiting successfully. Buy a developer a beer!
