                               Psi4 1.3.2 release

  ==> Input File <==

--------------------------------------------------------------------------
#psi4
#
memory 32 gb

molecule  {
0 1
  S        1.2258560    -1.1625810    -0.0000180
  N        0.3264180     1.2510610     0.0000150
  C       -1.5198050    -0.4073720    -0.0000100
  C       -0.0728400    -0.0059560    -0.0000040
  C       -2.2053760     0.1167870    -1.2644160
  C       -2.2053680     0.1167230     1.2644280
  C        2.3605110     0.1219000     0.0000040
  C        1.6961240     1.3252530     0.0000200
  H       -1.5697880    -1.5042720    -0.0000380
  H       -2.1392250     1.2073760    -1.2930360
  H       -3.2606770    -0.1742520    -1.2762350
  H       -1.7266260    -0.2804090    -2.1642060
  H       -1.7266100    -0.2805170     2.1641940
  H       -3.2606680    -0.1743180     1.2762400
  H       -2.1392170     1.2073110     1.2931010
  H        3.4272511    -0.0583773    -0.0499970
  H        2.1774630     2.2973190     0.0000360
units angstrom
no_reorient  #important for SAPT in psi4, default
symmetry c1  #important for SAPT in psi4, default
}

set PROPERTIES_ORIGIN ["COM"]
properties('MP2/aug-cc-pvtz', properties = ['dipole'])
--------------------------------------------------------------------------

    Molecular point group: c1
  Charge       = 0
  Multiplicity = 1
  Basis Set: AUG-CC-PVTZ
    Blend: AUG-CC-PVTZ
  Basis Set: (AUG-CC-PVTZ AUX)
    Blend: AUG-CC-PVTZ-JKFIT

    Orbital Energies [Eh]
    ---------------------

    Doubly Occupied:

       1A    -91.993949     2A    -15.563910     3A    -11.310022
       4A    -11.268917     5A    -11.260490     6A    -11.249415
       7A    -11.219387     8A    -11.219251     9A     -8.994588
      10A     -6.675488    11A     -6.674978    12A     -6.674265
      13A     -1.274708    14A     -1.094560    15A     -1.061155
      16A     -0.980842    17A     -0.935789    18A     -0.840134
      19A     -0.792531    20A     -0.716503    21A     -0.683047
      22A     -0.625390    23A     -0.601615    24A     -0.586812
      25A     -0.567026    26A     -0.545547    27A     -0.531263
      28A     -0.504194    29A     -0.499267    30A     -0.487379
      31A     -0.483129    32A     -0.422065    33A     -0.386867
      34A     -0.327833

  @DF-RHF Final Energy:  -684.53352805119243

   => Energetics <=

    Nuclear Repulsion Energy =            437.5260259644300618
    One-Electron Energy =               -1806.0144753631898311
    Two-Electron Energy =                 683.9549213475672786
    Total Energy =                       -684.5335280511924338
  Basis Set: (AUG-CC-PVTZ AUX)
    Blend: AUG-CC-PVTZ-RI
    Molecular point group: c1

    Geometry (in Angstrom), charge = 0, multiplicity = 1:

       Center              X                  Y                   Z               Mass
    ------------   -----------------  -----------------  -----------------  -----------------
         S            1.146318328462    -1.145374457334     0.000378969693    31.972071174400
         N            0.246880328462     1.268267542666     0.000411969693    14.003074004430
         C           -1.599342671538    -0.390165457334     0.000386969693    12.000000000000
         C           -0.152377671538     0.011250542666     0.000392969693    12.000000000000
         C           -2.284913671538     0.133993542666    -1.264019030307    12.000000000000
         C           -2.284905671538     0.133929542666     1.264824969693    12.000000000000
         C            2.280973328462     0.139106542666     0.000400969693    12.000000000000
         C            1.616586328462     1.342459542666     0.000416969693    12.000000000000
         H           -1.649325671538    -1.487065457334     0.000358969693     1.007825032230
         H           -2.218762671538     1.224582542666    -1.292639030307     1.007825032230
         H           -3.340214671538    -0.157045457334    -1.275838030307     1.007825032230
         H           -1.806163671538    -0.263202457334    -2.163809030307     1.007825032230
         H           -1.806147671538    -0.263310457334     2.164590969693     1.007825032230
         H           -3.340205671538    -0.157111457334     1.276636969693     1.007825032230
         H           -2.218754671538     1.224517542666     1.293497969693     1.007825032230
         H            3.347713428462    -0.041170757334    -0.049600030307     1.007825032230
         H            2.097925328462     2.314525542666     0.000432969693     1.007825032230

  Basis Set: AUG-CC-PVTZ
    Blend: AUG-CC-PVTZ
  Basis Set: (AUG-CC-PVTZ AUX)
    Blend: AUG-CC-PVTZ-JKFIT
	 Reference Energy          =    -684.5335280511924338 [Eh]
	 Singles Energy            =      -0.0000000000000000 [Eh]
	 Same-Spin Energy          =      -0.3768987051638957 [Eh]
	 Opposite-Spin Energy      =      -1.1968160194395776 [Eh]
	 Correlation Energy        =      -1.5737147246034733 [Eh]
	 Total Energy              =    -686.1072427757959531 [Eh]

	 ================> DF-SCS-MP2 Energies <==================
	-----------------------------------------------------------
	 SCS Same-Spin Scale       =       0.3333333333333333 [-]
	 SCS Opposite-Spin Scale   =       1.2000000000000000 [-]
	 SCS Same-Spin Energy      =      -0.1256329017212985 [Eh]
	 SCS Opposite-Spin Energy  =      -1.4361792233274930 [Eh]
	 SCS Correlation Energy    =      -1.5618121250487915 [Eh]
	 SCS Total Energy          =    -686.0953401762412796 [Eh]
	-----------------------------------------------------------

  Dipole Moment: [D]
     X:     0.4917      Y:    -1.1441      Z:    -0.0423     Total:     1.2460

*** Psi4 exiting successfully. Buy a developer a beer!
