                               Psi4 1.3.2 release

  ==> Input File <==

--------------------------------------------------------------------------
#psi4
#
memory 32 gb

molecule  {
0 1
  S        1.2258560    -1.1625810    -0.0000180
  N        0.3264180     1.2510610     0.0000150
  C       -1.5198050    -0.4073720    -0.0000100
  C       -0.0728400    -0.0059560    -0.0000040
  C       -2.2053760     0.1167870    -1.2644160
  C       -2.2053680     0.1167230     1.2644280
  C        2.3605110     0.1219000     0.0000040
  C        1.6961240     1.3252530     0.0000200
  H       -1.5697880    -1.5042720    -0.0000380
  H       -2.1392250     1.2073760    -1.2930360
  H       -3.2606770    -0.1742520    -1.2762350
  H       -1.7266260    -0.2804090    -2.1642060
  H       -1.7266100    -0.2805170     2.1641940
  H       -3.2606680    -0.1743180     1.2762400
  H       -2.1392170     1.2073110     1.2931010
  H        3.4272510    -0.0583780     0.0000030
  H        2.1774623     2.2973153     0.2500360
units angstrom
no_reorient  #important for SAPT in psi4, default
symmetry c1  #important for SAPT in psi4, default
}

set PROPERTIES_ORIGIN ["COM"]
properties('MP2/aug-cc-pvtz', properties = ['dipole'])
--------------------------------------------------------------------------

    Molecular point group: c1
  Charge       = 0
  Multiplicity = 1
  Basis Set: AUG-CC-PVTZ
    Blend: AUG-CC-PVTZ
  Basis Set: (AUG-CC-PVTZ AUX)
    Blend: AUG-CC-PVTZ-JKFIT

    Orbital Energies [Eh]
    ---------------------

    Doubly Occupied:

       1A    -91.994400     2A    -15.564105     3A    -11.310215
       4A    -11.271228     5A    -11.261310     6A    -11.249557
       7A    -11.219505     8A    -11.219357     9A     -8.995044
      10A     -6.675939    11A     -6.675431    12A     -6.674718
      13A     -1.274905    14A     -1.094618    15A     -1.061614
      16A     -0.979981    17A     -0.935902    18A     -0.839774
      19A     -0.791378    20A     -0.716377    21A     -0.679477
      22A     -0.625674    23A     -0.600504    24A     -0.586700
      25A     -0.566554    26A     -0.545581    27A     -0.531664
      28A     -0.502705    29A     -0.499139    30A     -0.487399
      31A     -0.482564    32A     -0.422271    33A     -0.386930
      34A     -0.327799

  @DF-RHF Final Energy:  -684.52951718469842

   => Energetics <=

    Nuclear Repulsion Energy =            437.4220157919661460
    One-Electron Energy =               -1805.8024285894073273
    Two-Electron Energy =                 683.8508956127428746
    Total Energy =                       -684.5295171846984204
  Basis Set: (AUG-CC-PVTZ AUX)
    Blend: AUG-CC-PVTZ-RI
    Molecular point group: c1

    Geometry (in Angstrom), charge = 0, multiplicity = 1:

       Center              X                  Y                   Z               Mass
    ------------   -----------------  -----------------  -----------------  -----------------
         S            1.146318334808    -1.145374422430    -0.002000865421    31.972071174400
         N            0.246880334808     1.268267577570    -0.001967865421    14.003074004430
         C           -1.599342665192    -0.390165422430    -0.001992865421    12.000000000000
         C           -0.152377665192     0.011250577570    -0.001986865421    12.000000000000
         C           -2.284913665192     0.133993577570    -1.266398865421    12.000000000000
         C           -2.284905665192     0.133929577570     1.262445134579    12.000000000000
         C            2.280973334808     0.139106577570    -0.001978865421    12.000000000000
         C            1.616586334808     1.342459577570    -0.001962865421    12.000000000000
         H           -1.649325665192    -1.487065422430    -0.002020865421     1.007825032230
         H           -2.218762665192     1.224582577570    -1.295018865421     1.007825032230
         H           -3.340214665192    -0.157045422430    -1.278217865421     1.007825032230
         H           -1.806163665192    -0.263202422430    -2.166188865421     1.007825032230
         H           -1.806147665192    -0.263310422430     2.162211134579     1.007825032230
         H           -3.340205665192    -0.157111422430     1.274257134579     1.007825032230
         H           -2.218754665192     1.224517577570     1.291118134579     1.007825032230
         H            3.347713334808    -0.041171422430    -0.001979865421     1.007825032230
         H            2.097924634808     2.314521877570     0.248053134579     1.007825032230

  Basis Set: AUG-CC-PVTZ
    Blend: AUG-CC-PVTZ
  Basis Set: (AUG-CC-PVTZ AUX)
    Blend: AUG-CC-PVTZ-JKFIT
	 Reference Energy          =    -684.5295171846984204 [Eh]
	 Singles Energy            =      -0.0000000000000000 [Eh]
	 Same-Spin Energy          =      -0.3771254800314194 [Eh]
	 Opposite-Spin Energy      =      -1.1973269267010256 [Eh]
	 Correlation Energy        =      -1.5744524067324450 [Eh]
	 Total Energy              =    -686.1039695914308822 [Eh]

	 ================> DF-SCS-MP2 Energies <==================
	-----------------------------------------------------------
	 SCS Same-Spin Scale       =       0.3333333333333333 [-]
	 SCS Opposite-Spin Scale   =       1.2000000000000000 [-]
	 SCS Same-Spin Energy      =      -0.1257084933438065 [Eh]
	 SCS Opposite-Spin Energy  =      -1.4367923120412307 [Eh]
	 SCS Correlation Energy    =      -1.5625008053850371 [Eh]
	 SCS Total Energy          =    -686.0920179900834910 [Eh]
	-----------------------------------------------------------

  Dipole Moment: [D]
     X:     0.4651      Y:    -1.1883      Z:     0.1837     Total:     1.2892

*** Psi4 exiting successfully. Buy a developer a beer!
