                               Psi4 1.3.2 release

  ==> Input File <==

--------------------------------------------------------------------------
#psi4
#
memory 32 gb

molecule  {
0 1
  S        1.2258560    -1.1625810    -0.0000180
  N        0.3264180     1.2510610     0.0000150
  C       -1.5198050    -0.4073720    -0.0000100
  C       -0.0728400    -0.0059560    -0.0000040
  C       -2.2053760     0.1167870    -1.2644160
  C       -2.2053680     0.1167230     1.2644280
  C        2.3605110     0.1219000     0.0000040
  C        1.6961240     1.3252530     0.0000200
  H       -1.5697880    -1.5042720    -0.0000380
  H       -2.1392250     1.2073760    -1.2930360
  H       -3.2606770    -0.1742520    -1.2762350
  H       -1.7266260    -0.2804090    -2.1642060
  H       -1.7266100    -0.2805170     2.1641940
  H       -3.2606680    -0.1743180     1.2762400
  H       -2.1392170     1.2073110     1.2931010
  H        3.4272513    -0.0583758    -0.1499970
  H        2.1774630     2.2973190     0.0000360
units angstrom
no_reorient  #important for SAPT in psi4, default
symmetry c1  #important for SAPT in psi4, default
}

set PROPERTIES_ORIGIN ["COM"]
properties('MP2/aug-cc-pvtz', properties = ['dipole'])
--------------------------------------------------------------------------

    Molecular point group: c1
  Charge       = 0
  Multiplicity = 1
  Basis Set: AUG-CC-PVTZ
    Blend: AUG-CC-PVTZ
  Basis Set: (AUG-CC-PVTZ AUX)
    Blend: AUG-CC-PVTZ-JKFIT

    Orbital Energies [Eh]
    ---------------------

    Doubly Occupied:

       1A    -91.993898     2A    -15.564025     3A    -11.310248
       4A    -11.269255     5A    -11.261081     6A    -11.249504
       7A    -11.219611     8A    -11.219207     9A     -8.994545
      10A     -6.675444    11A     -6.674929    12A     -6.674218
      13A     -1.274870    14A     -1.094653    15A     -1.061000
      16A     -0.980818    17A     -0.935877    18A     -0.840170
      19A     -0.791634    20A     -0.716189    21A     -0.682645
      22A     -0.624842    23A     -0.601717    24A     -0.587012
      25A     -0.566389    26A     -0.545506    27A     -0.531134
      28A     -0.504237    29A     -0.499167    30A     -0.487419
      31A     -0.483097    32A     -0.422153    33A     -0.386874
      34A     -0.327885

  @DF-RHF Final Energy:  -684.53249936637644

   => Energetics <=

    Nuclear Repulsion Energy =            437.4901147023570047
    One-Electron Energy =               -1805.9427221485263999
    Two-Electron Energy =                 683.9201080797929535
    Total Energy =                       -684.5324993663764417
  Basis Set: (AUG-CC-PVTZ AUX)
    Blend: AUG-CC-PVTZ-RI
    Molecular point group: c1

    Geometry (in Angstrom), charge = 0, multiplicity = 1:

       Center              X                  Y                   Z               Mass
    ------------   -----------------  -----------------  -----------------  -----------------
         S            1.146318326875    -1.145374469233     0.001172248064    31.972071174400
         N            0.246880326875     1.268267530767     0.001205248064    14.003074004430
         C           -1.599342673125    -0.390165469233     0.001180248064    12.000000000000
         C           -0.152377673125     0.011250530767     0.001186248064    12.000000000000
         C           -2.284913673125     0.133993530767    -1.263225751936    12.000000000000
         C           -2.284905673125     0.133929530767     1.265618248064    12.000000000000
         C            2.280973326875     0.139106530767     0.001194248064    12.000000000000
         C            1.616586326875     1.342459530767     0.001210248064    12.000000000000
         H           -1.649325673125    -1.487065469233     0.001152248064     1.007825032230
         H           -2.218762673125     1.224582530767    -1.291845751936     1.007825032230
         H           -3.340214673125    -0.157045469233    -1.275044751936     1.007825032230
         H           -1.806163673125    -0.263202469233    -2.163015751936     1.007825032230
         H           -1.806147673125    -0.263310469233     2.165384248064     1.007825032230
         H           -3.340205673125    -0.157111469233     1.277430248064     1.007825032230
         H           -2.218754673125     1.224517530767     1.294291248064     1.007825032230
         H            3.347713626875    -0.041169269233    -0.148806751936     1.007825032230
         H            2.097925326875     2.314525530767     0.001226248064     1.007825032230

  Basis Set: AUG-CC-PVTZ
    Blend: AUG-CC-PVTZ
  Basis Set: (AUG-CC-PVTZ AUX)
    Blend: AUG-CC-PVTZ-JKFIT
	 Reference Energy          =    -684.5324993663764417 [Eh]
	 Singles Energy            =      -0.0000000000000000 [Eh]
	 Same-Spin Energy          =      -0.3769567606383760 [Eh]
	 Opposite-Spin Energy      =      -1.1969310606429300 [Eh]
	 Correlation Energy        =      -1.5738878212813061 [Eh]
	 Total Energy              =    -686.1063871876577878 [Eh]

	 ================> DF-SCS-MP2 Energies <==================
	-----------------------------------------------------------
	 SCS Same-Spin Scale       =       0.3333333333333333 [-]
	 SCS Opposite-Spin Scale   =       1.2000000000000000 [-]
	 SCS Same-Spin Energy      =      -0.1256522535461253 [Eh]
	 SCS Opposite-Spin Energy  =      -1.4363172727715159 [Eh]
	 SCS Correlation Energy    =      -1.5619695263176412 [Eh]
	 SCS Total Energy          =    -686.0944688926940671 [Eh]
	-----------------------------------------------------------

  Dipole Moment: [D]
     X:     0.4761      Y:    -1.1399      Z:    -0.1263     Total:     1.2418

*** Psi4 exiting successfully. Buy a developer a beer!
