                               Psi4 1.3.2 release

  ==> Input File <==

--------------------------------------------------------------------------
#psi4
#
memory 32 gb

molecule  {
0 1
  S        1.2258560    -1.1625810    -0.0000180
  N        0.3264180     1.2510610     0.0000150
  C       -1.5198050    -0.4073720    -0.0000100
  C       -0.0728400    -0.0059560    -0.0000040
  C       -2.2053760     0.1167870    -1.2644160
  C       -2.2053680     0.1167230     1.2644280
  C        2.3605110     0.1219000     0.0000040
  C        1.6961240     1.3252530     0.0000200
  H       -1.5697880    -1.5042720    -0.0000380
  H       -2.1392250     1.2073760    -1.2930360
  H       -3.2606770    -0.1742520    -1.2762350
  H       -1.7266260    -0.2804090    -2.1642060
  H       -1.7266100    -0.2805170     2.1641940
  H       -3.2606680    -0.1743180     1.2762400
  H       -2.1392170     1.2073110     1.2931010
  H        3.4272510    -0.0583780     0.0000030
  H        2.1774629     2.2973183     0.0500360
units angstrom
no_reorient  #important for SAPT in psi4, default
symmetry c1  #important for SAPT in psi4, default
}

set PROPERTIES_ORIGIN ["COM"]
properties('MP2/aug-cc-pvtz', properties = ['dipole'])
--------------------------------------------------------------------------

    Molecular point group: c1
  Charge       = 0
  Multiplicity = 1
  Basis Set: AUG-CC-PVTZ
    Blend: AUG-CC-PVTZ
  Basis Set: (AUG-CC-PVTZ AUX)
    Blend: AUG-CC-PVTZ-JKFIT

    Orbital Energies [Eh]
    ---------------------

    Doubly Occupied:

       1A    -91.993973     2A    -15.563904     3A    -11.310003
       4A    -11.268970     5A    -11.260452     6A    -11.249409
       7A    -11.219329     8A    -11.219296     9A     -8.994612
      10A     -6.675511    11A     -6.675002    12A     -6.674289
      13A     -1.274696    14A     -1.094551    15A     -1.061193
      16A     -0.980808    17A     -0.935783    18A     -0.840113
      19A     -0.792591    20A     -0.716534    21A     -0.682947
      22A     -0.625467    23A     -0.601558    24A     -0.586783
      25A     -0.567085    26A     -0.545554    27A     -0.531295
      28A     -0.504123    29A     -0.499278    30A     -0.487375
      31A     -0.483113    32A     -0.422063    33A     -0.386869
      34A     -0.327825

  @DF-RHF Final Energy:  -684.53349890034121

   => Energetics <=

    Nuclear Repulsion Energy =            437.5260971409802551
    One-Electron Energy =               -1806.0144827152253129
    Two-Electron Energy =                 683.9548866739038431
    Total Energy =                       -684.5334989003412147
  Basis Set: (AUG-CC-PVTZ AUX)
    Blend: AUG-CC-PVTZ-RI
    Molecular point group: c1

    Geometry (in Angstrom), charge = 0, multiplicity = 1:

       Center              X                  Y                   Z               Mass
    ------------   -----------------  -----------------  -----------------  -----------------
         S            1.146318330048    -1.145374446228    -0.000414308678    31.972071174400
         N            0.246880330048     1.268267553772    -0.000381308678    14.003074004430
         C           -1.599342669952    -0.390165446228    -0.000406308678    12.000000000000
         C           -0.152377669952     0.011250553772    -0.000400308678    12.000000000000
         C           -2.284913669952     0.133993553772    -1.264812308678    12.000000000000
         C           -2.284905669952     0.133929553772     1.264031691322    12.000000000000
         C            2.280973330048     0.139106553772    -0.000392308678    12.000000000000
         C            1.616586330048     1.342459553772    -0.000376308678    12.000000000000
         H           -1.649325669952    -1.487065446228    -0.000434308678     1.007825032230
         H           -2.218762669952     1.224582553772    -1.293432308678     1.007825032230
         H           -3.340214669952    -0.157045446228    -1.276631308678     1.007825032230
         H           -1.806163669952    -0.263202446228    -2.164602308678     1.007825032230
         H           -1.806147669952    -0.263310446228     2.163797691322     1.007825032230
         H           -3.340205669952    -0.157111446228     1.275843691322     1.007825032230
         H           -2.218754669952     1.224517553772     1.292704691322     1.007825032230
         H            3.347713330048    -0.041171446228    -0.000393308678     1.007825032230
         H            2.097925230048     2.314524853772     0.049639691322     1.007825032230

  Basis Set: AUG-CC-PVTZ
    Blend: AUG-CC-PVTZ
  Basis Set: (AUG-CC-PVTZ AUX)
    Blend: AUG-CC-PVTZ-JKFIT
	 Reference Energy          =    -684.5334989003412147 [Eh]
	 Singles Energy            =      -0.0000000000000000 [Eh]
	 Same-Spin Energy          =      -0.3769008794910943 [Eh]
	 Opposite-Spin Energy      =      -1.1968202297371817 [Eh]
	 Correlation Energy        =      -1.5737211092282761 [Eh]
	 Total Energy              =    -686.1072200095694598 [Eh]

	 ================> DF-SCS-MP2 Energies <==================
	-----------------------------------------------------------
	 SCS Same-Spin Scale       =       0.3333333333333333 [-]
	 SCS Opposite-Spin Scale   =       1.2000000000000000 [-]
	 SCS Same-Spin Energy      =      -0.1256336264970314 [Eh]
	 SCS Opposite-Spin Energy  =      -1.4361842756846179 [Eh]
	 SCS Correlation Energy    =      -1.5618179021816494 [Eh]
	 SCS Total Energy          =    -686.0953168025229161 [Eh]
	-----------------------------------------------------------

  Dipole Moment: [D]
     X:     0.4925      Y:    -1.1464      Z:     0.0373     Total:     1.2483

*** Psi4 exiting successfully. Buy a developer a beer!
