                               Psi4 1.3.2 release

  ==> Input File <==

--------------------------------------------------------------------------
#psi4
#
memory 32 gb

molecule  {
0 1
  S        1.2258560    -1.1625810    -0.0000180
  N        0.3264180     1.2510610     0.0000150
  C       -1.5198050    -0.4073720    -0.0000100
  C       -0.0728400    -0.0059560    -0.0000040
  C       -2.2053760     0.1167870    -1.2644160
  C       -2.2053680     0.1167230     1.2644280
  C        2.3605110     0.1219000     0.0000040
  C        1.6961240     1.3252530     0.0000200
  H       -1.5697880    -1.5042720    -0.0000380
  H       -2.1392250     1.2073760    -1.2930360
  H       -3.2606770    -0.1742520    -1.2762350
  H       -1.7266260    -0.2804090    -2.1642060
  H       -1.7266100    -0.2805170     2.1641940
  H       -3.2606680    -0.1743180     1.2762400
  H       -2.1392170     1.2073110     1.2931010
  H        3.4272515    -0.0583743    -0.2499970
  H        2.1774630     2.2973190     0.0000360
units angstrom
no_reorient  #important for SAPT in psi4, default
symmetry c1  #important for SAPT in psi4, default
}

set PROPERTIES_ORIGIN ["COM"]
properties('MP2/aug-cc-pvtz', properties = ['dipole'])
--------------------------------------------------------------------------

    Molecular point group: c1
  Charge       = 0
  Multiplicity = 1
  Basis Set: AUG-CC-PVTZ
    Blend: AUG-CC-PVTZ
  Basis Set: (AUG-CC-PVTZ AUX)
    Blend: AUG-CC-PVTZ-JKFIT

    Orbital Energies [Eh]
    ---------------------

    Doubly Occupied:

       1A    -91.993810     2A    -15.564253     3A    -11.310691
       4A    -11.269917     5A    -11.262242     6A    -11.249682
       7A    -11.219917     8A    -11.219253     9A     -8.994473
      10A     -6.675370    11A     -6.674845    12A     -6.674138
      13A     -1.275190    14A     -1.094837    15A     -1.060713
      16A     -0.980783    17A     -0.936049    18A     -0.840255
      19A     -0.789990    20A     -0.715616    21A     -0.681869
      22A     -0.623764    23A     -0.601917    24A     -0.587383
      25A     -0.565122    26A     -0.545419    27A     -0.530869
      28A     -0.504329    29A     -0.498952    30A     -0.487499
      31A     -0.483010    32A     -0.422327    33A     -0.386890
      34A     -0.327992

  @DF-RHF Final Energy:  -684.53020807388725

   => Energetics <=

    Nuclear Repulsion Energy =            437.4202601968220279
    One-Electron Energy =               -1805.8022012543315213
    Two-Electron Energy =                 683.8517329836222416
    Total Energy =                       -684.5302080738872519
  Basis Set: (AUG-CC-PVTZ AUX)
    Blend: AUG-CC-PVTZ-RI
    Molecular point group: c1

    Geometry (in Angstrom), charge = 0, multiplicity = 1:

       Center              X                  Y                   Z               Mass
    ------------   -----------------  -----------------  -----------------  -----------------
         S            1.146318325288    -1.145374481132     0.001965526436    31.972071174400
         N            0.246880325288     1.268267518868     0.001998526436    14.003074004430
         C           -1.599342674712    -0.390165481132     0.001973526436    12.000000000000
         C           -0.152377674712     0.011250518868     0.001979526436    12.000000000000
         C           -2.284913674712     0.133993518868    -1.262432473564    12.000000000000
         C           -2.284905674712     0.133929518868     1.266411526436    12.000000000000
         C            2.280973325288     0.139106518868     0.001987526436    12.000000000000
         C            1.616586325288     1.342459518868     0.002003526436    12.000000000000
         H           -1.649325674712    -1.487065481132     0.001945526436     1.007825032230
         H           -2.218762674712     1.224582518868    -1.291052473564     1.007825032230
         H           -3.340214674712    -0.157045481132    -1.274251473564     1.007825032230
         H           -1.806163674712    -0.263202481132    -2.162222473564     1.007825032230
         H           -1.806147674712    -0.263310481132     2.166177526436     1.007825032230
         H           -3.340205674712    -0.157111481132     1.278223526436     1.007825032230
         H           -2.218754674712     1.224517518868     1.295084526436     1.007825032230
         H            3.347713825288    -0.041167781132    -0.248013473564     1.007825032230
         H            2.097925325288     2.314525518868     0.002019526436     1.007825032230

  Basis Set: AUG-CC-PVTZ
    Blend: AUG-CC-PVTZ
  Basis Set: (AUG-CC-PVTZ AUX)
    Blend: AUG-CC-PVTZ-JKFIT
	 Reference Energy          =    -684.5302080738872519 [Eh]
	 Singles Energy            =      -0.0000000000000000 [Eh]
	 Same-Spin Energy          =      -0.3770726861524391 [Eh]
	 Opposite-Spin Energy      =      -1.1971780121485576 [Eh]
	 Correlation Energy        =      -1.5742506983009967 [Eh]
	 Total Energy              =    -686.1044587721881953 [Eh]

	 ================> DF-SCS-MP2 Energies <==================
	-----------------------------------------------------------
	 SCS Same-Spin Scale       =       0.3333333333333333 [-]
	 SCS Opposite-Spin Scale   =       1.2000000000000000 [-]
	 SCS Same-Spin Energy      =      -0.1256908953841464 [Eh]
	 SCS Opposite-Spin Energy  =      -1.4366136145782691 [Eh]
	 SCS Correlation Energy    =      -1.5623045099624155 [Eh]
	 SCS Total Energy          =    -686.0925125838496115 [Eh]
	-----------------------------------------------------------

  Dipole Moment: [D]
     X:     0.4456      Y:    -1.1319      Z:    -0.2087     Total:     1.2343

*** Psi4 exiting successfully. Buy a developer a beer!
