                               Psi4 1.3.2 release

  ==> Input File <==

--------------------------------------------------------------------------
#psi4
#
memory 32 gb

molecule  {
0 1
  N        0.0801310     2.5312230    -0.3913130
  N       -1.9006720     0.7782080     0.6229160
  C        0.3499640     0.1224320    -0.0065570
  C        0.8960730     1.4188800    -0.1658420
  C        2.6063130    -0.8406050     0.1180930
  C        1.2173430    -0.9692250     0.1590540
  C       -1.1077440    -0.1233710    -0.0042630
  C        2.2930069     1.5592935    -0.1294317
  C        3.1306880     0.4434260    -0.0762550
  C        3.5085210    -2.0251140     0.3469700
  C       -1.6410700    -1.2638430    -0.6279320
  C       -3.0109220    -1.5027310    -0.5649580
  C       -3.2228950     0.5407920     0.6622730
  C       -3.8232840    -0.5849970     0.1005040
  H        0.7834850    -1.9532010     0.3364590
  H        2.7242150     2.5332940    -0.3759070
  H        4.2098530     0.5856070    -0.1209690
  H        3.8288200    -2.0891060     1.3929170
  H        2.9990460    -2.9607700     0.0984840
  H        4.4097140    -1.9577250    -0.2701360
  H       -0.9841790    -1.9393540    -1.1680850
  H        0.5549050     3.4095210    -0.2083710
  H       -0.8007830     2.4663430     0.1128890
  H       -3.4393090    -2.3812410    -1.0417430
  H       -3.8215100     1.2923600     1.1747000
  H       -4.8979480    -0.7268890     0.1711280
units angstrom
no_reorient  #important for SAPT in psi4, default
symmetry c1  #important for SAPT in psi4, default
}

set PROPERTIES_ORIGIN ["COM"]
properties('MP2/aug-cc-pvtz', properties = ['dipole'])
--------------------------------------------------------------------------

    Molecular point group: c1
  Charge       = 0
  Multiplicity = 1
  Basis Set: AUG-CC-PVTZ
    Blend: AUG-CC-PVTZ
  Basis Set: (AUG-CC-PVTZ AUX)
    Blend: AUG-CC-PVTZ-JKFIT

    Orbital Energies [Eh]
    ---------------------

    Doubly Occupied:

       1A    -15.567726     2A    -15.547463     3A    -11.288728
       4A    -11.280347     5A    -11.275800     6A    -11.262503
       7A    -11.241820     8A    -11.240981     9A    -11.233973
      10A    -11.233466    11A    -11.232550    12A    -11.226762
      13A    -11.223149    14A    -11.219677    15A     -1.261119
      16A     -1.210536    17A     -1.131537    18A     -1.087977
      19A     -1.063007    20A     -1.015772    21A     -0.992257
      22A     -0.915547    23A     -0.870548    24A     -0.862213
      25A     -0.814790    26A     -0.783027    27A     -0.708913
      28A     -0.689448    29A     -0.681591    30A     -0.660450
      31A     -0.650210    32A     -0.612911    33A     -0.601035
      34A     -0.588708    35A     -0.583017    36A     -0.573999
      37A     -0.569675    38A     -0.548095    39A     -0.532489
      40A     -0.529176    41A     -0.511856    42A     -0.493094
      43A     -0.485309    44A     -0.433664    45A     -0.419166
      46A     -0.387672    47A     -0.366636    48A     -0.316443
      49A     -0.279221

  @DF-RHF Final Energy:  -570.49971269294588

   => Energetics <=

    Nuclear Repulsion Energy =            811.9169355666045931
    One-Electron Energy =               -2384.2211975350546709
    Two-Electron Energy =                1001.8045492755043142
    Total Energy =                       -570.4997126929458773
  Basis Set: (AUG-CC-PVTZ AUX)
    Blend: AUG-CC-PVTZ-RI
    Molecular point group: c1

    Geometry (in Angstrom), charge = 0, multiplicity = 1:

       Center              X                  Y                   Z               Mass
    ------------   -----------------  -----------------  -----------------  -----------------
         N            0.110176499998     2.510086786106    -0.397207494599    14.003074004430
         N           -1.870626500002     0.757071786106     0.617021505401    14.003074004430
         C            0.380009499998     0.101295786106    -0.012451494599    12.000000000000
         C            0.926118499998     1.397743786106    -0.171736494599    12.000000000000
         C            2.636358499998    -0.861741213894     0.112198505401    12.000000000000
         C            1.247388499998    -0.990361213894     0.153159505401    12.000000000000
         C           -1.077698500002    -0.144507213894    -0.010157494599    12.000000000000
         C            2.323052399998     1.538157286106    -0.135326194599    12.000000000000
         C            3.160733499998     0.422289786106    -0.082149494599    12.000000000000
         C            3.538566499998    -2.046250213894     0.341075505401    12.000000000000
         C           -1.611024500002    -1.284979213894    -0.633826494599    12.000000000000
         C           -2.980876500002    -1.523867213894    -0.570852494599    12.000000000000
         C           -3.192849500002     0.519655786106     0.656378505401    12.000000000000
         C           -3.793238500002    -0.606133213894     0.094609505401    12.000000000000
         H            0.813530499998    -1.974337213894     0.330564505401     1.007825032230
         H            2.754260499998     2.512157786106    -0.381801494599     1.007825032230
         H            4.239898499998     0.564470786106    -0.126863494599     1.007825032230
         H            3.858865499998    -2.110242213894     1.387022505401     1.007825032230
         H            3.029091499998    -2.981906213894     0.092589505401     1.007825032230
         H            4.439759499998    -1.978861213894    -0.276030494599     1.007825032230
         H           -0.954133500002    -1.960490213894    -1.173979494599     1.007825032230
         H            0.584950499998     3.388384786106    -0.214265494599     1.007825032230
         H           -0.770737500002     2.445206786106     0.106994505401     1.007825032230
         H           -3.409263500002    -2.402377213894    -1.047637494599     1.007825032230
         H           -3.791464500002     1.271223786106     1.168805505401     1.007825032230
         H           -4.867902500002    -0.748025213894     0.165233505401     1.007825032230

  Basis Set: AUG-CC-PVTZ
    Blend: AUG-CC-PVTZ
  Basis Set: (AUG-CC-PVTZ AUX)
    Blend: AUG-CC-PVTZ-JKFIT
	 Reference Energy          =    -570.4997126929458773 [Eh]
	 Singles Energy            =      -0.0000000000000000 [Eh]
	 Same-Spin Energy          =      -0.6409115115500968 [Eh]
	 Opposite-Spin Energy      =      -1.9779080732409777 [Eh]
	 Correlation Energy        =      -2.6188195847910745 [Eh]
	 Total Energy              =    -573.1185322777369038 [Eh]

	 ================> DF-SCS-MP2 Energies <==================
	-----------------------------------------------------------
	 SCS Same-Spin Scale       =       0.3333333333333333 [-]
	 SCS Opposite-Spin Scale   =       1.2000000000000000 [-]
	 SCS Same-Spin Energy      =      -0.2136371705166989 [Eh]
	 SCS Opposite-Spin Energy  =      -2.3734896878891734 [Eh]
	 SCS Correlation Energy    =      -2.5871268584058722 [Eh]
	 SCS Total Energy          =    -573.0868395513517726 [Eh]
	-----------------------------------------------------------

  Dipole Moment: [D]
     X:    -1.1230      Y:    -1.0081      Z:     0.0150     Total:     1.5092

*** Psi4 exiting successfully. Buy a developer a beer!
