                               Psi4 1.3.2 release

  ==> Input File <==

--------------------------------------------------------------------------
#psi4
#
memory 32 gb

molecule  {
0 1
  N        0.0801310     2.5312230    -0.3913130
  N       -1.9006720     0.7782080     0.6229160
  C        0.3499640     0.1224320    -0.0065570
  C        0.8960730     1.4188800    -0.1658420
  C        2.6063130    -0.8406050     0.1180930
  C        1.2173430    -0.9692250     0.1590540
  C       -1.1077440    -0.1233710    -0.0042630
  C        2.2926287     1.5829116     0.0186968
  C        3.1306880     0.4434260    -0.0762550
  C        3.5085210    -2.0251140     0.3469700
  C       -1.6410700    -1.2638430    -0.6279320
  C       -3.0109220    -1.5027310    -0.5649580
  C       -3.2228950     0.5407920     0.6622730
  C       -3.8232840    -0.5849970     0.1005040
  H        0.7834850    -1.9532010     0.3364590
  H        2.7242150     2.5332940    -0.3759070
  H        4.2098530     0.5856070    -0.1209690
  H        3.8288200    -2.0891060     1.3929170
  H        2.9990460    -2.9607700     0.0984840
  H        4.4097140    -1.9577250    -0.2701360
  H       -0.9841790    -1.9393540    -1.1680850
  H        0.5549050     3.4095210    -0.2083710
  H       -0.8007830     2.4663430     0.1128890
  H       -3.4393090    -2.3812410    -1.0417430
  H       -3.8215100     1.2923600     1.1747000
  H       -4.8979480    -0.7268890     0.1711280
units angstrom
no_reorient  #important for SAPT in psi4, default
symmetry c1  #important for SAPT in psi4, default
}

set PROPERTIES_ORIGIN ["COM"]
properties('MP2/aug-cc-pvtz', properties = ['dipole'])
--------------------------------------------------------------------------

    Molecular point group: c1
  Charge       = 0
  Multiplicity = 1
  Basis Set: AUG-CC-PVTZ
    Blend: AUG-CC-PVTZ
  Basis Set: (AUG-CC-PVTZ AUX)
    Blend: AUG-CC-PVTZ-JKFIT

    Orbital Energies [Eh]
    ---------------------

    Doubly Occupied:

       1A    -15.568173     2A    -15.548158     3A    -11.289072
       4A    -11.280738     5A    -11.279650     6A    -11.262872
       7A    -11.242261     8A    -11.241397     9A    -11.237607
      10A    -11.236819    11A    -11.232913    12A    -11.226863
      13A    -11.226403    14A    -11.220125    15A     -1.261515
      16A     -1.210548    17A     -1.131316    18A     -1.088385
      19A     -1.062978    20A     -1.013621    21A     -0.991754
      22A     -0.915446    23A     -0.870031    24A     -0.862523
      25A     -0.814383    26A     -0.781532    27A     -0.708892
      28A     -0.688485    29A     -0.681917    30A     -0.660386
      31A     -0.650371    32A     -0.610156    33A     -0.601121
      34A     -0.588345    35A     -0.581432    36A     -0.574340
      37A     -0.568805    38A     -0.548121    39A     -0.532311
      40A     -0.529153    41A     -0.510054    42A     -0.492630
      43A     -0.481586    44A     -0.431003    45A     -0.419684
      46A     -0.387969    47A     -0.366647    48A     -0.316801
      49A     -0.280321

  @DF-RHF Final Energy:  -570.48562592209919

   => Energetics <=

    Nuclear Repulsion Energy =            811.3407057883171092
    One-Electron Energy =               -2383.0374397157124804
    Two-Electron Energy =                1001.2111080052961825
    Total Energy =                       -570.4856259220991888
  Basis Set: (AUG-CC-PVTZ AUX)
    Blend: AUG-CC-PVTZ-RI
    Molecular point group: c1

    Geometry (in Angstrom), charge = 0, multiplicity = 1:

       Center              X                  Y                   Z               Mass
    ------------   -----------------  -----------------  -----------------  -----------------
         N            0.110201151812     2.508547312312    -0.406862798959    14.003074004430
         N           -1.870601848188     0.755532312312     0.607366201041    14.003074004430
         C            0.380034151812     0.099756312312    -0.022106798959    12.000000000000
         C            0.926143151812     1.396204312312    -0.181391798959    12.000000000000
         C            2.636383151812    -0.863280687688     0.102543201041    12.000000000000
         C            1.247413151812    -0.991900687688     0.143504201041    12.000000000000
         C           -1.077673848188    -0.146046687688    -0.019812798959    12.000000000000
         C            2.322698851812     1.560235912312     0.003147001041    12.000000000000
         C            3.160758151812     0.420750312312    -0.091804798959    12.000000000000
         C            3.538591151812    -2.047789687688     0.331420201041    12.000000000000
         C           -1.610999848188    -1.286518687688    -0.643481798959    12.000000000000
         C           -2.980851848188    -1.525406687688    -0.580507798959    12.000000000000
         C           -3.192824848188     0.518116312312     0.646723201041    12.000000000000
         C           -3.793213848188    -0.607672687688     0.084954201041    12.000000000000
         H            0.813555151812    -1.975876687688     0.320909201041     1.007825032230
         H            2.754285151812     2.510618312312    -0.391456798959     1.007825032230
         H            4.239923151812     0.562931312312    -0.136518798959     1.007825032230
         H            3.858890151812    -2.111781687688     1.377367201041     1.007825032230
         H            3.029116151812    -2.983445687688     0.082934201041     1.007825032230
         H            4.439784151812    -1.980400687688    -0.285685798959     1.007825032230
         H           -0.954108848188    -1.962029687688    -1.183634798959     1.007825032230
         H            0.584975151812     3.386845312312    -0.223920798959     1.007825032230
         H           -0.770712848188     2.443667312312     0.097339201041     1.007825032230
         H           -3.409238848188    -2.403916687688    -1.057292798959     1.007825032230
         H           -3.791439848188     1.269684312312     1.159150201041     1.007825032230
         H           -4.867877848188    -0.749564687688     0.155578201041     1.007825032230

  Basis Set: AUG-CC-PVTZ
    Blend: AUG-CC-PVTZ
  Basis Set: (AUG-CC-PVTZ AUX)
    Blend: AUG-CC-PVTZ-JKFIT
	 Reference Energy          =    -570.4856259220991888 [Eh]
	 Singles Energy            =      -0.0000000000000000 [Eh]
	 Same-Spin Energy          =      -0.6414653250974861 [Eh]
	 Opposite-Spin Energy      =      -1.9798417558062404 [Eh]
	 Correlation Energy        =      -2.6213070809037267 [Eh]
	 Total Energy              =    -573.1069330030029505 [Eh]

	 ================> DF-SCS-MP2 Energies <==================
	-----------------------------------------------------------
	 SCS Same-Spin Scale       =       0.3333333333333333 [-]
	 SCS Opposite-Spin Scale   =       1.2000000000000000 [-]
	 SCS Same-Spin Energy      =      -0.2138217750324954 [Eh]
	 SCS Opposite-Spin Energy  =      -2.3758101069674886 [Eh]
	 SCS Correlation Energy    =      -2.5896318819999840 [Eh]
	 SCS Total Energy          =    -573.0752578040991239 [Eh]
	-----------------------------------------------------------

  Dipole Moment: [D]
     X:    -1.2320      Y:    -1.1399      Z:    -0.0787     Total:     1.6803

*** Psi4 exiting successfully. Buy a developer a beer!
