                               Psi4 1.3.2 release

  ==> Input File <==

--------------------------------------------------------------------------
#psi4
#
memory 32 gb

molecule  {
0 1
  N        0.0801310     2.5312230    -0.3913130
  N       -1.9006720     0.7782080     0.6229160
  C        0.3499640     0.1224320    -0.0065570
  C        0.8960730     1.4188800    -0.1658420
  C        2.6063130    -0.8406050     0.1180930
  C        1.2173430    -0.9692250     0.1590540
  C       -1.1077440    -0.1233710    -0.0042630
  C        2.2927548     1.5750389    -0.0306794
  C        3.1306880     0.4434260    -0.0762550
  C        3.5085210    -2.0251140     0.3469700
  C       -1.6410700    -1.2638430    -0.6279320
  C       -3.0109220    -1.5027310    -0.5649580
  C       -3.2228950     0.5407920     0.6622730
  C       -3.8232840    -0.5849970     0.1005040
  H        0.7834850    -1.9532010     0.3364590
  H        2.7242150     2.5332940    -0.3759070
  H        4.2098530     0.5856070    -0.1209690
  H        3.8288200    -2.0891060     1.3929170
  H        2.9990460    -2.9607700     0.0984840
  H        4.4097140    -1.9577250    -0.2701360
  H       -0.9841790    -1.9393540    -1.1680850
  H        0.5549050     3.4095210    -0.2083710
  H       -0.8007830     2.4663430     0.1128890
  H       -3.4393090    -2.3812410    -1.0417430
  H       -3.8215100     1.2923600     1.1747000
  H       -4.8979480    -0.7268890     0.1711280
units angstrom
no_reorient  #important for SAPT in psi4, default
symmetry c1  #important for SAPT in psi4, default
}

set PROPERTIES_ORIGIN ["COM"]
properties('MP2/aug-cc-pvtz', properties = ['dipole'])
--------------------------------------------------------------------------

    Molecular point group: c1
  Charge       = 0
  Multiplicity = 1
  Basis Set: AUG-CC-PVTZ
    Blend: AUG-CC-PVTZ
  Basis Set: (AUG-CC-PVTZ AUX)
    Blend: AUG-CC-PVTZ-JKFIT

    Orbital Energies [Eh]
    ---------------------

    Doubly Occupied:

       1A    -15.567999     2A    -15.547776     3A    -11.288919
       4A    -11.280577     5A    -11.277958     6A    -11.262717
       7A    -11.242094     8A    -11.241228     9A    -11.235895
      10A    -11.235563    11A    -11.232810    12A    -11.226835
      13A    -11.224998    14A    -11.219948    15A     -1.261350
      16A     -1.210515    17A     -1.131381    18A     -1.088220
      19A     -1.062981    20A     -1.014545    21A     -0.991986
      22A     -0.915481    23A     -0.870264    24A     -0.862395
      25A     -0.814578    26A     -0.782127    27A     -0.708882
      28A     -0.688844    29A     -0.681790    30A     -0.660398
      31A     -0.650307    32A     -0.611164    33A     -0.601180
      34A     -0.588384    35A     -0.582483    36A     -0.574232
      37A     -0.569169    38A     -0.548074    39A     -0.532450
      40A     -0.529113    41A     -0.510621    42A     -0.492912
      43A     -0.483307    44A     -0.431956    45A     -0.419512
      46A     -0.387849    47A     -0.366642    48A     -0.316609
      49A     -0.279944

  @DF-RHF Final Energy:  -570.49182824283662

   => Energetics <=

    Nuclear Repulsion Energy =            811.5884690005124185
    One-Electron Energy =               -2383.5466737807819300
    Two-Electron Energy =                1001.4663765374330069
    Total Energy =                       -570.4918282428366183
  Basis Set: (AUG-CC-PVTZ AUX)
    Blend: AUG-CC-PVTZ-RI
    Molecular point group: c1

    Geometry (in Angstrom), charge = 0, multiplicity = 1:

       Center              X                  Y                   Z               Mass
    ------------   -----------------  -----------------  -----------------  -----------------
         N            0.110192932368     2.509060470243    -0.403644361999    14.003074004430
         N           -1.870610067632     0.756045470243     0.610584638001    14.003074004430
         C            0.380025932368     0.100269470243    -0.018888361999    12.000000000000
         C            0.926134932368     1.396717470243    -0.178173361999    12.000000000000
         C            2.636374932368    -0.862767529757     0.105761638001    12.000000000000
         C            1.247404932368    -0.991387529757     0.146722638001    12.000000000000
         C           -1.077682067632    -0.145533529757    -0.016594361999    12.000000000000
         C            2.322816732368     1.552876370243    -0.043010761999    12.000000000000
         C            3.160749932368     0.421263470243    -0.088586361999    12.000000000000
         C            3.538582932368    -2.047276529757     0.334638638001    12.000000000000
         C           -1.611008067632    -1.286005529757    -0.640263361999    12.000000000000
         C           -2.980860067632    -1.524893529757    -0.577289361999    12.000000000000
         C           -3.192833067632     0.518629470243     0.649941638001    12.000000000000
         C           -3.793222067632    -0.607159529757     0.088172638001    12.000000000000
         H            0.813546932368    -1.975363529757     0.324127638001     1.007825032230
         H            2.754276932368     2.511131470243    -0.388238361999     1.007825032230
         H            4.239914932368     0.563444470243    -0.133300361999     1.007825032230
         H            3.858881932368    -2.111268529757     1.380585638001     1.007825032230
         H            3.029107932368    -2.982932529757     0.086152638001     1.007825032230
         H            4.439775932368    -1.979887529757    -0.282467361999     1.007825032230
         H           -0.954117067632    -1.961516529757    -1.180416361999     1.007825032230
         H            0.584966932368     3.387358470243    -0.220702361999     1.007825032230
         H           -0.770721067632     2.444180470243     0.100557638001     1.007825032230
         H           -3.409247067632    -2.403403529757    -1.054074361999     1.007825032230
         H           -3.791448067632     1.270197470243     1.162368638001     1.007825032230
         H           -4.867886067632    -0.749051529757     0.158796638001     1.007825032230

  Basis Set: AUG-CC-PVTZ
    Blend: AUG-CC-PVTZ
  Basis Set: (AUG-CC-PVTZ AUX)
    Blend: AUG-CC-PVTZ-JKFIT
	 Reference Energy          =    -570.4918282428366183 [Eh]
	 Singles Energy            =      -0.0000000000000000 [Eh]
	 Same-Spin Energy          =      -0.6412284808338968 [Eh]
	 Opposite-Spin Energy      =      -1.9789933189555229 [Eh]
	 Correlation Energy        =      -2.6202217997894195 [Eh]
	 Total Energy              =    -573.1120500426260378 [Eh]

	 ================> DF-SCS-MP2 Energies <==================
	-----------------------------------------------------------
	 SCS Same-Spin Scale       =       0.3333333333333333 [-]
	 SCS Opposite-Spin Scale   =       1.2000000000000000 [-]
	 SCS Same-Spin Energy      =      -0.2137428269446323 [Eh]
	 SCS Opposite-Spin Energy  =      -2.3747919827466273 [Eh]
	 SCS Correlation Energy    =      -2.5885348096912595 [Eh]
	 SCS Total Energy          =    -573.0803630525279004 [Eh]
	-----------------------------------------------------------

  Dipole Moment: [D]
     X:    -1.1863      Y:    -1.0877      Z:    -0.0470     Total:     1.6102

*** Psi4 exiting successfully. Buy a developer a beer!
