                               Psi4 1.3.2 release

  ==> Input File <==

--------------------------------------------------------------------------
#psi4
#
memory 32 gb

molecule  {
0 1
  N        0.0801310     2.5312230    -0.3913130
  N       -1.9006720     0.7782080     0.6229160
  C        0.3499640     0.1224320    -0.0065570
  C        0.8960730     1.4188800    -0.1658420
  C        2.6063130    -0.8406050     0.1180930
  C        1.2173430    -0.9692250     0.1590540
  C       -1.1077440    -0.1233710    -0.0042630
  C        2.2928808     1.5671662    -0.0800555
  C        3.1306880     0.4434260    -0.0762550
  C        3.5085210    -2.0251140     0.3469700
  C       -1.6410700    -1.2638430    -0.6279320
  C       -3.0109220    -1.5027310    -0.5649580
  C       -3.2228950     0.5407920     0.6622730
  C       -3.8232840    -0.5849970     0.1005040
  H        0.7834850    -1.9532010     0.3364590
  H        2.7242150     2.5332940    -0.3759070
  H        4.2098530     0.5856070    -0.1209690
  H        3.8288200    -2.0891060     1.3929170
  H        2.9990460    -2.9607700     0.0984840
  H        4.4097140    -1.9577250    -0.2701360
  H       -0.9841790    -1.9393540    -1.1680850
  H        0.5549050     3.4095210    -0.2083710
  H       -0.8007830     2.4663430     0.1128890
  H       -3.4393090    -2.3812410    -1.0417430
  H       -3.8215100     1.2923600     1.1747000
  H       -4.8979480    -0.7268890     0.1711280
units angstrom
no_reorient  #important for SAPT in psi4, default
symmetry c1  #important for SAPT in psi4, default
}

set PROPERTIES_ORIGIN ["COM"]
properties('MP2/aug-cc-pvtz', properties = ['dipole'])
--------------------------------------------------------------------------

    Molecular point group: c1
  Charge       = 0
  Multiplicity = 1
  Basis Set: AUG-CC-PVTZ
    Blend: AUG-CC-PVTZ
  Basis Set: (AUG-CC-PVTZ AUX)
    Blend: AUG-CC-PVTZ-JKFIT

    Orbital Energies [Eh]
    ---------------------

    Doubly Occupied:

       1A    -15.567851     2A    -15.547547     3A    -11.288806
       4A    -11.280447     5A    -11.276668     6A    -11.262595
       7A    -11.241947     8A    -11.241090     9A    -11.234624
      10A    -11.234491    11A    -11.232695    12A    -11.226804
      13A    -11.223905    14A    -11.219800    15A     -1.261219
      16A     -1.210513    17A     -1.131458    18A     -1.088084
      19A     -1.062993    20A     -1.015266    21A     -0.992147
      22A     -0.915519    23A     -0.870439    24A     -0.862293
      25A     -0.814716    26A     -0.782633    27A     -0.708895
      28A     -0.689173    29A     -0.681685    30A     -0.660424
      31A     -0.650255    32A     -0.612125    33A     -0.601151
      34A     -0.588523    35A     -0.582988    36A     -0.574119
      37A     -0.569447    38A     -0.548067    39A     -0.532509
      40A     -0.529121    41A     -0.511235    42A     -0.493057
      43A     -0.484529    44A     -0.432845    45A     -0.419338
      46A     -0.387751    47A     -0.366640    48A     -0.316495
      49A     -0.279578

  @DF-RHF Final Energy:  -570.49651480647651

   => Energetics <=

    Nuclear Repulsion Energy =            811.7811416202154078
    One-Electron Energy =               -2383.9423128502185136
    Two-Electron Energy =                1001.6646564235267078
    Total Energy =                       -570.4965148064765117
  Basis Set: (AUG-CC-PVTZ AUX)
    Blend: AUG-CC-PVTZ-RI
    Molecular point group: c1

    Geometry (in Angstrom), charge = 0, multiplicity = 1:

       Center              X                  Y                   Z               Mass
    ------------   -----------------  -----------------  -----------------  -----------------
         N            0.110184719442     2.509573628175    -0.400425931558    14.003074004430
         N           -1.870618280558     0.756558628175     0.613803068442    14.003074004430
         C            0.380017719442     0.100782628175    -0.015669931558    12.000000000000
         C            0.926126719442     1.397230628175    -0.174954931558    12.000000000000
         C            2.636366719442    -0.862254371825     0.108980068442    12.000000000000
         C            1.247396719442    -0.990874371825     0.149941068442    12.000000000000
         C           -1.077690280558    -0.145020371825    -0.013375931558    12.000000000000
         C            2.322934519442     1.545516828175    -0.089168431558    12.000000000000
         C            3.160741719442     0.421776628175    -0.085367931558    12.000000000000
         C            3.538574719442    -2.046763371825     0.337857068442    12.000000000000
         C           -1.611016280558    -1.285492371825    -0.637044931558    12.000000000000
         C           -2.980868280558    -1.524380371825    -0.574070931558    12.000000000000
         C           -3.192841280558     0.519142628175     0.653160068442    12.000000000000
         C           -3.793230280558    -0.606646371825     0.091391068442    12.000000000000
         H            0.813538719442    -1.974850371825     0.327346068442     1.007825032230
         H            2.754268719442     2.511644628175    -0.385019931558     1.007825032230
         H            4.239906719442     0.563957628175    -0.130081931558     1.007825032230
         H            3.858873719442    -2.110755371825     1.383804068442     1.007825032230
         H            3.029099719442    -2.982419371825     0.089371068442     1.007825032230
         H            4.439767719442    -1.979374371825    -0.279248931558     1.007825032230
         H           -0.954125280558    -1.961003371825    -1.177197931558     1.007825032230
         H            0.584958719442     3.387871628175    -0.217483931558     1.007825032230
         H           -0.770729280558     2.444693628175     0.103776068442     1.007825032230
         H           -3.409255280558    -2.402890371825    -1.050855931558     1.007825032230
         H           -3.791456280558     1.270710628175     1.165587068442     1.007825032230
         H           -4.867894280558    -0.748538371825     0.162015068442     1.007825032230

  Basis Set: AUG-CC-PVTZ
    Blend: AUG-CC-PVTZ
  Basis Set: (AUG-CC-PVTZ AUX)
    Blend: AUG-CC-PVTZ-JKFIT
	 Reference Energy          =    -570.4965148064765117 [Eh]
	 Singles Energy            =      -0.0000000000000000 [Eh]
	 Same-Spin Energy          =      -0.6410419295899207 [Eh]
	 Opposite-Spin Energy      =      -1.9783424668770373 [Eh]
	 Correlation Energy        =      -2.6193843964669581 [Eh]
	 Total Energy              =    -573.1158992029435240 [Eh]

	 ================> DF-SCS-MP2 Energies <==================
	-----------------------------------------------------------
	 SCS Same-Spin Scale       =       0.3333333333333333 [-]
	 SCS Opposite-Spin Scale   =       1.2000000000000000 [-]
	 SCS Same-Spin Energy      =      -0.2136806431966402 [Eh]
	 SCS Opposite-Spin Energy  =      -2.3740109602524448 [Eh]
	 SCS Correlation Energy    =      -2.5876916034490849 [Eh]
	 SCS Total Energy          =    -573.0842064099256277 [Eh]
	-----------------------------------------------------------

  Dipole Moment: [D]
     X:    -1.1499      Y:    -1.0436      Z:    -0.0158     Total:     1.5530

*** Psi4 exiting successfully. Buy a developer a beer!
