                               Psi4 1.3.2 release

  ==> Input File <==

--------------------------------------------------------------------------
#psi4
#
memory 32 gb

molecule  {
0 1
  N        0.0801310     2.5312230    -0.3913130
  N       -1.9006720     0.7782080     0.6229160
  C        0.3499640     0.1224320    -0.0065570
  C        0.8960730     1.4188800    -0.1658420
  C        2.6063130    -0.8406050     0.1180930
  C        1.2173430    -0.9692250     0.1590540
  C       -1.1077440    -0.1233710    -0.0042630
  C        2.2931329     1.5514207    -0.1788078
  C        3.1306880     0.4434260    -0.0762550
  C        3.5085210    -2.0251140     0.3469700
  C       -1.6410700    -1.2638430    -0.6279320
  C       -3.0109220    -1.5027310    -0.5649580
  C       -3.2228950     0.5407920     0.6622730
  C       -3.8232840    -0.5849970     0.1005040
  H        0.7834850    -1.9532010     0.3364590
  H        2.7242150     2.5332940    -0.3759070
  H        4.2098530     0.5856070    -0.1209690
  H        3.8288200    -2.0891060     1.3929170
  H        2.9990460    -2.9607700     0.0984840
  H        4.4097140    -1.9577250    -0.2701360
  H       -0.9841790    -1.9393540    -1.1680850
  H        0.5549050     3.4095210    -0.2083710
  H       -0.8007830     2.4663430     0.1128890
  H       -3.4393090    -2.3812410    -1.0417430
  H       -3.8215100     1.2923600     1.1747000
  H       -4.8979480    -0.7268890     0.1711280
units angstrom
no_reorient  #important for SAPT in psi4, default
symmetry c1  #important for SAPT in psi4, default
}

set PROPERTIES_ORIGIN ["COM"]
properties('MP2/aug-cc-pvtz', properties = ['dipole'])
--------------------------------------------------------------------------

    Molecular point group: c1
  Charge       = 0
  Multiplicity = 1
  Basis Set: AUG-CC-PVTZ
    Blend: AUG-CC-PVTZ
  Basis Set: (AUG-CC-PVTZ AUX)
    Blend: AUG-CC-PVTZ-JKFIT

    Orbital Energies [Eh]
    ---------------------

    Doubly Occupied:

       1A    -15.567620     2A    -15.547521     3A    -11.288685
       4A    -11.280274     5A    -11.275369     6A    -11.262439
       7A    -11.241709     8A    -11.240896     9A    -11.233613
      10A    -11.232813    11A    -11.232390    12A    -11.226703
      13A    -11.222748    14A    -11.219578    15A     -1.261048
      16A     -1.210579    17A     -1.131610    18A     -1.087895
      19A     -1.063016    20A     -1.016059    21A     -0.992328
      22A     -0.915555    23A     -0.870583    24A     -0.862154
      25A     -0.814793    26A     -0.783291    27A     -0.708922
      28A     -0.689654    29A     -0.681497    30A     -0.660466
      31A     -0.650170    32A     -0.613417    33A     -0.600838
      34A     -0.588884    35A     -0.582666    36A     -0.573868
      37A     -0.569871    38A     -0.548152    39A     -0.532391
      40A     -0.529275    41A     -0.512448    42A     -0.493041
      43A     -0.485694    44A     -0.434408    45A     -0.418994
      46A     -0.387609    47A     -0.366624    48A     -0.316439
      49A     -0.278870

  @DF-RHF Final Energy:  -570.50144630299314

   => Energetics <=

    Nuclear Repulsion Energy =            811.9945663769019575
    One-Electron Energy =               -2384.3810863448593409
    Two-Electron Energy =                1001.8850736649642386
    Total Energy =                       -570.5014463029931449
  Basis Set: (AUG-CC-PVTZ AUX)
    Blend: AUG-CC-PVTZ-RI
    Molecular point group: c1

    Geometry (in Angstrom), charge = 0, multiplicity = 1:

       Center              X                  Y                   Z               Mass
    ------------   -----------------  -----------------  -----------------  -----------------
         N            0.110168287073     2.510599950556    -0.393989064157    14.003074004430
         N           -1.870634712927     0.757584950556     0.620239935843    14.003074004430
         C            0.380001287073     0.101808950556    -0.009233064157    12.000000000000
         C            0.926110287073     1.398256950556    -0.168518064157    12.000000000000
         C            2.636350287073    -0.861228049444     0.115416935843    12.000000000000
         C            1.247380287073    -0.989848049444     0.156377935843    12.000000000000
         C           -1.077706712927    -0.143994049444    -0.006939064157    12.000000000000
         C            2.323170187073     1.530797650556    -0.181483864157    12.000000000000
         C            3.160725287073     0.422802950556    -0.078931064157    12.000000000000
         C            3.538558287073    -2.045737049444     0.344293935843    12.000000000000
         C           -1.611032712927    -1.284466049444    -0.630608064157    12.000000000000
         C           -2.980884712927    -1.523354049444    -0.567634064157    12.000000000000
         C           -3.192857712927     0.520168950556     0.659596935843    12.000000000000
         C           -3.793246712927    -0.605620049444     0.097827935843    12.000000000000
         H            0.813522287073    -1.973824049444     0.333782935843     1.007825032230
         H            2.754252287073     2.512670950556    -0.378583064157     1.007825032230
         H            4.239890287073     0.564983950556    -0.123645064157     1.007825032230
         H            3.858857287073    -2.109729049444     1.390240935843     1.007825032230
         H            3.029083287073    -2.981393049444     0.095807935843     1.007825032230
         H            4.439751287073    -1.978348049444    -0.272812064157     1.007825032230
         H           -0.954141712927    -1.959977049444    -1.170761064157     1.007825032230
         H            0.584942287073     3.388897950556    -0.211047064157     1.007825032230
         H           -0.770745712927     2.445719950556     0.110212935843     1.007825032230
         H           -3.409271712927    -2.401864049444    -1.044419064157     1.007825032230
         H           -3.791472712927     1.271736950556     1.172023935843     1.007825032230
         H           -4.867910712927    -0.747512049444     0.168451935843     1.007825032230

  Basis Set: AUG-CC-PVTZ
    Blend: AUG-CC-PVTZ
  Basis Set: (AUG-CC-PVTZ AUX)
    Blend: AUG-CC-PVTZ-JKFIT
	 Reference Energy          =    -570.5014463029931449 [Eh]
	 Singles Energy            =      -0.0000000000000000 [Eh]
	 Same-Spin Energy          =      -0.6408417881036562 [Eh]
	 Opposite-Spin Energy      =      -1.9777023788992381 [Eh]
	 Correlation Energy        =      -2.6185441670028942 [Eh]
	 Total Energy              =    -573.1199904699960825 [Eh]

	 ================> DF-SCS-MP2 Energies <==================
	-----------------------------------------------------------
	 SCS Same-Spin Scale       =       0.3333333333333333 [-]
	 SCS Opposite-Spin Scale   =       1.2000000000000000 [-]
	 SCS Same-Spin Energy      =      -0.2136139293678854 [Eh]
	 SCS Opposite-Spin Energy  =      -2.3732428546790856 [Eh]
	 SCS Correlation Energy    =      -2.5868567840469709 [Eh]
	 SCS Total Energy          =    -573.0883030870401171 [Eh]
	-----------------------------------------------------------

  Dipole Moment: [D]
     X:    -1.1053      Y:    -0.9813      Z:     0.0460     Total:     1.4788

*** Psi4 exiting successfully. Buy a developer a beer!
