                               Psi4 1.4a3.dev225

  ==> Input File <==

--------------------------------------------------------------------------
#psi4
#
memory 32 gb

molecule  {
0 1
  N        0.9404650     1.6044440    -0.2603840
  N       -2.0603346    -0.4687949     0.3245329
  C        0.0733550     0.6450740     0.4388170
  C        0.8648870    -0.6349690     0.7149280
  C       -1.1572530     0.4065190    -0.4308380
  C        1.3403660    -1.3686840    -0.5373980
  H       -0.2919930     1.0197560     1.4097680
  H        0.2501680    -1.2934280     1.3390890
  H        1.7346290    -0.3675780     1.3302640
  H       -1.7030210     1.3537690    -0.5225160
  H       -0.8245660     0.1340620    -1.4434830
  H        1.9943120    -2.2039600    -0.2694910
  H        0.5025080    -1.7807990    -1.1082240
  H        1.8904320    -0.6904920    -1.1924240
  H        1.7396730     1.8267360     0.3337390
  H        0.4376740     2.4833400    -0.3885230
  H       -1.6829760    -1.5021330     0.0801800
  H       -2.9543020    -0.5584070    -0.2807090
units angstrom
no_reorient  #important for SAPT in psi4, default
symmetry c1  #important for SAPT in psi4, default
}

set PROPERTIES_ORIGIN ["COM"]
properties('MP2/aug-cc-pvtz', properties = ['dipole'])
--------------------------------------------------------------------------

    Molecular point group: c1
  Charge       = 0
  Multiplicity = 1
  Basis Set: AUG-CC-PVTZ
    Blend: AUG-CC-PVTZ
  Basis Set: (AUG-CC-PVTZ AUX)
    Blend: AUG-CC-PVTZ-JKFIT

    Orbital Energies [Eh]
    ---------------------

    Doubly Occupied:

       1A    -15.567414     2A    -15.537502     3A    -11.244424
       4A    -11.243083     5A    -11.213905     6A    -11.206090
       7A     -1.195582     8A     -1.152411     9A     -1.028519
      10A     -0.932783    11A     -0.861301    12A     -0.747830
      13A     -0.665909    14A     -0.654625    15A     -0.638183
      16A     -0.585383    17A     -0.571409    18A     -0.554239
      19A     -0.515880    20A     -0.507506    21A     -0.491737
      22A     -0.467450    23A     -0.449211    24A     -0.413272
      25A     -0.389308

  @DF-RHF Final Energy:  -267.42295010900921

   => Energetics <=

    Nuclear Repulsion Energy =            264.3852088588203628
    One-Electron Energy =                -885.9464071459948400
    Two-Electron Energy =                 354.1382481781652132
    Total Energy =                       -267.4229501090092072
  Basis Set: (AUG-CC-PVTZ AUX)
    Blend: AUG-CC-PVTZ-RI
    Molecular point group: c1

    Geometry (in Angstrom), charge = 0, multiplicity = 1:

       Center              X                  Y                   Z               Mass
    ------------   -----------------  -----------------  -----------------  -----------------
         N            0.953226284012     1.571681616000    -0.287699374198    14.003074004430
         N           -2.047573315988    -0.501557284000     0.297217525802    14.003074004430
         C            0.086116284012     0.612311616000     0.411501625802    12.000000000000
         C            0.877648284012    -0.667731384000     0.687612625802    12.000000000000
         C           -1.144491715988     0.373756616000    -0.458153374198    12.000000000000
         C            1.353127284012    -1.401446384000    -0.564713374198    12.000000000000
         H           -0.279231715988     0.986993616000     1.382452625802     1.007825032230
         H            0.262929284012    -1.326190384000     1.311773625802     1.007825032230
         H            1.747390284012    -0.400340384000     1.302948625802     1.007825032230
         H           -1.690259715988     1.321006616000    -0.549831374198     1.007825032230
         H           -0.811804715988     0.101299616000    -1.470798374198     1.007825032230
         H            2.007073284012    -2.236722384000    -0.296806374198     1.007825032230
         H            0.515269284012    -1.813561384000    -1.135539374198     1.007825032230
         H            1.903193284012    -0.723254384000    -1.219739374198     1.007825032230
         H            1.752434284012     1.793973616000     0.306423625802     1.007825032230
         H            0.450435284012     2.450577616000    -0.415838374198     1.007825032230
         H           -1.670214715988    -1.534895384000     0.052864625802     1.007825032230
         H           -2.941540715988    -0.591169384000    -0.308024374198     1.007825032230

  Basis Set: AUG-CC-PVTZ
    Blend: AUG-CC-PVTZ
  Basis Set: (AUG-CC-PVTZ AUX)
    Blend: AUG-CC-PVTZ-JKFIT
	 Reference Energy          =    -267.4229501090092072 [Eh]
	 Singles Energy            =      -0.0000000000000000 [Eh]
	 Same-Spin Energy          =      -0.2854065151431722 [Eh]
	 Opposite-Spin Energy      =      -0.9958861626764736 [Eh]
	 Correlation Energy        =      -1.2812926778196458 [Eh]
	 Total Energy              =    -268.7042427868288428 [Eh]

	 ================> DF-SCS-MP2 Energies <==================
	-----------------------------------------------------------
	 SCS Same-Spin Scale       =       0.3333333333333333 [-]
	 SCS Opposite-Spin Scale   =       1.2000000000000000 [-]
	 SCS Same-Spin Energy      =      -0.0951355050477241 [Eh]
	 SCS Opposite-Spin Energy  =      -1.1950633952117682 [Eh]
	 SCS Correlation Energy    =      -1.2901989002594922 [Eh]
	 SCS Total Energy          =    -268.7131490092687045 [Eh]
	-----------------------------------------------------------

  Dipole Moment: [D]
     X:    -0.1975      Y:     0.1545      Z:    -0.2950     Total:     0.3872

*** Psi4 exiting successfully. Buy a developer a beer!
