                               Psi4 1.4a3.dev225

  ==> Input File <==

--------------------------------------------------------------------------
#psi4
#
memory 32 gb

molecule  {
0 1
  N        0.8202862     1.7005431    -0.2606336
  N       -2.0577020    -0.5628020     0.2031370
  C        0.0733550     0.6450740     0.4388170
  C        0.8648870    -0.6349690     0.7149280
  C       -1.1572530     0.4065190    -0.4308380
  C        1.3403660    -1.3686840    -0.5373980
  H       -0.2919930     1.0197560     1.4097680
  H        0.2501680    -1.2934280     1.3390890
  H        1.7346290    -0.3675780     1.3302640
  H       -1.7030210     1.3537690    -0.5225160
  H       -0.8245660     0.1340620    -1.4434830
  H        1.9943120    -2.2039600    -0.2694910
  H        0.5025080    -1.7807990    -1.1082240
  H        1.8904320    -0.6904920    -1.1924240
  H        1.7396730     1.8267360     0.3337390
  H        0.4376740     2.4833400    -0.3885230
  H       -1.6829760    -1.5021330     0.0801800
  H       -2.9543020    -0.5584070    -0.2807090
units angstrom
no_reorient  #important for SAPT in psi4, default
symmetry c1  #important for SAPT in psi4, default
}

set PROPERTIES_ORIGIN ["COM"]
properties('MP2/aug-cc-pvtz', properties = ['dipole'])
--------------------------------------------------------------------------

    Molecular point group: c1
  Charge       = 0
  Multiplicity = 1
  Basis Set: AUG-CC-PVTZ
    Blend: AUG-CC-PVTZ
  Basis Set: (AUG-CC-PVTZ AUX)
    Blend: AUG-CC-PVTZ-JKFIT

    Orbital Energies [Eh]
    ---------------------

    Doubly Occupied:

       1A    -15.539478     2A    -15.527759     3A    -11.246804
       4A    -11.240079     5A    -11.219197     6A    -11.208585
       7A     -1.200294     8A     -1.161101     9A     -1.037194
      10A     -0.940499    11A     -0.865708    12A     -0.759308
      13A     -0.682824    14A     -0.669336    15A     -0.628894
      16A     -0.592182    17A     -0.585185    18A     -0.564800
      19A     -0.527449    20A     -0.509337    21A     -0.493580
      22A     -0.474138    23A     -0.453854    24A     -0.390970
      25A     -0.380665

  @DF-RHF Final Energy:  -267.41741422403055

   => Energetics <=

    Nuclear Repulsion Energy =            264.6487915244695159
    One-Electron Energy =                -886.3339719425207477
    Two-Electron Energy =                 354.2677661940206804
    Total Energy =                       -267.4174142240305514
  Basis Set: (AUG-CC-PVTZ AUX)
    Blend: AUG-CC-PVTZ-RI
    Molecular point group: c1

    Geometry (in Angstrom), charge = 0, multiplicity = 1:

       Center              X                  Y                   Z               Mass
    ------------   -----------------  -----------------  -----------------  -----------------
         N            0.851730880531     1.667448202780    -0.268614013891    14.003074004430
         N           -2.026257319469    -0.595896897220     0.195156586109    14.003074004430
         C            0.104799680531     0.611979102780     0.430836586109    12.000000000000
         C            0.896331680531    -0.668063897220     0.706947586109    12.000000000000
         C           -1.125808319469     0.373424102780    -0.438818413891    12.000000000000
         C            1.371810680531    -1.401778897220    -0.545378413891    12.000000000000
         H           -0.260548319469     0.986661102780     1.401787586109     1.007825032230
         H            0.281612680531    -1.326522897220     1.331108586109     1.007825032230
         H            1.766073680531    -0.400672897220     1.322283586109     1.007825032230
         H           -1.671576319469     1.320674102780    -0.530496413891     1.007825032230
         H           -0.793121319469     0.100967102780    -1.451463413891     1.007825032230
         H            2.025756680531    -2.237054897220    -0.277471413891     1.007825032230
         H            0.533952680531    -1.813893897220    -1.116204413891     1.007825032230
         H            1.921876680531    -0.723586897220    -1.200404413891     1.007825032230
         H            1.771117680531     1.793641102780     0.325758586109     1.007825032230
         H            0.469118680531     2.450245102780    -0.396503413891     1.007825032230
         H           -1.651531319469    -1.535227897220     0.072199586109     1.007825032230
         H           -2.922857319469    -0.591501897220    -0.288689413891     1.007825032230

  Basis Set: AUG-CC-PVTZ
    Blend: AUG-CC-PVTZ
  Basis Set: (AUG-CC-PVTZ AUX)
    Blend: AUG-CC-PVTZ-JKFIT
	 Reference Energy          =    -267.4174142240305514 [Eh]
	 Singles Energy            =      -0.0000000000000000 [Eh]
	 Same-Spin Energy          =      -0.2833481633043160 [Eh]
	 Opposite-Spin Energy      =      -0.9903313862798073 [Eh]
	 Correlation Energy        =      -1.2736795495841233 [Eh]
	 Total Energy              =    -268.6910937736146820 [Eh]

	 ================> DF-SCS-MP2 Energies <==================
	-----------------------------------------------------------
	 SCS Same-Spin Scale       =       0.3333333333333333 [-]
	 SCS Opposite-Spin Scale   =       1.2000000000000000 [-]
	 SCS Same-Spin Energy      =      -0.0944493877681053 [Eh]
	 SCS Opposite-Spin Energy  =      -1.1883976635357687 [Eh]
	 SCS Correlation Energy    =      -1.2828470513038741 [Eh]
	 SCS Total Energy          =    -268.7002612753344124 [Eh]
	-----------------------------------------------------------

  Dipole Moment: [D]
     X:    -0.0340      Y:     0.0491      Z:    -0.1224     Total:     0.1362

*** Psi4 exiting successfully. Buy a developer a beer!
