                               Psi4 1.4a3.dev225

  ==> Input File <==

--------------------------------------------------------------------------
#psi4
#
memory 32 gb

molecule  {
0 1
  N        0.9404650     1.6044440    -0.2603840
  N       -2.0577020    -0.5628020     0.2031370
  C        0.0733550     0.6450740     0.4388170
  C        0.8648870    -0.6349690     0.7149280
  C       -1.1572530     0.4065190    -0.4308380
  C        1.3403660    -1.3686840    -0.5373980
  H       -0.2919930     1.0197560     1.4097680
  H        0.2501680    -1.2934280     1.3390890
  H        1.7346290    -0.3675780     1.3302640
  H       -1.7030210     1.3537690    -0.5225160
  H       -0.8245660     0.1340620    -1.4434830
  H        1.9943120    -2.2039600    -0.2694910
  H        0.5025080    -1.7807990    -1.1082240
  H        1.8904320    -0.6904920    -1.1924240
  H        1.7396730     1.8267360     0.3337390
  H        0.4376740     2.4833400    -0.3885230
  H       -1.6974486    -1.5065138     0.0708258
  H       -2.9543020    -0.5584070    -0.2807090
units angstrom
no_reorient  #important for SAPT in psi4, default
symmetry c1  #important for SAPT in psi4, default
}

set PROPERTIES_ORIGIN ["COM"]
properties('MP2/aug-cc-pvtz', properties = ['dipole'])
--------------------------------------------------------------------------

    Molecular point group: c1
  Charge       = 0
  Multiplicity = 1
  Basis Set: AUG-CC-PVTZ
    Blend: AUG-CC-PVTZ
  Basis Set: (AUG-CC-PVTZ AUX)
    Blend: AUG-CC-PVTZ-JKFIT

    Orbital Energies [Eh]
    ---------------------

    Doubly Occupied:

       1A    -15.541716     2A    -15.538287     3A    -11.245352
       4A    -11.242679     5A    -11.214178     6A    -11.205469
       7A     -1.196867     8A     -1.159326     9A     -1.029280
      10A     -0.938916    11A     -0.863273    12A     -0.749996
      13A     -0.670576    14A     -0.662253    15A     -0.643158
      16A     -0.589107    17A     -0.580726    18A     -0.553314
      19A     -0.531116    20A     -0.514679    21A     -0.491633
      22A     -0.468154    23A     -0.453017    24A     -0.394416
      25A     -0.388791

  @DF-RHF Final Energy:  -267.44504118608177

   => Energetics <=

    Nuclear Repulsion Energy =            264.7000698007258848
    One-Electron Energy =                -886.5576620795044391
    Two-Electron Energy =                 354.4125510926968445
    Total Energy =                       -267.4450411860817667
  Basis Set: (AUG-CC-PVTZ AUX)
    Blend: AUG-CC-PVTZ-RI
    Molecular point group: c1

    Geometry (in Angstrom), charge = 0, multiplicity = 1:

       Center              X                  Y                   Z               Mass
    ------------   -----------------  -----------------  -----------------  -----------------
         N            0.952973405104     1.586673701501    -0.268297078744    14.003074004430
         N           -2.045193594896    -0.580572298499     0.195223921256    14.003074004430
         C            0.085863405104     0.627303701501     0.430903921256    12.000000000000
         C            0.877395405104    -0.652739298499     0.707014921256    12.000000000000
         C           -1.144744594896     0.388748701501    -0.438751078744    12.000000000000
         C            1.352874405104    -1.386454298499    -0.545311078744    12.000000000000
         H           -0.279484594896     1.001985701501     1.401854921256     1.007825032230
         H            0.262676405104    -1.311198298499     1.331175921256     1.007825032230
         H            1.747137405104    -0.385348298499     1.322350921256     1.007825032230
         H           -1.690512594896     1.335998701501    -0.530429078744     1.007825032230
         H           -0.812057594896     0.116291701501    -1.451396078744     1.007825032230
         H            2.006820405104    -2.221730298499    -0.277404078744     1.007825032230
         H            0.515016405104    -1.798569298499    -1.116137078744     1.007825032230
         H            1.902940405104    -0.708262298499    -1.200337078744     1.007825032230
         H            1.752181405104     1.808965701501     0.325825921256     1.007825032230
         H            0.450182405104     2.465569701501    -0.396436078744     1.007825032230
         H           -1.684940194896    -1.524284098499     0.062912721256     1.007825032230
         H           -2.941793594896    -0.576177298499    -0.288622078744     1.007825032230

  Basis Set: AUG-CC-PVTZ
    Blend: AUG-CC-PVTZ
  Basis Set: (AUG-CC-PVTZ AUX)
    Blend: AUG-CC-PVTZ-JKFIT
	 Reference Energy          =    -267.4450411860817667 [Eh]
	 Singles Energy            =      -0.0000000000000000 [Eh]
	 Same-Spin Energy          =      -0.2836924491395708 [Eh]
	 Opposite-Spin Energy      =      -0.9909795233742398 [Eh]
	 Correlation Energy        =      -1.2746719725138105 [Eh]
	 Total Energy              =    -268.7197131585955958 [Eh]

	 ================> DF-SCS-MP2 Energies <==================
	-----------------------------------------------------------
	 SCS Same-Spin Scale       =       0.3333333333333333 [-]
	 SCS Opposite-Spin Scale   =       1.2000000000000000 [-]
	 SCS Same-Spin Energy      =      -0.0945641497131902 [Eh]
	 SCS Opposite-Spin Energy  =      -1.1891754280490876 [Eh]
	 SCS Correlation Energy    =      -1.2837395777622778 [Eh]
	 SCS Total Energy          =    -268.7287807638440427 [Eh]
	-----------------------------------------------------------

  Dipole Moment: [D]
     X:    -0.2359      Y:     0.2555      Z:    -0.1143     Total:     0.3661

*** Psi4 exiting successfully. Buy a developer a beer!
