                               Psi4 1.4a3.dev225

  ==> Input File <==

--------------------------------------------------------------------------
#psi4
#
memory 32 gb

molecule  {
0 1
  N        0.9404650     1.6044440    -0.2603840
  N       -2.0577020    -0.5628020     0.2031370
  C        0.0733550     0.6450740     0.4388170
  C        0.8648870    -0.6349690     0.7149280
  C       -1.1572530     0.4065190    -0.4308380
  C        1.3403660    -1.3686840    -0.5373980
  H       -0.2919930     1.0197560     1.4097680
  H        0.2501680    -1.2934280     1.3390890
  H        1.7346290    -0.3675780     1.3302640
  H       -1.6781470     1.3105970    -0.5183377
  H       -0.8245660     0.1340620    -1.4434830
  H        1.9943120    -2.2039600    -0.2694910
  H        0.5025080    -1.7807990    -1.1082240
  H        1.8904320    -0.6904920    -1.1924240
  H        1.7396730     1.8267360     0.3337390
  H        0.4376740     2.4833400    -0.3885230
  H       -1.6829760    -1.5021330     0.0801800
  H       -2.9543020    -0.5584070    -0.2807090
units angstrom
no_reorient  #important for SAPT in psi4, default
symmetry c1  #important for SAPT in psi4, default
}

set PROPERTIES_ORIGIN ["COM"]
properties('MP2/aug-cc-pvtz', properties = ['dipole'])
--------------------------------------------------------------------------

    Molecular point group: c1
  Charge       = 0
  Multiplicity = 1
  Basis Set: AUG-CC-PVTZ
    Blend: AUG-CC-PVTZ
  Basis Set: (AUG-CC-PVTZ AUX)
    Blend: AUG-CC-PVTZ-JKFIT

    Orbital Energies [Eh]
    ---------------------

    Doubly Occupied:

       1A    -15.540973     2A    -15.538367     3A    -11.244940
       4A    -11.236054     5A    -11.213941     6A    -11.205281
       7A     -1.197179     8A     -1.159087     9A     -1.029053
      10A     -0.940819    11A     -0.865484    12A     -0.751803
      13A     -0.673504    14A     -0.662121    15A     -0.642828
      16A     -0.589428    17A     -0.580422    18A     -0.553281
      19A     -0.535196    20A     -0.515243    21A     -0.491563
      22A     -0.467893    23A     -0.454665    24A     -0.393672
      25A     -0.388592

  @DF-RHF Final Energy:  -267.44418364950207

   => Energetics <=

    Nuclear Repulsion Energy =            264.9763898037338095
    One-Electron Energy =                -887.0983719091813100
    Two-Electron Energy =                 354.6777984559454353
    Total Energy =                       -267.4441836495020652
  Basis Set: (AUG-CC-PVTZ AUX)
    Blend: AUG-CC-PVTZ-RI
    Molecular point group: c1

    Geometry (in Angstrom), charge = 0, multiplicity = 1:

       Center              X                  Y                   Z               Mass
    ------------   -----------------  -----------------  -----------------  -----------------
         N            0.952523297650     1.587117455427    -0.268451884474    14.003074004430
         N           -2.045643702350    -0.580128544573     0.195069115526    14.003074004430
         C            0.085413297650     0.627747455427     0.430749115526    12.000000000000
         C            0.876945297650    -0.652295544573     0.706860115526    12.000000000000
         C           -1.145194702350     0.389192455427    -0.438905884474    12.000000000000
         C            1.352424297650    -1.386010544573    -0.545465884474    12.000000000000
         H           -0.279934702350     1.002429455427     1.401700115526     1.007825032230
         H            0.262226297650    -1.310754544573     1.331021115526     1.007825032230
         H            1.746687297650    -0.384904544573     1.322196115526     1.007825032230
         H           -1.666088702350     1.293270455427    -0.526405584474     1.007825032230
         H           -0.812507702350     0.116735455427    -1.451550884474     1.007825032230
         H            2.006370297650    -2.221286544573    -0.277558884474     1.007825032230
         H            0.514566297650    -1.798125544573    -1.116291884474     1.007825032230
         H            1.902490297650    -0.707818544573    -1.200491884474     1.007825032230
         H            1.751731297650     1.809409455427     0.325671115526     1.007825032230
         H            0.449732297650     2.466013455427    -0.396590884474     1.007825032230
         H           -1.670917702350    -1.519459544573     0.072112115526     1.007825032230
         H           -2.942243702350    -0.575733544573    -0.288776884474     1.007825032230

  Basis Set: AUG-CC-PVTZ
    Blend: AUG-CC-PVTZ
  Basis Set: (AUG-CC-PVTZ AUX)
    Blend: AUG-CC-PVTZ-JKFIT
	 Reference Energy          =    -267.4441836495020652 [Eh]
	 Singles Energy            =      -0.0000000000000000 [Eh]
	 Same-Spin Energy          =      -0.2836864965380295 [Eh]
	 Opposite-Spin Energy      =      -0.9906791003531087 [Eh]
	 Correlation Energy        =      -1.2743655968911383 [Eh]
	 Total Energy              =    -268.7185492463931951 [Eh]

	 ================> DF-SCS-MP2 Energies <==================
	-----------------------------------------------------------
	 SCS Same-Spin Scale       =       0.3333333333333333 [-]
	 SCS Opposite-Spin Scale   =       1.2000000000000000 [-]
	 SCS Same-Spin Energy      =      -0.0945621655126765 [Eh]
	 SCS Opposite-Spin Energy  =      -1.1888149204237304 [Eh]
	 SCS Correlation Energy    =      -1.2833770859364069 [Eh]
	 SCS Total Energy          =    -268.7275607354384874 [Eh]
	-----------------------------------------------------------

  Dipole Moment: [D]
     X:    -0.2407      Y:     0.2904      Z:    -0.1150     Total:     0.3943

*** Psi4 exiting successfully. Buy a developer a beer!
