                               Psi4 1.4a3.dev225

  ==> Input File <==

--------------------------------------------------------------------------
#psi4
#
memory 32 gb

molecule  {
0 1
  N        0.9404650     1.6044440    -0.2603840
  N       -2.0577020    -0.5628020     0.2031370
  C        0.0733550     0.6450740     0.4388170
  C        0.8648870    -0.6349690     0.7149280
  C       -1.1572530     0.4065190    -0.4308380
  C        1.3403660    -1.3686840    -0.5373980
  H       -0.2919930     1.0197560     1.4097680
  H        0.2501680    -1.2934280     1.3390890
  H        1.7346290    -0.3675780     1.3302640
  H       -1.7090621     1.3531736    -0.4847074
  H       -0.8245660     0.1340620    -1.4434830
  H        1.9943120    -2.2039600    -0.2694910
  H        0.5025080    -1.7807990    -1.1082240
  H        1.8904320    -0.6904920    -1.1924240
  H        1.7396730     1.8267360     0.3337390
  H        0.4376740     2.4833400    -0.3885230
  H       -1.6829760    -1.5021330     0.0801800
  H       -2.9543020    -0.5584070    -0.2807090
units angstrom
no_reorient  #important for SAPT in psi4, default
symmetry c1  #important for SAPT in psi4, default
}

set PROPERTIES_ORIGIN ["COM"]
properties('MP2/aug-cc-pvtz', properties = ['dipole'])
--------------------------------------------------------------------------

    Molecular point group: c1
  Charge       = 0
  Multiplicity = 1
  Basis Set: AUG-CC-PVTZ
    Blend: AUG-CC-PVTZ
  Basis Set: (AUG-CC-PVTZ AUX)
    Blend: AUG-CC-PVTZ-JKFIT

    Orbital Energies [Eh]
    ---------------------

    Doubly Occupied:

       1A    -15.541318     2A    -15.538341     3A    -11.245254
       4A    -11.242519     5A    -11.214236     6A    -11.205681
       7A     -1.196973     8A     -1.159213     9A     -1.029383
      10A     -0.938788    11A     -0.863015    12A     -0.749418
      13A     -0.672351    14A     -0.662522    15A     -0.642895
      16A     -0.589647    17A     -0.579530    18A     -0.553677
      19A     -0.531543    20A     -0.515038    21A     -0.491800
      22A     -0.468292    23A     -0.452399    24A     -0.394139
      25A     -0.388904

  @DF-RHF Final Energy:  -267.44488240814280

   => Energetics <=

    Nuclear Repulsion Energy =            264.7477147948180232
    One-Electron Energy =                -886.6514431667378631
    Two-Electron Energy =                 354.4588459637770939
    Total Energy =                       -267.4448824081428029
  Basis Set: (AUG-CC-PVTZ AUX)
    Blend: AUG-CC-PVTZ-RI
    Molecular point group: c1

    Geometry (in Angstrom), charge = 0, multiplicity = 1:

       Center              X                  Y                   Z               Mass
    ------------   -----------------  -----------------  -----------------  -----------------
         N            0.952876952526     1.586630398223    -0.268836600019    14.003074004430
         N           -2.045290047474    -0.580615601777     0.194684399981    14.003074004430
         C            0.085766952526     0.627260398223     0.430364399981    12.000000000000
         C            0.877298952526    -0.652782601777     0.706475399981    12.000000000000
         C           -1.144841047474     0.388705398223    -0.439290600019    12.000000000000
         C            1.352777952526    -1.386497601777    -0.545850600019    12.000000000000
         H           -0.279581047474     1.001942398223     1.401315399981     1.007825032230
         H            0.262579952526    -1.311241601777     1.330636399981     1.007825032230
         H            1.747040952526    -0.385391601777     1.321811399981     1.007825032230
         H           -1.696650147474     1.335359998223    -0.493160000019     1.007825032230
         H           -0.812154047474     0.116248398223    -1.451935600019     1.007825032230
         H            2.006723952526    -2.221773601777    -0.277943600019     1.007825032230
         H            0.514919952526    -1.798612601777    -1.116676600019     1.007825032230
         H            1.902843952526    -0.708305601777    -1.200876600019     1.007825032230
         H            1.752084952526     1.808922398223     0.325286399981     1.007825032230
         H            0.450085952526     2.465526398223    -0.396975600019     1.007825032230
         H           -1.670564047474    -1.519946601777     0.071727399981     1.007825032230
         H           -2.941890047474    -0.576220601777    -0.289161600019     1.007825032230

  Basis Set: AUG-CC-PVTZ
    Blend: AUG-CC-PVTZ
  Basis Set: (AUG-CC-PVTZ AUX)
    Blend: AUG-CC-PVTZ-JKFIT
	 Reference Energy          =    -267.4448824081428029 [Eh]
	 Singles Energy            =      -0.0000000000000000 [Eh]
	 Same-Spin Energy          =      -0.2837224779305543 [Eh]
	 Opposite-Spin Energy      =      -0.9910429097099771 [Eh]
	 Correlation Energy        =      -1.2747653876405314 [Eh]
	 Total Energy              =    -268.7196477957833167 [Eh]

	 ================> DF-SCS-MP2 Energies <==================
	-----------------------------------------------------------
	 SCS Same-Spin Scale       =       0.3333333333333333 [-]
	 SCS Opposite-Spin Scale   =       1.2000000000000000 [-]
	 SCS Same-Spin Energy      =      -0.0945741593101848 [Eh]
	 SCS Opposite-Spin Energy  =      -1.1892514916519725 [Eh]
	 SCS Correlation Energy    =      -1.2838256509621573 [Eh]
	 SCS Total Energy          =    -268.7287080591049744 [Eh]
	-----------------------------------------------------------

  Dipole Moment: [D]
     X:    -0.2207      Y:     0.2571      Z:    -0.0953     Total:     0.3520

*** Psi4 exiting successfully. Buy a developer a beer!
