                               Psi4 1.4a3.dev225

  ==> Input File <==

--------------------------------------------------------------------------
#psi4
#
memory 32 gb

molecule  {
0 1
  N        0.9404650     1.6044440    -0.2603840
  N       -2.0577020    -0.5628020     0.2031370
  C        0.0733550     0.6450740     0.4388170
  C        0.8648870    -0.6349690     0.7149280
  C       -1.1449776     0.4197333    -0.4394807
  C        1.3403660    -1.3686840    -0.5373980
  H       -0.2919930     1.0197560     1.4097680
  H        0.2501680    -1.2934280     1.3390890
  H        1.7346290    -0.3675780     1.3302640
  H       -1.7030210     1.3537690    -0.5225160
  H       -0.8245660     0.1340620    -1.4434830
  H        1.9943120    -2.2039600    -0.2694910
  H        0.5025080    -1.7807990    -1.1082240
  H        1.8904320    -0.6904920    -1.1924240
  H        1.7396730     1.8267360     0.3337390
  H        0.4376740     2.4833400    -0.3885230
  H       -1.6829760    -1.5021330     0.0801800
  H       -2.9543020    -0.5584070    -0.2807090
units angstrom
no_reorient  #important for SAPT in psi4, default
symmetry c1  #important for SAPT in psi4, default
}

set PROPERTIES_ORIGIN ["COM"]
properties('MP2/aug-cc-pvtz', properties = ['dipole'])
--------------------------------------------------------------------------

    Molecular point group: c1
  Charge       = 0
  Multiplicity = 1
  Basis Set: AUG-CC-PVTZ
    Blend: AUG-CC-PVTZ
  Basis Set: (AUG-CC-PVTZ AUX)
    Blend: AUG-CC-PVTZ-JKFIT

    Orbital Energies [Eh]
    ---------------------

    Doubly Occupied:

       1A    -15.540921     2A    -15.538256     3A    -11.245482
       4A    -11.242150     5A    -11.214683     6A    -11.205808
       7A     -1.195562     8A     -1.155352     9A     -1.029541
      10A     -0.940277    11A     -0.864333    12A     -0.750765
      13A     -0.670481    14A     -0.662720    15A     -0.641529
      16A     -0.589385    17A     -0.578599    18A     -0.553939
      19A     -0.530010    20A     -0.514664    21A     -0.491911
      22A     -0.468096    23A     -0.455068    24A     -0.394153
      25A     -0.389894

  @DF-RHF Final Energy:  -267.44469352511067

   => Energetics <=

    Nuclear Repulsion Energy =            264.6736505091400318
    One-Electron Energy =                -886.5095331436650667
    Two-Electron Energy =                 354.3911891094143130
    Total Energy =                       -267.4446935251106652
  Basis Set: (AUG-CC-PVTZ AUX)
    Blend: AUG-CC-PVTZ-RI
    Molecular point group: c1

    Geometry (in Angstrom), charge = 0, multiplicity = 1:

       Center              X                  Y                   Z               Mass
    ------------   -----------------  -----------------  -----------------  -----------------
         N            0.951135827809     1.584823683449    -0.267226874984    14.003074004430
         N           -2.047031172191    -0.582422316551     0.196294125016    14.003074004430
         C            0.084025827809     0.625453683449     0.431974125016    12.000000000000
         C            0.875557827809    -0.654589316551     0.708085125016    12.000000000000
         C           -1.134306772191     0.400112983449    -0.446323574984    12.000000000000
         C            1.351036827809    -1.388304316551    -0.544240874984    12.000000000000
         H           -0.281322172191     1.000135683449     1.402925125016     1.007825032230
         H            0.260838827809    -1.313048316551     1.332246125016     1.007825032230
         H            1.745299827809    -0.387198316551     1.323421125016     1.007825032230
         H           -1.692350172191     1.334148683449    -0.529358874984     1.007825032230
         H           -0.813895172191     0.114441683449    -1.450325874984     1.007825032230
         H            2.004982827809    -2.223580316551    -0.276333874984     1.007825032230
         H            0.513178827809    -1.800419316551    -1.115066874984     1.007825032230
         H            1.901102827809    -0.710112316551    -1.199266874984     1.007825032230
         H            1.750343827809     1.807115683449     0.326896125016     1.007825032230
         H            0.448344827809     2.463719683449    -0.395365874984     1.007825032230
         H           -1.672305172191    -1.521753316551     0.073337125016     1.007825032230
         H           -2.943631172191    -0.578027316551    -0.287551874984     1.007825032230

  Basis Set: AUG-CC-PVTZ
    Blend: AUG-CC-PVTZ
  Basis Set: (AUG-CC-PVTZ AUX)
    Blend: AUG-CC-PVTZ-JKFIT
	 Reference Energy          =    -267.4446935251106652 [Eh]
	 Singles Energy            =      -0.0000000000000000 [Eh]
	 Same-Spin Energy          =      -0.2836659961750441 [Eh]
	 Opposite-Spin Energy      =      -0.9910890346447174 [Eh]
	 Correlation Energy        =      -1.2747550308197615 [Eh]
	 Total Energy              =    -268.7194485559303985 [Eh]

	 ================> DF-SCS-MP2 Energies <==================
	-----------------------------------------------------------
	 SCS Same-Spin Scale       =       0.3333333333333333 [-]
	 SCS Opposite-Spin Scale   =       1.2000000000000000 [-]
	 SCS Same-Spin Energy      =      -0.0945553320583480 [Eh]
	 SCS Opposite-Spin Energy  =      -1.1893068415736610 [Eh]
	 SCS Correlation Energy    =      -1.2838621736320091 [Eh]
	 SCS Total Energy          =    -268.7285556987426958 [Eh]
	-----------------------------------------------------------

  Dipole Moment: [D]
     X:    -0.1875      Y:     0.2833      Z:    -0.1212     Total:     0.3607

*** Psi4 exiting successfully. Buy a developer a beer!
