                               Psi4 1.4a3.dev225

  ==> Input File <==

--------------------------------------------------------------------------
#psi4
#
memory 32 gb

molecule  {
0 1
  N        0.9404650     1.6044440    -0.2603840
  N       -2.0577020    -0.5628020     0.2031370
  C        0.0733550     0.6450740     0.4388170
  C        1.0188777    -0.6048372     0.7455368
  C       -1.1572530     0.4065190    -0.4308380
  C        1.3403660    -1.3686840    -0.5373980
  H       -0.2919930     1.0197560     1.4097680
  H        0.2501680    -1.2934280     1.3390890
  H        1.7346290    -0.3675780     1.3302640
  H       -1.7030210     1.3537690    -0.5225160
  H       -0.8245660     0.1340620    -1.4434830
  H        1.9943120    -2.2039600    -0.2694910
  H        0.5025080    -1.7807990    -1.1082240
  H        1.8904320    -0.6904920    -1.1924240
  H        1.7396730     1.8267360     0.3337390
  H        0.4376740     2.4833400    -0.3885230
  H       -1.6829760    -1.5021330     0.0801800
  H       -2.9543020    -0.5584070    -0.2807090
units angstrom
no_reorient  #important for SAPT in psi4, default
symmetry c1  #important for SAPT in psi4, default
}

set PROPERTIES_ORIGIN ["COM"]
properties('MP2/aug-cc-pvtz', properties = ['dipole'])
--------------------------------------------------------------------------

    Molecular point group: c1
  Charge       = 0
  Multiplicity = 1
  Basis Set: AUG-CC-PVTZ
    Blend: AUG-CC-PVTZ
  Basis Set: (AUG-CC-PVTZ AUX)
    Blend: AUG-CC-PVTZ-JKFIT

    Orbital Energies [Eh]
    ---------------------

    Doubly Occupied:

       1A    -15.541608     2A    -15.536498     3A    -11.248477
       4A    -11.244984     5A    -11.214348     6A    -11.206862
       7A     -1.194644     8A     -1.158946     9A     -1.026719
      10A     -0.937719    11A     -0.865161    12A     -0.760720
      13A     -0.670465    14A     -0.655940    15A     -0.642729
      16A     -0.601322    17A     -0.579220    18A     -0.552096
      19A     -0.535068    20A     -0.521360    21A     -0.495928
      22A     -0.465955    23A     -0.430406    24A     -0.394108
      25A     -0.385810

  @DF-RHF Final Energy:  -267.41391690322655

   => Energetics <=

    Nuclear Repulsion Energy =            263.5819969851769997
    One-Electron Energy =                -884.2576437360911541
    Two-Electron Energy =                 353.2617298476876613
    Total Energy =                       -267.4139169032265499
  Basis Set: (AUG-CC-PVTZ AUX)
    Blend: AUG-CC-PVTZ-RI
    Molecular point group: c1

    Geometry (in Angstrom), charge = 0, multiplicity = 1:

       Center              X                  Y                   Z               Mass
    ------------   -----------------  -----------------  -----------------  -----------------
         N            0.931832959866     1.582519371434    -0.272573273863    14.003074004430
         N           -2.066334040134    -0.584726628566     0.190947726137    14.003074004430
         C            0.064722959866     0.623149371434     0.426627726137    12.000000000000
         C            1.010245659866    -0.626761828566     0.733347526137    12.000000000000
         C           -1.165885040134     0.384594371434    -0.443027273863    12.000000000000
         C            1.331733959866    -1.390608628566    -0.549587273863    12.000000000000
         H           -0.300625040134     0.997831371434     1.397578726137     1.007825032230
         H            0.241535959866    -1.315352628566     1.326899726137     1.007825032230
         H            1.725996959866    -0.389502628566     1.318074726137     1.007825032230
         H           -1.711653040134     1.331844371434    -0.534705273863     1.007825032230
         H           -0.833198040134     0.112137371434    -1.455672273863     1.007825032230
         H            1.985679959866    -2.225884628566    -0.281680273863     1.007825032230
         H            0.493875959866    -1.802723628566    -1.120413273863     1.007825032230
         H            1.881799959866    -0.712416628566    -1.204613273863     1.007825032230
         H            1.731040959866     1.804811371434     0.321549726137     1.007825032230
         H            0.429041959866     2.461415371434    -0.400712273863     1.007825032230
         H           -1.691608040134    -1.524057628566     0.067990726137     1.007825032230
         H           -2.962934040134    -0.580331628566    -0.292898273863     1.007825032230

  Basis Set: AUG-CC-PVTZ
    Blend: AUG-CC-PVTZ
  Basis Set: (AUG-CC-PVTZ AUX)
    Blend: AUG-CC-PVTZ-JKFIT
	 Reference Energy          =    -267.4139169032265499 [Eh]
	 Singles Energy            =      -0.0000000000000000 [Eh]
	 Same-Spin Energy          =      -0.2837714402844587 [Eh]
	 Opposite-Spin Energy      =      -0.9921505884033192 [Eh]
	 Correlation Energy        =      -1.2759220286877779 [Eh]
	 Total Energy              =    -268.6898389319143234 [Eh]

	 ================> DF-SCS-MP2 Energies <==================
	-----------------------------------------------------------
	 SCS Same-Spin Scale       =       0.3333333333333333 [-]
	 SCS Opposite-Spin Scale   =       1.2000000000000000 [-]
	 SCS Same-Spin Energy      =      -0.0945904800948195 [Eh]
	 SCS Opposite-Spin Energy  =      -1.1905807060839830 [Eh]
	 SCS Correlation Energy    =      -1.2851711861788027 [Eh]
	 SCS Total Energy          =    -268.6990880894053362 [Eh]
	-----------------------------------------------------------

  Dipole Moment: [D]
     X:    -0.2027      Y:     0.2959      Z:    -0.1439     Total:     0.3865

*** Psi4 exiting successfully. Buy a developer a beer!
