                               Psi4 1.4a3.dev225

  ==> Input File <==

--------------------------------------------------------------------------
#psi4
#
memory 32 gb

molecule  {
0 1
  N        0.9404650     1.6044440    -0.2603840
  N       -2.0577020    -0.5628020     0.2031370
  C        0.0733550     0.6450740     0.4388170
  C        0.8648870    -0.6349690     0.7149280
  C       -1.1572530     0.4065190    -0.4308380
  C        1.3403660    -1.3686840    -0.5373980
  H       -0.2919930     1.0197560     1.4097680
  H        0.3024661    -1.2854385     1.3943371
  H        1.7346290    -0.3675780     1.3302640
  H       -1.7030210     1.3537690    -0.5225160
  H       -0.8245660     0.1340620    -1.4434830
  H        1.9943120    -2.2039600    -0.2694910
  H        0.5025080    -1.7807990    -1.1082240
  H        1.8904320    -0.6904920    -1.1924240
  H        1.7396730     1.8267360     0.3337390
  H        0.4376740     2.4833400    -0.3885230
  H       -1.6829760    -1.5021330     0.0801800
  H       -2.9543020    -0.5584070    -0.2807090
units angstrom
no_reorient  #important for SAPT in psi4, default
symmetry c1  #important for SAPT in psi4, default
}

set PROPERTIES_ORIGIN ["COM"]
properties('MP2/aug-cc-pvtz', properties = ['dipole'])
--------------------------------------------------------------------------

    Molecular point group: c1
  Charge       = 0
  Multiplicity = 1
  Basis Set: AUG-CC-PVTZ
    Blend: AUG-CC-PVTZ
  Basis Set: (AUG-CC-PVTZ AUX)
    Blend: AUG-CC-PVTZ-JKFIT

    Orbital Energies [Eh]
    ---------------------

    Doubly Occupied:

       1A    -15.541167     2A    -15.538415     3A    -11.245781
       4A    -11.242322     5A    -11.214347     6A    -11.206157
       7A     -1.196667     8A     -1.158965     9A     -1.029087
      10A     -0.938616    11A     -0.863796    12A     -0.751412
      13A     -0.670714    14A     -0.662067    15A     -0.643009
      16A     -0.587386    17A     -0.580673    18A     -0.552934
      19A     -0.530709    20A     -0.514840    21A     -0.494322
      22A     -0.465313    23A     -0.454291    24A     -0.393705
      25A     -0.388724

  @DF-RHF Final Energy:  -267.44453443048883

   => Energetics <=

    Nuclear Repulsion Energy =            264.6264803303752160
    One-Electron Energy =                -886.4111947249671175
    Two-Electron Energy =                 354.3401799641030721
    Total Energy =                       -267.4445344304888295
  Basis Set: (AUG-CC-PVTZ AUX)
    Blend: AUG-CC-PVTZ-RI
    Molecular point group: c1

    Geometry (in Angstrom), charge = 0, multiplicity = 1:

       Center              X                  Y                   Z               Mass
    ------------   -----------------  -----------------  -----------------  -----------------
         N            0.952209578249     1.586532190818    -0.269036100076    14.003074004430
         N           -2.045957421751    -0.580713809182     0.194484899924    14.003074004430
         C            0.085099578249     0.627162190818     0.430164899924    12.000000000000
         C            0.876631578249    -0.652880809182     0.706275899924    12.000000000000
         C           -1.145508421751     0.388607190818    -0.439490100076    12.000000000000
         C            1.352110578249    -1.386595809182    -0.546050100076    12.000000000000
         H           -0.280248421751     1.001844190818     1.401115899924     1.007825032230
         H            0.314210678249    -1.303350309182     1.385684999924     1.007825032230
         H            1.746373578249    -0.385489809182     1.321611899924     1.007825032230
         H           -1.691276421751     1.335857190818    -0.531168100076     1.007825032230
         H           -0.812821421751     0.116150190818    -1.452135100076     1.007825032230
         H            2.006056578249    -2.221871809182    -0.278143100076     1.007825032230
         H            0.514252578249    -1.798710809182    -1.116876100076     1.007825032230
         H            1.902176578249    -0.708403809182    -1.201076100076     1.007825032230
         H            1.751417578249     1.808824190818     0.325086899924     1.007825032230
         H            0.449418578249     2.465428190818    -0.397175100076     1.007825032230
         H           -1.671231421751    -1.520044809182     0.071527899924     1.007825032230
         H           -2.942557421751    -0.576318809182    -0.289361100076     1.007825032230

  Basis Set: AUG-CC-PVTZ
    Blend: AUG-CC-PVTZ
  Basis Set: (AUG-CC-PVTZ AUX)
    Blend: AUG-CC-PVTZ-JKFIT
	 Reference Energy          =    -267.4445344304888295 [Eh]
	 Singles Energy            =      -0.0000000000000000 [Eh]
	 Same-Spin Energy          =      -0.2836941777106688 [Eh]
	 Opposite-Spin Energy      =      -0.9909289169304232 [Eh]
	 Correlation Energy        =      -1.2746230946410919 [Eh]
	 Total Energy              =    -268.7191575251299014 [Eh]

	 ================> DF-SCS-MP2 Energies <==================
	-----------------------------------------------------------
	 SCS Same-Spin Scale       =       0.3333333333333333 [-]
	 SCS Opposite-Spin Scale   =       1.2000000000000000 [-]
	 SCS Same-Spin Energy      =      -0.0945647259035563 [Eh]
	 SCS Opposite-Spin Energy  =      -1.1891147003165077 [Eh]
	 SCS Correlation Energy    =      -1.2836794262200639 [Eh]
	 SCS Total Energy          =    -268.7282138567089191 [Eh]
	-----------------------------------------------------------

  Dipole Moment: [D]
     X:    -0.2013      Y:     0.2511      Z:    -0.0859     Total:     0.3331

*** Psi4 exiting successfully. Buy a developer a beer!
