                               Psi4 1.4a3.dev225

  ==> Input File <==

--------------------------------------------------------------------------
#psi4
#
memory 32 gb

molecule  {
0 1
  N        0.9404650     1.6044440    -0.2603840
  N       -2.0577020    -0.5628020     0.2031370
  C        0.1913223     0.7755929     0.3436932
  C        0.8648870    -0.6349690     0.7149280
  C       -1.1572530     0.4065190    -0.4308380
  C        1.3403660    -1.3686840    -0.5373980
  H       -0.2919930     1.0197560     1.4097680
  H        0.2501680    -1.2934280     1.3390890
  H        1.7346290    -0.3675780     1.3302640
  H       -1.7030210     1.3537690    -0.5225160
  H       -0.8245660     0.1340620    -1.4434830
  H        1.9943120    -2.2039600    -0.2694910
  H        0.5025080    -1.7807990    -1.1082240
  H        1.8904320    -0.6904920    -1.1924240
  H        1.7396730     1.8267360     0.3337390
  H        0.4376740     2.4833400    -0.3885230
  H       -1.6829760    -1.5021330     0.0801800
  H       -2.9543020    -0.5584070    -0.2807090
units angstrom
no_reorient  #important for SAPT in psi4, default
symmetry c1  #important for SAPT in psi4, default
}

set PROPERTIES_ORIGIN ["COM"]
properties('MP2/aug-cc-pvtz', properties = ['dipole'])
--------------------------------------------------------------------------

    Molecular point group: c1
  Charge       = 0
  Multiplicity = 1
  Basis Set: AUG-CC-PVTZ
    Blend: AUG-CC-PVTZ
  Basis Set: (AUG-CC-PVTZ AUX)
    Blend: AUG-CC-PVTZ-JKFIT

    Orbital Energies [Eh]
    ---------------------

    Doubly Occupied:

       1A    -15.546538     2A    -15.542191     3A    -11.251831
       4A    -11.242366     5A    -11.214296     6A    -11.203173
       7A     -1.258736     8A     -1.167866     9A     -1.022282
      10A     -0.924409    11A     -0.852397    12A     -0.760633
      13A     -0.687129    14A     -0.665294    15A     -0.662573
      16A     -0.588860    17A     -0.582602    18A     -0.574370
      19A     -0.530267    20A     -0.517411    21A     -0.495994
      22A     -0.476714    23A     -0.424619    24A     -0.387158
      25A     -0.358054

  @DF-RHF Final Energy:  -267.39608893239262

   => Energetics <=

    Nuclear Repulsion Energy =            265.1870882273507277
    One-Electron Energy =                -887.2908300337365972
    Two-Electron Energy =                 354.7076528739932542
    Total Energy =                       -267.3960889323926153
  Basis Set: (AUG-CC-PVTZ AUX)
    Blend: AUG-CC-PVTZ-RI
    Molecular point group: c1

    Geometry (in Angstrom), charge = 0, multiplicity = 1:

       Center              X                  Y                   Z               Mass
    ------------   -----------------  -----------------  -----------------  -----------------
         N            0.936739663186     1.568845767141    -0.255447389968    14.003074004430
         N           -2.061427336814    -0.598400232859     0.208073610032    14.003074004430
         C            0.187596963186     0.739994667141     0.348629810032    12.000000000000
         C            0.861161663186    -0.670567232859     0.719864610032    12.000000000000
         C           -1.160978336814     0.370920767141    -0.425901389968    12.000000000000
         C            1.336640663186    -1.404282232859    -0.532461389968    12.000000000000
         H           -0.295718336814     0.984157767141     1.414704610032     1.007825032230
         H            0.246442663186    -1.329026232859     1.344025610032     1.007825032230
         H            1.730903663186    -0.403176232859     1.335200610032     1.007825032230
         H           -1.706746336814     1.318170767141    -0.517579389968     1.007825032230
         H           -0.828291336814     0.098463767141    -1.438546389968     1.007825032230
         H            1.990586663186    -2.239558232859    -0.264554389968     1.007825032230
         H            0.498782663186    -1.816397232859    -1.103287389968     1.007825032230
         H            1.886706663186    -0.726090232859    -1.187487389968     1.007825032230
         H            1.735947663186     1.791137767141     0.338675610032     1.007825032230
         H            0.433948663186     2.447741767141    -0.383586389968     1.007825032230
         H           -1.686701336814    -1.537731232859     0.085116610032     1.007825032230
         H           -2.958027336814    -0.594005232859    -0.275772389968     1.007825032230

  Basis Set: AUG-CC-PVTZ
    Blend: AUG-CC-PVTZ
  Basis Set: (AUG-CC-PVTZ AUX)
    Blend: AUG-CC-PVTZ-JKFIT
	 Reference Energy          =    -267.3960889323926153 [Eh]
	 Singles Energy            =      -0.0000000000000000 [Eh]
	 Same-Spin Energy          =      -0.2856337097292551 [Eh]
	 Opposite-Spin Energy      =      -0.9929377746134039 [Eh]
	 Correlation Energy        =      -1.2785714843426590 [Eh]
	 Total Energy              =    -268.6746604167352643 [Eh]

	 ================> DF-SCS-MP2 Energies <==================
	-----------------------------------------------------------
	 SCS Same-Spin Scale       =       0.3333333333333333 [-]
	 SCS Opposite-Spin Scale   =       1.2000000000000000 [-]
	 SCS Same-Spin Energy      =      -0.0952112365764184 [Eh]
	 SCS Opposite-Spin Energy  =      -1.1915253295360846 [Eh]
	 SCS Correlation Energy    =      -1.2867365661125030 [Eh]
	 SCS Total Energy          =    -268.6828254985051103 [Eh]
	-----------------------------------------------------------

  Dipole Moment: [D]
     X:     0.1392      Y:     0.6334      Z:    -0.3894     Total:     0.7565

*** Psi4 exiting successfully. Buy a developer a beer!
