                               Psi4 1.4a3.dev225

  ==> Input File <==

--------------------------------------------------------------------------
#psi4
#
memory 32 gb

molecule  {
0 1
  N        0.9404650     1.6044440    -0.2603840
  N       -2.0577020    -0.5628020     0.2031370
  C        0.0733550     0.6450740     0.4388170
  C        0.8648870    -0.6349690     0.7149280
  C       -1.1572530     0.4065190    -0.4308380
  C        1.3403660    -1.3686840    -0.5373980
  H       -0.2919930     1.0197560     1.4097680
  H        0.2501680    -1.2934280     1.3390890
  H        1.7346290    -0.3675780     1.3302640
  H       -1.7030210     1.3537690    -0.5225160
  H       -0.8245660     0.1340620    -1.4434830
  H        1.9943120    -2.2039600    -0.2694910
  H        0.5025080    -1.7807990    -1.1082240
  H        1.8904320    -0.6904920    -1.1924240
  H        1.7396730     1.8267360     0.3337390
  H        0.4376740     2.4833400    -0.3885230
  H       -1.5986892    -1.4698923     0.1369912
  H       -2.9543020    -0.5584070    -0.2807090
units angstrom
no_reorient  #important for SAPT in psi4, default
symmetry c1  #important for SAPT in psi4, default
}

set PROPERTIES_ORIGIN ["COM"]
properties('MP2/aug-cc-pvtz', properties = ['dipole'])
--------------------------------------------------------------------------

    Molecular point group: c1
  Charge       = 0
  Multiplicity = 1
  Basis Set: AUG-CC-PVTZ
    Blend: AUG-CC-PVTZ
  Basis Set: (AUG-CC-PVTZ AUX)
    Blend: AUG-CC-PVTZ-JKFIT

    Orbital Energies [Eh]
    ---------------------

    Doubly Occupied:

       1A    -15.540602     2A    -15.538517     3A    -11.245802
       4A    -11.241450     5A    -11.215583     6A    -11.206340
       7A     -1.197004     8A     -1.158515     9A     -1.030126
      10A     -0.937444    11A     -0.863348    12A     -0.749923
      13A     -0.678498    14A     -0.662696    15A     -0.642328
      16A     -0.592621    17A     -0.577414    18A     -0.553558
      19A     -0.530093    20A     -0.515953    21A     -0.492584
      22A     -0.469100    23A     -0.453578    24A     -0.391907
      25A     -0.387860

  @DF-RHF Final Energy:  -267.44378725761442

   => Energetics <=

    Nuclear Repulsion Energy =            264.8952362233832218
    One-Electron Energy =                -886.9323580075068776
    Two-Electron Energy =                 354.5933345265092385
    Total Energy =                       -267.4437872576144173
  Basis Set: (AUG-CC-PVTZ AUX)
    Blend: AUG-CC-PVTZ-RI
    Molecular point group: c1

    Geometry (in Angstrom), charge = 0, multiplicity = 1:

       Center              X                  Y                   Z               Mass
    ------------   -----------------  -----------------  -----------------  -----------------
         N            0.951843641871     1.586254767969    -0.269053981239    14.003074004430
         N           -2.046323358129    -0.580991232031     0.194467018761    14.003074004430
         C            0.084733641871     0.626884767969     0.430147018761    12.000000000000
         C            0.876265641871    -0.653158232031     0.706258018761    12.000000000000
         C           -1.145874358129     0.388329767969    -0.439507981239    12.000000000000
         C            1.351744641871    -1.386873232031    -0.546067981239    12.000000000000
         H           -0.280614358129     1.001566767969     1.401098018761     1.007825032230
         H            0.261546641871    -1.311617232031     1.330419018761     1.007825032230
         H            1.746007641871    -0.385767232031     1.321594018761     1.007825032230
         H           -1.691642358129     1.335579767969    -0.531185981239     1.007825032230
         H           -0.813187358129     0.115872767969    -1.452152981239     1.007825032230
         H            2.005690641871    -2.222149232031    -0.278160981239     1.007825032230
         H            0.513886641871    -1.798988232031    -1.116893981239     1.007825032230
         H            1.901810641871    -0.708681232031    -1.201093981239     1.007825032230
         H            1.751051641871     1.808546767969     0.325069018761     1.007825032230
         H            0.449052641871     2.465150767969    -0.397192981239     1.007825032230
         H           -1.587310558129    -1.488081532031     0.128321218761     1.007825032230
         H           -2.942923358129    -0.576596232031    -0.289378981239     1.007825032230

  Basis Set: AUG-CC-PVTZ
    Blend: AUG-CC-PVTZ
  Basis Set: (AUG-CC-PVTZ AUX)
    Blend: AUG-CC-PVTZ-JKFIT
	 Reference Energy          =    -267.4437872576144173 [Eh]
	 Singles Energy            =      -0.0000000000000000 [Eh]
	 Same-Spin Energy          =      -0.2838587244857540 [Eh]
	 Opposite-Spin Energy      =      -0.9911242683662324 [Eh]
	 Correlation Energy        =      -1.2749829928519865 [Eh]
	 Total Energy              =    -268.7187702504663775 [Eh]

	 ================> DF-SCS-MP2 Energies <==================
	-----------------------------------------------------------
	 SCS Same-Spin Scale       =       0.3333333333333333 [-]
	 SCS Opposite-Spin Scale   =       1.2000000000000000 [-]
	 SCS Same-Spin Energy      =      -0.0946195748285847 [Eh]
	 SCS Opposite-Spin Energy  =      -1.1893491220394787 [Eh]
	 SCS Correlation Energy    =      -1.2839686968680635 [Eh]
	 SCS Total Energy          =    -268.7277559544824612 [Eh]
	-----------------------------------------------------------

  Dipole Moment: [D]
     X:    -0.1501      Y:     0.2713      Z:    -0.0434     Total:     0.3130

*** Psi4 exiting successfully. Buy a developer a beer!
