                               Psi4 1.4a3.dev225

  ==> Input File <==

--------------------------------------------------------------------------
#psi4
#
memory 32 gb

molecule  {
0 1
  N        0.9404650     1.6044440    -0.2603840
  N       -2.0577020    -0.5628020     0.2031370
  C        0.0429755     0.7467769     0.4473877
  C        0.8648870    -0.6349690     0.7149280
  C       -1.1572530     0.4065190    -0.4308380
  C        1.3403660    -1.3686840    -0.5373980
  H       -0.2919930     1.0197560     1.4097680
  H        0.2501680    -1.2934280     1.3390890
  H        1.7346290    -0.3675780     1.3302640
  H       -1.7030210     1.3537690    -0.5225160
  H       -0.8245660     0.1340620    -1.4434830
  H        1.9943120    -2.2039600    -0.2694910
  H        0.5025080    -1.7807990    -1.1082240
  H        1.8904320    -0.6904920    -1.1924240
  H        1.7396730     1.8267360     0.3337390
  H        0.4376740     2.4833400    -0.3885230
  H       -1.6829760    -1.5021330     0.0801800
  H       -2.9543020    -0.5584070    -0.2807090
units angstrom
no_reorient  #important for SAPT in psi4, default
symmetry c1  #important for SAPT in psi4, default
}

set PROPERTIES_ORIGIN ["COM"]
properties('MP2/aug-cc-pvtz', properties = ['dipole'])
--------------------------------------------------------------------------

    Molecular point group: c1
  Charge       = 0
  Multiplicity = 1
  Basis Set: AUG-CC-PVTZ
    Blend: AUG-CC-PVTZ
  Basis Set: (AUG-CC-PVTZ AUX)
    Blend: AUG-CC-PVTZ-JKFIT

    Orbital Energies [Eh]
    ---------------------

    Doubly Occupied:

       1A    -15.542371     2A    -15.541795     3A    -11.243983
       4A    -11.241942     5A    -11.213895     6A    -11.204144
       7A     -1.204199     8A     -1.164170     9A     -1.018397
      10A     -0.940067    11A     -0.853691    12A     -0.755894
      13A     -0.671830    14A     -0.662395    15A     -0.652477
      16A     -0.584664    17A     -0.579104    18A     -0.555943
      19A     -0.535664    20A     -0.514031    21A     -0.493217
      22A     -0.469987    23A     -0.426658    24A     -0.395277
      25A     -0.393398

  @DF-RHF Final Energy:  -267.43463355817062

   => Energetics <=

    Nuclear Repulsion Energy =            264.0482468195605747
    One-Electron Energy =                -885.2473717019588548
    Two-Electron Energy =                 353.7644913242277198
    Total Energy =                       -267.4346335581706171
  Basis Set: (AUG-CC-PVTZ AUX)
    Blend: AUG-CC-PVTZ-RI
    Molecular point group: c1

    Geometry (in Angstrom), charge = 0, multiplicity = 1:

       Center              X                  Y                   Z               Mass
    ------------   -----------------  -----------------  -----------------  -----------------
         N            0.956945799646     1.572770759310    -0.269571491176    14.003074004430
         N           -2.041221200354    -0.594475240690     0.193949508824    14.003074004430
         C            0.059456299646     0.715103659310     0.438200208824    12.000000000000
         C            0.881367799646    -0.666642240690     0.705740508824    12.000000000000
         C           -1.140772200354     0.374845759310    -0.440025491176    12.000000000000
         C            1.356846799646    -1.400357240690    -0.546585491176    12.000000000000
         H           -0.275512200354     0.988082759310     1.400580508824     1.007825032230
         H            0.266648799646    -1.325101240690     1.329901508824     1.007825032230
         H            1.751109799646    -0.399251240690     1.321076508824     1.007825032230
         H           -1.686540200354     1.322095759310    -0.531703491176     1.007825032230
         H           -0.808085200354     0.102388759310    -1.452670491176     1.007825032230
         H            2.010792799646    -2.235633240690    -0.278678491176     1.007825032230
         H            0.518988799646    -1.812472240690    -1.117411491176     1.007825032230
         H            1.906912799646    -0.722165240690    -1.201611491176     1.007825032230
         H            1.756153799646     1.795062759310     0.324551508824     1.007825032230
         H            0.454154799646     2.451666759310    -0.397710491176     1.007825032230
         H           -1.666495200354    -1.533806240690     0.070992508824     1.007825032230
         H           -2.937821200354    -0.590080240690    -0.289896491176     1.007825032230

  Basis Set: AUG-CC-PVTZ
    Blend: AUG-CC-PVTZ
  Basis Set: (AUG-CC-PVTZ AUX)
    Blend: AUG-CC-PVTZ-JKFIT
	 Reference Energy          =    -267.4346335581706171 [Eh]
	 Singles Energy            =      -0.0000000000000000 [Eh]
	 Same-Spin Energy          =      -0.2839111378518862 [Eh]
	 Opposite-Spin Energy      =      -0.9914905425598093 [Eh]
	 Correlation Energy        =      -1.2754016804116954 [Eh]
	 Total Energy              =    -268.7100352385822930 [Eh]

	 ================> DF-SCS-MP2 Energies <==================
	-----------------------------------------------------------
	 SCS Same-Spin Scale       =       0.3333333333333333 [-]
	 SCS Opposite-Spin Scale   =       1.2000000000000000 [-]
	 SCS Same-Spin Energy      =      -0.0946370459506287 [Eh]
	 SCS Opposite-Spin Energy  =      -1.1897886510717710 [Eh]
	 SCS Correlation Energy    =      -1.2844256970223997 [Eh]
	 SCS Total Energy          =    -268.7190592551930308 [Eh]
	-----------------------------------------------------------

  Dipole Moment: [D]
     X:    -0.1907      Y:     0.4366      Z:    -0.1274     Total:     0.4932

*** Psi4 exiting successfully. Buy a developer a beer!
