                               Psi4 1.4a3.dev225

  ==> Input File <==

--------------------------------------------------------------------------
#psi4
#
memory 32 gb

molecule  {
0 1
  N        0.9404650     1.6044440    -0.2603840
  N       -2.0577020    -0.5628020     0.2031370
  C        0.0977391     0.5422089     0.4260094
  C        0.8648870    -0.6349690     0.7149280
  C       -1.1572530     0.4065190    -0.4308380
  C        1.3403660    -1.3686840    -0.5373980
  H       -0.2919930     1.0197560     1.4097680
  H        0.2501680    -1.2934280     1.3390890
  H        1.7346290    -0.3675780     1.3302640
  H       -1.7030210     1.3537690    -0.5225160
  H       -0.8245660     0.1340620    -1.4434830
  H        1.9943120    -2.2039600    -0.2694910
  H        0.5025080    -1.7807990    -1.1082240
  H        1.8904320    -0.6904920    -1.1924240
  H        1.7396730     1.8267360     0.3337390
  H        0.4376740     2.4833400    -0.3885230
  H       -1.6829760    -1.5021330     0.0801800
  H       -2.9543020    -0.5584070    -0.2807090
units angstrom
no_reorient  #important for SAPT in psi4, default
symmetry c1  #important for SAPT in psi4, default
}

set PROPERTIES_ORIGIN ["COM"]
properties('MP2/aug-cc-pvtz', properties = ['dipole'])
--------------------------------------------------------------------------

    Molecular point group: c1
  Charge       = 0
  Multiplicity = 1
  Basis Set: AUG-CC-PVTZ
    Blend: AUG-CC-PVTZ
  Basis Set: (AUG-CC-PVTZ AUX)
    Blend: AUG-CC-PVTZ-JKFIT

    Orbital Energies [Eh]
    ---------------------

    Doubly Occupied:

       1A    -15.541744     2A    -15.534430     3A    -11.250004
       4A    -11.244767     5A    -11.213583     6A    -11.207249
       7A     -1.193814     8A     -1.152323     9A     -1.042899
      10A     -0.938249    11A     -0.874142    12A     -0.744785
      13A     -0.674161    14A     -0.660967    15A     -0.635217
      16A     -0.599153    17A     -0.580806    18A     -0.551796
      19A     -0.530250    20A     -0.514018    21A     -0.487411
      22A     -0.480089    23A     -0.461953    24A     -0.391848
      25A     -0.377569

  @DF-RHF Final Energy:  -267.43216184121172

   => Energetics <=

    Nuclear Repulsion Energy =            265.4374637557845631
    One-Electron Energy =                -887.9727941247066383
    Two-Electron Energy =                 355.1031685277104089
    Total Energy =                       -267.4321618412117232
  Basis Set: (AUG-CC-PVTZ AUX)
    Blend: AUG-CC-PVTZ-RI
    Molecular point group: c1

    Geometry (in Angstrom), charge = 0, multiplicity = 1:

       Center              X                  Y                   Z               Mass
    ------------   -----------------  -----------------  -----------------  -----------------
         N            0.949486516570     1.600634716761    -0.266659579041    14.003074004430
         N           -2.048680483430    -0.566611283239     0.196861420959    14.003074004430
         C            0.106760616570     0.538399616761     0.419733820959    12.000000000000
         C            0.873908516570    -0.638778283239     0.708652420959    12.000000000000
         C           -1.148231483430     0.402709716761    -0.437113579041    12.000000000000
         C            1.349387516570    -1.372493283239    -0.543673579041    12.000000000000
         H           -0.282971483430     1.015946716761     1.403492420959     1.007825032230
         H            0.259189516570    -1.297237283239     1.332813420959     1.007825032230
         H            1.743650516570    -0.371387283239     1.323988420959     1.007825032230
         H           -1.693999483430     1.349959716761    -0.528791579041     1.007825032230
         H           -0.815544483430     0.130252716761    -1.449758579041     1.007825032230
         H            2.003333516570    -2.207769283239    -0.275766579041     1.007825032230
         H            0.511529516570    -1.784608283239    -1.114499579041     1.007825032230
         H            1.899453516570    -0.694301283239    -1.198699579041     1.007825032230
         H            1.748694516570     1.822926716761     0.327463420959     1.007825032230
         H            0.446695516570     2.479530716761    -0.394798579041     1.007825032230
         H           -1.673954483430    -1.505942283239     0.073904420959     1.007825032230
         H           -2.945280483430    -0.562216283239    -0.286984579041     1.007825032230

  Basis Set: AUG-CC-PVTZ
    Blend: AUG-CC-PVTZ
  Basis Set: (AUG-CC-PVTZ AUX)
    Blend: AUG-CC-PVTZ-JKFIT
	 Reference Energy          =    -267.4321618412117232 [Eh]
	 Singles Energy            =      -0.0000000000000000 [Eh]
	 Same-Spin Energy          =      -0.2844479052169870 [Eh]
	 Opposite-Spin Energy      =      -0.9922346012923924 [Eh]
	 Correlation Energy        =      -1.2766825065093794 [Eh]
	 Total Energy              =    -268.7088443477210831 [Eh]

	 ================> DF-SCS-MP2 Energies <==================
	-----------------------------------------------------------
	 SCS Same-Spin Scale       =       0.3333333333333333 [-]
	 SCS Opposite-Spin Scale   =       1.2000000000000000 [-]
	 SCS Same-Spin Energy      =      -0.0948159684056623 [Eh]
	 SCS Opposite-Spin Energy  =      -1.1906815215508708 [Eh]
	 SCS Correlation Energy    =      -1.2854974899565332 [Eh]
	 SCS Total Energy          =    -268.7176593311682495 [Eh]
	-----------------------------------------------------------

  Dipole Moment: [D]
     X:    -0.2613      Y:     0.0536      Z:    -0.0874     Total:     0.2807

*** Psi4 exiting successfully. Buy a developer a beer!
