                               Psi4 1.4a3.dev225

  ==> Input File <==

--------------------------------------------------------------------------
#psi4
#
memory 32 gb

molecule  {
0 1
  N        0.9404650     1.6044440    -0.2603840
  N       -2.0577020    -0.5628020     0.2031370
  C        0.0733550     0.6450740     0.4388170
  C        0.8648870    -0.6349690     0.7149280
  C       -1.2800071     0.2743759    -0.3444111
  C        1.3403660    -1.3686840    -0.5373980
  H       -0.2919930     1.0197560     1.4097680
  H        0.2501680    -1.2934280     1.3390890
  H        1.7346290    -0.3675780     1.3302640
  H       -1.7030210     1.3537690    -0.5225160
  H       -0.8245660     0.1340620    -1.4434830
  H        1.9943120    -2.2039600    -0.2694910
  H        0.5025080    -1.7807990    -1.1082240
  H        1.8904320    -0.6904920    -1.1924240
  H        1.7396730     1.8267360     0.3337390
  H        0.4376740     2.4833400    -0.3885230
  H       -1.6829760    -1.5021330     0.0801800
  H       -2.9543020    -0.5584070    -0.2807090
units angstrom
no_reorient  #important for SAPT in psi4, default
symmetry c1  #important for SAPT in psi4, default
}

set PROPERTIES_ORIGIN ["COM"]
properties('MP2/aug-cc-pvtz', properties = ['dipole'])
--------------------------------------------------------------------------

    Molecular point group: c1
  Charge       = 0
  Multiplicity = 1
  Basis Set: AUG-CC-PVTZ
    Blend: AUG-CC-PVTZ
  Basis Set: (AUG-CC-PVTZ AUX)
    Blend: AUG-CC-PVTZ-JKFIT

    Orbital Energies [Eh]
    ---------------------

    Doubly Occupied:

       1A    -15.547667     2A    -15.539134     3A    -11.252608
       4A    -11.245302     5A    -11.211521     6A    -11.203246
       7A     -1.256382     8A     -1.173136     9A     -1.027581
      10A     -0.922661    11A     -0.851622    12A     -0.748505
      13A     -0.698447    14A     -0.672745    15A     -0.654975
      16A     -0.600380    17A     -0.589283    18A     -0.554353
      19A     -0.547793    20A     -0.500912    21A     -0.491015
      22A     -0.470166    23A     -0.424706    24A     -0.391815
      25A     -0.360189

  @DF-RHF Final Energy:  -267.39489204010260

   => Energetics <=

    Nuclear Repulsion Energy =            265.5112791173345386
    One-Electron Energy =                -887.9400515592038801
    Two-Electron Energy =                 355.0338804017667371
    Total Energy =                       -267.3948920401026044
  Basis Set: (AUG-CC-PVTZ AUX)
    Blend: AUG-CC-PVTZ-RI
    Molecular point group: c1

    Geometry (in Angstrom), charge = 0, multiplicity = 1:

       Center              X                  Y                   Z               Mass
    ------------   -----------------  -----------------  -----------------  -----------------
         N            0.969528031100     1.604622637386    -0.280176189097    14.003074004430
         N           -2.028638968900    -0.562623362614     0.183344810903    14.003074004430
         C            0.102418031100     0.645252637386     0.419024810903    12.000000000000
         C            0.893950031100    -0.634790362614     0.695135810903    12.000000000000
         C           -1.250944068900     0.274554537386    -0.364203289097    12.000000000000
         C            1.369429031100    -1.368505362614    -0.557190189097    12.000000000000
         H           -0.262929968900     1.019934637386     1.389975810903     1.007825032230
         H            0.279231031100    -1.293249362614     1.319296810903     1.007825032230
         H            1.763692031100    -0.367399362614     1.310471810903     1.007825032230
         H           -1.673957968900     1.353947637386    -0.542308189097     1.007825032230
         H           -0.795502968900     0.134240637386    -1.463275189097     1.007825032230
         H            2.023375031100    -2.203781362614    -0.289283189097     1.007825032230
         H            0.531571031100    -1.780620362614    -1.128016189097     1.007825032230
         H            1.919495031100    -0.690313362614    -1.212216189097     1.007825032230
         H            1.768736031100     1.826914637386     0.313946810903     1.007825032230
         H            0.466737031100     2.483518637386    -0.408315189097     1.007825032230
         H           -1.653912968900    -1.501954362614     0.060387810903     1.007825032230
         H           -2.925238968900    -0.558228362614    -0.300501189097     1.007825032230

  Basis Set: AUG-CC-PVTZ
    Blend: AUG-CC-PVTZ
  Basis Set: (AUG-CC-PVTZ AUX)
    Blend: AUG-CC-PVTZ-JKFIT
	 Reference Energy          =    -267.3948920401026044 [Eh]
	 Singles Energy            =      -0.0000000000000000 [Eh]
	 Same-Spin Energy          =      -0.2858488471338460 [Eh]
	 Opposite-Spin Energy      =      -0.9928717313265399 [Eh]
	 Correlation Energy        =      -1.2787205784603859 [Eh]
	 Total Energy              =    -268.6736126185629701 [Eh]

	 ================> DF-SCS-MP2 Energies <==================
	-----------------------------------------------------------
	 SCS Same-Spin Scale       =       0.3333333333333333 [-]
	 SCS Opposite-Spin Scale   =       1.2000000000000000 [-]
	 SCS Same-Spin Energy      =      -0.0952829490446153 [Eh]
	 SCS Opposite-Spin Energy  =      -1.1914460775918478 [Eh]
	 SCS Correlation Energy    =      -1.2867290266364630 [Eh]
	 SCS Total Energy          =    -268.6816210667390692 [Eh]
	-----------------------------------------------------------

  Dipole Moment: [D]
     X:    -0.6616      Y:    -0.0756      Z:     0.1702     Total:     0.6873

*** Psi4 exiting successfully. Buy a developer a beer!
