                               Psi4 1.4a3.dev225

  ==> Input File <==

--------------------------------------------------------------------------
#psi4
#
memory 32 gb

molecule  {
0 1
  N        0.9571994     1.6031176    -0.2409801
  N       -2.0577020    -0.5628020     0.2031370
  C        0.0733550     0.6450740     0.4388170
  C        0.8648870    -0.6349690     0.7149280
  C       -1.1572530     0.4065190    -0.4308380
  C        1.3403660    -1.3686840    -0.5373980
  H       -0.2919930     1.0197560     1.4097680
  H        0.2501680    -1.2934280     1.3390890
  H        1.7346290    -0.3675780     1.3302640
  H       -1.7030210     1.3537690    -0.5225160
  H       -0.8245660     0.1340620    -1.4434830
  H        1.9943120    -2.2039600    -0.2694910
  H        0.5025080    -1.7807990    -1.1082240
  H        1.8904320    -0.6904920    -1.1924240
  H        1.7396730     1.8267360     0.3337390
  H        0.4376740     2.4833400    -0.3885230
  H       -1.6829760    -1.5021330     0.0801800
  H       -2.9543020    -0.5584070    -0.2807090
units angstrom
no_reorient  #important for SAPT in psi4, default
symmetry c1  #important for SAPT in psi4, default
}

set PROPERTIES_ORIGIN ["COM"]
properties('MP2/aug-cc-pvtz', properties = ['dipole'])
--------------------------------------------------------------------------

    Molecular point group: c1
  Charge       = 0
  Multiplicity = 1
  Basis Set: AUG-CC-PVTZ
    Blend: AUG-CC-PVTZ
  Basis Set: (AUG-CC-PVTZ AUX)
    Blend: AUG-CC-PVTZ-JKFIT

    Orbital Energies [Eh]
    ---------------------

    Doubly Occupied:

       1A    -15.542099     2A    -15.536412     3A    -11.245434
       4A    -11.243206     5A    -11.213903     6A    -11.205422
       7A     -1.197116     8A     -1.160036     9A     -1.029302
      10A     -0.939609    11A     -0.863081    12A     -0.750472
      13A     -0.671745    14A     -0.660590    15A     -0.647965
      16A     -0.589810    17A     -0.580974    18A     -0.551196
      19A     -0.532551    20A     -0.516516    21A     -0.491140
      22A     -0.468376    23A     -0.452763    24A     -0.394213
      25A     -0.387302

  @DF-RHF Final Energy:  -267.44489856975696

   => Energetics <=

    Nuclear Repulsion Energy =            264.7214415717737666
    One-Electron Energy =                -886.5902203839411868
    Two-Electron Energy =                 354.4238802424104620
    Total Energy =                       -267.4448985697569583
  Basis Set: (AUG-CC-PVTZ AUX)
    Blend: AUG-CC-PVTZ-RI
    Molecular point group: c1

    Geometry (in Angstrom), charge = 0, multiplicity = 1:

       Center              X                  Y                   Z               Mass
    ------------   -----------------  -----------------  -----------------  -----------------
         N            0.966882393600     1.585508011940    -0.252084342083    14.003074004430
         N           -2.048019006400    -0.580411588060     0.192032757917    14.003074004430
         C            0.083037993600     0.627464411940     0.427712757917    12.000000000000
         C            0.874569993600    -0.652578588060     0.703823757917    12.000000000000
         C           -1.147570006400     0.388909411940    -0.441942242083    12.000000000000
         C            1.350048993600    -1.386293588060    -0.548502242083    12.000000000000
         H           -0.282310006400     1.002146411940     1.398663757917     1.007825032230
         H            0.259850993600    -1.311037588060     1.327984757917     1.007825032230
         H            1.744311993600    -0.385187588060     1.319159757917     1.007825032230
         H           -1.693338006400     1.336159411940    -0.533620242083     1.007825032230
         H           -0.814883006400     0.116452411940    -1.454587242083     1.007825032230
         H            2.003994993600    -2.221569588060    -0.280595242083     1.007825032230
         H            0.512190993600    -1.798408588060    -1.119328242083     1.007825032230
         H            1.900114993600    -0.708101588060    -1.203528242083     1.007825032230
         H            1.749355993600     1.809126411940     0.322634757917     1.007825032230
         H            0.447356993600     2.465730411940    -0.399627242083     1.007825032230
         H           -1.673293006400    -1.519742588060     0.069075757917     1.007825032230
         H           -2.944619006400    -0.576016588060    -0.291813242083     1.007825032230

  Basis Set: AUG-CC-PVTZ
    Blend: AUG-CC-PVTZ
  Basis Set: (AUG-CC-PVTZ AUX)
    Blend: AUG-CC-PVTZ-JKFIT
	 Reference Energy          =    -267.4448985697569583 [Eh]
	 Singles Energy            =      -0.0000000000000000 [Eh]
	 Same-Spin Energy          =      -0.2836070088540116 [Eh]
	 Opposite-Spin Energy      =      -0.9907020763149909 [Eh]
	 Correlation Energy        =      -1.2743090851690024 [Eh]
	 Total Energy              =    -268.7192076549259809 [Eh]

	 ================> DF-SCS-MP2 Energies <==================
	-----------------------------------------------------------
	 SCS Same-Spin Scale       =       0.3333333333333333 [-]
	 SCS Opposite-Spin Scale   =       1.2000000000000000 [-]
	 SCS Same-Spin Energy      =      -0.0945356696180039 [Eh]
	 SCS Opposite-Spin Energy  =      -1.1888424915779889 [Eh]
	 SCS Correlation Energy    =      -1.2833781611959927 [Eh]
	 SCS Total Energy          =    -268.7282767309529277 [Eh]
	-----------------------------------------------------------

  Dipole Moment: [D]
     X:    -0.2480      Y:     0.2565      Z:    -0.1349     Total:     0.3814

*** Psi4 exiting successfully. Buy a developer a beer!
