                               Psi4 1.4a3.dev225

  ==> Input File <==

--------------------------------------------------------------------------
#psi4
#
memory 32 gb

molecule  {
0 1
  N        0.9404650     1.6044440    -0.2603840
  N       -2.0577020    -0.5628020     0.2031370
  C        0.0733550     0.6450740     0.4388170
  C        0.8648870    -0.6349690     0.7149280
  C       -1.1572530     0.4065190    -0.4308380
  C        1.3403660    -1.3686840    -0.5373980
  H       -0.2919930     1.0197560     1.4097680
  H        0.2501680    -1.2934280     1.3390890
  H        1.7346290    -0.3675780     1.3302640
  H       -1.6963150     1.3532103    -0.5602129
  H       -0.8245660     0.1340620    -1.4434830
  H        1.9943120    -2.2039600    -0.2694910
  H        0.5025080    -1.7807990    -1.1082240
  H        1.8904320    -0.6904920    -1.1924240
  H        1.7396730     1.8267360     0.3337390
  H        0.4376740     2.4833400    -0.3885230
  H       -1.6829760    -1.5021330     0.0801800
  H       -2.9543020    -0.5584070    -0.2807090
units angstrom
no_reorient  #important for SAPT in psi4, default
symmetry c1  #important for SAPT in psi4, default
}

set PROPERTIES_ORIGIN ["COM"]
properties('MP2/aug-cc-pvtz', properties = ['dipole'])
--------------------------------------------------------------------------

    Molecular point group: c1
  Charge       = 0
  Multiplicity = 1
  Basis Set: AUG-CC-PVTZ
    Blend: AUG-CC-PVTZ
  Basis Set: (AUG-CC-PVTZ AUX)
    Blend: AUG-CC-PVTZ-JKFIT

    Orbital Energies [Eh]
    ---------------------

    Doubly Occupied:

       1A    -15.541833     2A    -15.538290     3A    -11.245570
       4A    -11.242477     5A    -11.214490     6A    -11.205507
       7A     -1.196777     8A     -1.159177     9A     -1.029396
      10A     -0.938625    11A     -0.863556    12A     -0.750563
      13A     -0.670933    14A     -0.662163    15A     -0.643172
      16A     -0.589677    17A     -0.581093    18A     -0.553109
      19A     -0.530237    20A     -0.514684    21A     -0.491721
      22A     -0.468281    23A     -0.453693    24A     -0.393840
      25A     -0.388544

  @DF-RHF Final Energy:  -267.44492389348312

   => Energetics <=

    Nuclear Repulsion Energy =            264.7076548649973802
    One-Electron Energy =                -886.5703414743810526
    Two-Electron Energy =                 354.4177627159005510
    Total Energy =                       -267.4449238934831214
  Basis Set: (AUG-CC-PVTZ AUX)
    Blend: AUG-CC-PVTZ-RI
    Molecular point group: c1

    Geometry (in Angstrom), charge = 0, multiplicity = 1:

       Center              X                  Y                   Z               Mass
    ------------   -----------------  -----------------  -----------------  -----------------
         N            0.952731131420     1.586629978391    -0.267972850971    14.003074004430
         N           -2.045435868580    -0.580616021609     0.195548149029    14.003074004430
         C            0.085621131420     0.627259978391     0.431228149029    12.000000000000
         C            0.877153131420    -0.652783021609     0.707339149029    12.000000000000
         C           -1.144986868580     0.388704978391    -0.438426850971    12.000000000000
         C            1.352632131420    -1.386498021609    -0.544986850971    12.000000000000
         H           -0.279726868580     1.001941978391     1.402179149029     1.007825032230
         H            0.262434131420    -1.311242021609     1.331500149029     1.007825032230
         H            1.746895131420    -0.385392021609     1.322675149029     1.007825032230
         H           -1.684048868580     1.335396278391    -0.567801750971     1.007825032230
         H           -0.812299868580     0.116247978391    -1.451071850971     1.007825032230
         H            2.006578131420    -2.221774021609    -0.277079850971     1.007825032230
         H            0.514774131420    -1.798613021609    -1.115812850971     1.007825032230
         H            1.902698131420    -0.708306021609    -1.200012850971     1.007825032230
         H            1.751939131420     1.808921978391     0.326150149029     1.007825032230
         H            0.449940131420     2.465525978391    -0.396111850971     1.007825032230
         H           -1.670709868580    -1.519947021609     0.072591149029     1.007825032230
         H           -2.942035868580    -0.576221021609    -0.288297850971     1.007825032230

  Basis Set: AUG-CC-PVTZ
    Blend: AUG-CC-PVTZ
  Basis Set: (AUG-CC-PVTZ AUX)
    Blend: AUG-CC-PVTZ-JKFIT
	 Reference Energy          =    -267.4449238934831214 [Eh]
	 Singles Energy            =      -0.0000000000000000 [Eh]
	 Same-Spin Energy          =      -0.2837035512138267 [Eh]
	 Opposite-Spin Energy      =      -0.9909516656194637 [Eh]
	 Correlation Energy        =      -1.2746552168332905 [Eh]
	 Total Energy              =    -268.7195791103164311 [Eh]

	 ================> DF-SCS-MP2 Energies <==================
	-----------------------------------------------------------
	 SCS Same-Spin Scale       =       0.3333333333333333 [-]
	 SCS Opposite-Spin Scale   =       1.2000000000000000 [-]
	 SCS Same-Spin Energy      =      -0.0945678504046089 [Eh]
	 SCS Opposite-Spin Energy  =      -1.1891419987433565 [Eh]
	 SCS Correlation Energy    =      -1.2837098491479653 [Eh]
	 SCS Total Energy          =    -268.7286337426310752 [Eh]
	-----------------------------------------------------------

  Dipole Moment: [D]
     X:    -0.2263      Y:     0.2566      Z:    -0.1136     Total:     0.3605

*** Psi4 exiting successfully. Buy a developer a beer!
