                               Psi4 1.4a3.dev225

  ==> Input File <==

--------------------------------------------------------------------------
#psi4
#
memory 32 gb

molecule  {
0 1
  N        0.9404650     1.6044440    -0.2603840
  N       -2.0577020    -0.5628020     0.2031370
  C        0.0255826     0.7970374     0.4500704
  C        0.8648870    -0.6349690     0.7149280
  C       -1.1572530     0.4065190    -0.4308380
  C        1.3403660    -1.3686840    -0.5373980
  H       -0.2919930     1.0197560     1.4097680
  H        0.2501680    -1.2934280     1.3390890
  H        1.7346290    -0.3675780     1.3302640
  H       -1.7030210     1.3537690    -0.5225160
  H       -0.8245660     0.1340620    -1.4434830
  H        1.9943120    -2.2039600    -0.2694910
  H        0.5025080    -1.7807990    -1.1082240
  H        1.8904320    -0.6904920    -1.1924240
  H        1.7396730     1.8267360     0.3337390
  H        0.4376740     2.4833400    -0.3885230
  H       -1.6829760    -1.5021330     0.0801800
  H       -2.9543020    -0.5584070    -0.2807090
units angstrom
no_reorient  #important for SAPT in psi4, default
symmetry c1  #important for SAPT in psi4, default
}

set PROPERTIES_ORIGIN ["COM"]
properties('MP2/aug-cc-pvtz', properties = ['dipole'])
--------------------------------------------------------------------------

    Molecular point group: c1
  Charge       = 0
  Multiplicity = 1
  Basis Set: AUG-CC-PVTZ
    Blend: AUG-CC-PVTZ
  Basis Set: (AUG-CC-PVTZ AUX)
    Blend: AUG-CC-PVTZ-JKFIT

    Orbital Energies [Eh]
    ---------------------

    Doubly Occupied:

       1A    -15.544625     2A    -15.542046     3A    -11.244644
       4A    -11.242299     5A    -11.213071     6A    -11.203434
       7A     -1.209080     8A     -1.165843     9A     -1.013825
      10A     -0.941150    11A     -0.849530    12A     -0.758848
      13A     -0.673394    14A     -0.661779    15A     -0.657126
      16A     -0.584458    17A     -0.577627    18A     -0.556530
      19A     -0.539336    20A     -0.513165    21A     -0.493021
      22A     -0.469835    23A     -0.420236    24A     -0.394486
      25A     -0.388510

  @DF-RHF Final Energy:  -267.42220140645833

   => Energetics <=

    Nuclear Repulsion Energy =            263.7105251333152864
    One-Electron Energy =                -884.5496607960452593
    Two-Electron Energy =                 353.4169342562716452
    Total Energy =                       -267.4222014064583277
  Basis Set: (AUG-CC-PVTZ AUX)
    Blend: AUG-CC-PVTZ-RI
    Molecular point group: c1

    Geometry (in Angstrom), charge = 0, multiplicity = 1:

       Center              X                  Y                   Z               Mass
    ------------   -----------------  -----------------  -----------------  -----------------
         N            0.959314865314     1.565924837985    -0.269936898467    14.003074004430
         N           -2.038852134686    -0.601321162015     0.193584101533    14.003074004430
         C            0.044432465314     0.758518237985     0.440517501533    12.000000000000
         C            0.883736865314    -0.673488162015     0.705375101533    12.000000000000
         C           -1.138403134686     0.367999837985    -0.440390898467    12.000000000000
         C            1.359215865314    -1.407203162015    -0.546950898467    12.000000000000
         H           -0.273143134686     0.981236837985     1.400215101533     1.007825032230
         H            0.269017865314    -1.331947162015     1.329536101533     1.007825032230
         H            1.753478865314    -0.406097162015     1.320711101533     1.007825032230
         H           -1.684171134686     1.315249837985    -0.532068898467     1.007825032230
         H           -0.805716134686     0.095542837985    -1.453035898467     1.007825032230
         H            2.013161865314    -2.242479162015    -0.279043898467     1.007825032230
         H            0.521357865314    -1.819318162015    -1.117776898467     1.007825032230
         H            1.909281865314    -0.729011162015    -1.201976898467     1.007825032230
         H            1.758522865314     1.788216837985     0.324186101533     1.007825032230
         H            0.456523865314     2.444820837985    -0.398075898467     1.007825032230
         H           -1.664126134686    -1.540652162015     0.070627101533     1.007825032230
         H           -2.935452134686    -0.596926162015    -0.290261898467     1.007825032230

  Basis Set: AUG-CC-PVTZ
    Blend: AUG-CC-PVTZ
  Basis Set: (AUG-CC-PVTZ AUX)
    Blend: AUG-CC-PVTZ-JKFIT
	 Reference Energy          =    -267.4222014064583277 [Eh]
	 Singles Energy            =      -0.0000000000000000 [Eh]
	 Same-Spin Energy          =      -0.2843452696518858 [Eh]
	 Opposite-Spin Energy      =      -0.9923797381504220 [Eh]
	 Correlation Energy        =      -1.2767250078023078 [Eh]
	 Total Energy              =    -268.6989264142606544 [Eh]

	 ================> DF-SCS-MP2 Energies <==================
	-----------------------------------------------------------
	 SCS Same-Spin Scale       =       0.3333333333333333 [-]
	 SCS Opposite-Spin Scale   =       1.2000000000000000 [-]
	 SCS Same-Spin Energy      =      -0.0947817565506286 [Eh]
	 SCS Opposite-Spin Energy  =      -1.1908556857805064 [Eh]
	 SCS Correlation Energy    =      -1.2856374423311350 [Eh]
	 SCS Total Energy          =    -268.7078388487894358 [Eh]
	-----------------------------------------------------------

  Dipole Moment: [D]
     X:    -0.1763      Y:     0.5198      Z:    -0.1411     Total:     0.5668

*** Psi4 exiting successfully. Buy a developer a beer!
