                               Psi4 1.4a3.dev225

  ==> Input File <==

--------------------------------------------------------------------------
#psi4
#
memory 32 gb

molecule  {
0 1
  N        0.9404650     1.6044440    -0.2603840
  N       -2.0577020    -0.5628020     0.2031370
  C        0.0733550     0.6450740     0.4388170
  C        0.8648870    -0.6349690     0.7149280
  C       -1.1572530     0.4065190    -0.4308380
  C        1.3403660    -1.3686840    -0.5373980
  H       -0.2919930     1.0197560     1.4097680
  H        0.2501680    -1.2934280     1.3390890
  H        1.7346290    -0.3675780     1.3302640
  H       -1.7030210     1.3537690    -0.5225160
  H       -0.8245660     0.1340620    -1.4434830
  H        1.9943120    -2.2039600    -0.2694910
  H        0.5025080    -1.7807990    -1.1082240
  H        1.8904320    -0.6904920    -1.1924240
  H        1.7396730     1.8267360     0.3337390
  H        0.4376740     2.4833400    -0.3885230
  H       -1.6829760    -1.5021330     0.0801800
  H       -2.9543020    -0.5584070    -0.2807090
units angstrom
no_reorient  #important for SAPT in psi4, default
symmetry c1  #important for SAPT in psi4, default
}

set PROPERTIES_ORIGIN ["COM"]
properties('MP2/aug-cc-pvtz', properties = ['dipole'])
--------------------------------------------------------------------------

    Molecular point group: c1
  Charge       = 0
  Multiplicity = 1
  Basis Set: AUG-CC-PVTZ
    Blend: AUG-CC-PVTZ
  Basis Set: (AUG-CC-PVTZ AUX)
    Blend: AUG-CC-PVTZ-JKFIT

    Orbital Energies [Eh]
    ---------------------

    Doubly Occupied:

       1A    -15.541572     2A    -15.538314     3A    -11.245406
       4A    -11.242502     5A    -11.214367     6A    -11.205595
       7A     -1.196869     8A     -1.159191     9A     -1.029391
      10A     -0.938696    11A     -0.863278    12A     -0.749980
      13A     -0.671583    14A     -0.662371    15A     -0.643029
      16A     -0.589661    17A     -0.580260    18A     -0.553354
      19A     -0.530999    20A     -0.514894    21A     -0.491764
      22A     -0.468285    23A     -0.453103    24A     -0.393990
      25A     -0.388732

  @DF-RHF Final Energy:  -267.44505898917924

   => Energetics <=

    Nuclear Repulsion Energy =            264.7268542244613059
    One-Electron Energy =                -886.6094514552499959
    Two-Electron Energy =                 354.4375382416093885
    Total Energy =                       -267.4450589891792447
  Basis Set: (AUG-CC-PVTZ AUX)
    Blend: AUG-CC-PVTZ-RI
    Molecular point group: c1

    Geometry (in Angstrom), charge = 0, multiplicity = 1:

       Center              X                  Y                   Z               Mass
    ------------   -----------------  -----------------  -----------------  -----------------
         N            0.952807845052     1.586623587114    -0.268404086596    14.003074004430
         N           -2.045359154948    -0.580622412886     0.195116913404    14.003074004430
         C            0.085697845052     0.627253587114     0.430796913404    12.000000000000
         C            0.877229845052    -0.652789412886     0.706907913404    12.000000000000
         C           -1.144910154948     0.388698587114    -0.438858086596    12.000000000000
         C            1.352708845052    -1.386504412886    -0.545418086596    12.000000000000
         H           -0.279650154948     1.001935587114     1.401747913404     1.007825032230
         H            0.262510845052    -1.311248412886     1.331068913404     1.007825032230
         H            1.746971845052    -0.385398412886     1.322243913404     1.007825032230
         H           -1.690678154948     1.335948587114    -0.530536086596     1.007825032230
         H           -0.812223154948     0.116241587114    -1.451503086596     1.007825032230
         H            2.006654845052    -2.221780412886    -0.277511086596     1.007825032230
         H            0.514850845052    -1.798619412886    -1.116244086596     1.007825032230
         H            1.902774845052    -0.708312412886    -1.200444086596     1.007825032230
         H            1.752015845052     1.808915587114     0.325718913404     1.007825032230
         H            0.450016845052     2.465519587114    -0.396543086596     1.007825032230
         H           -1.670633154948    -1.519953412886     0.072159913404     1.007825032230
         H           -2.941959154948    -0.576227412886    -0.288729086596     1.007825032230

  Basis Set: AUG-CC-PVTZ
    Blend: AUG-CC-PVTZ
  Basis Set: (AUG-CC-PVTZ AUX)
    Blend: AUG-CC-PVTZ-JKFIT
	 Reference Energy          =    -267.4450589891792447 [Eh]
	 Singles Energy            =      -0.0000000000000000 [Eh]
	 Same-Spin Energy          =      -0.2837055713739213 [Eh]
	 Opposite-Spin Energy      =      -0.9909852704873797 [Eh]
	 Correlation Energy        =      -1.2746908418613010 [Eh]
	 Total Energy              =    -268.7197498310405308 [Eh]

	 ================> DF-SCS-MP2 Energies <==================
	-----------------------------------------------------------
	 SCS Same-Spin Scale       =       0.3333333333333333 [-]
	 SCS Opposite-Spin Scale   =       1.2000000000000000 [-]
	 SCS Same-Spin Energy      =      -0.0945685237913071 [Eh]
	 SCS Opposite-Spin Energy  =      -1.1891823245848556 [Eh]
	 SCS Correlation Energy    =      -1.2837508483761626 [Eh]
	 SCS Total Energy          =    -268.7288098375553886 [Eh]
	-----------------------------------------------------------

  Dipole Moment: [D]
     X:    -0.2236      Y:     0.2570      Z:    -0.1042     Total:     0.3563

*** Psi4 exiting successfully. Buy a developer a beer!
