                               Psi4 1.4a3.dev225

  ==> Input File <==

--------------------------------------------------------------------------
#psi4
#
memory 32 gb

molecule  {
0 1
  N        0.9404650     1.6044440    -0.2603840
  N       -2.0577020    -0.5628020     0.2031370
  C        0.0733550     0.6450740     0.4388170
  C        0.8903227    -0.6432825     0.5570187
  C       -1.1572530     0.4065190    -0.4308380
  C        1.3403660    -1.3686840    -0.5373980
  H       -0.2919930     1.0197560     1.4097680
  H        0.2501680    -1.2934280     1.3390890
  H        1.7346290    -0.3675780     1.3302640
  H       -1.7030210     1.3537690    -0.5225160
  H       -0.8245660     0.1340620    -1.4434830
  H        1.9943120    -2.2039600    -0.2694910
  H        0.5025080    -1.7807990    -1.1082240
  H        1.8904320    -0.6904920    -1.1924240
  H        1.7396730     1.8267360     0.3337390
  H        0.4376740     2.4833400    -0.3885230
  H       -1.6829760    -1.5021330     0.0801800
  H       -2.9543020    -0.5584070    -0.2807090
units angstrom
no_reorient  #important for SAPT in psi4, default
symmetry c1  #important for SAPT in psi4, default
}

set PROPERTIES_ORIGIN ["COM"]
properties('MP2/aug-cc-pvtz', properties = ['dipole'])
--------------------------------------------------------------------------

    Molecular point group: c1
  Charge       = 0
  Multiplicity = 1
  Basis Set: AUG-CC-PVTZ
    Blend: AUG-CC-PVTZ
  Basis Set: (AUG-CC-PVTZ AUX)
    Blend: AUG-CC-PVTZ-JKFIT

    Orbital Energies [Eh]
    ---------------------

    Doubly Occupied:

       1A    -15.541242     2A    -15.537678     3A    -11.248374
       4A    -11.242401     5A    -11.224224     6A    -11.201925
       7A     -1.198992     8A     -1.159682     9A     -1.053649
      10A     -0.946353    11A     -0.856355    12A     -0.740778
      13A     -0.673975    14A     -0.663891    15A     -0.643629
      16A     -0.593441    17A     -0.589406    18A     -0.557029
      19A     -0.544726    20A     -0.515016    21A     -0.514122
      22A     -0.436827    23A     -0.429525    24A     -0.394954
      25A     -0.391724

  @DF-RHF Final Energy:  -267.41418673534361

   => Energetics <=

    Nuclear Repulsion Energy =            266.1329944126472355
    One-Electron Energy =                -889.2945288014631160
    Two-Electron Energy =                 355.7473476534722749
    Total Energy =                       -267.4141867353436055
  Basis Set: (AUG-CC-PVTZ AUX)
    Blend: AUG-CC-PVTZ-RI
    Molecular point group: c1

    Geometry (in Angstrom), charge = 0, multiplicity = 1:

       Center              X                  Y                   Z               Mass
    ------------   -----------------  -----------------  -----------------  -----------------
         N            0.949343279418     1.587755958796    -0.246895453690    14.003074004430
         N           -2.048823720582    -0.579490041204     0.216625546310    14.003074004430
         C            0.082233279418     0.628385958796     0.452305546310    12.000000000000
         C            0.899200979418    -0.659970541204     0.570507246310    12.000000000000
         C           -1.148374720582     0.389830958796    -0.417349453690    12.000000000000
         C            1.349244279418    -1.385372041204    -0.523909453690    12.000000000000
         H           -0.283114720582     1.003067958796     1.423256546310     1.007825032230
         H            0.259046279418    -1.310116041204     1.352577546310     1.007825032230
         H            1.743507279418    -0.384266041204     1.343752546310     1.007825032230
         H           -1.694142720582     1.337080958796    -0.509027453690     1.007825032230
         H           -0.815687720582     0.117373958796    -1.429994453690     1.007825032230
         H            2.003190279418    -2.220648041204    -0.256002453690     1.007825032230
         H            0.511386279418    -1.797487041204    -1.094735453690     1.007825032230
         H            1.899310279418    -0.707180041204    -1.178935453690     1.007825032230
         H            1.748551279418     1.810047958796     0.347227546310     1.007825032230
         H            0.446552279418     2.466651958796    -0.375034453690     1.007825032230
         H           -1.674097720582    -1.518821041204     0.093668546310     1.007825032230
         H           -2.945423720582    -0.575095041204    -0.267220453690     1.007825032230

  Basis Set: AUG-CC-PVTZ
    Blend: AUG-CC-PVTZ
  Basis Set: (AUG-CC-PVTZ AUX)
    Blend: AUG-CC-PVTZ-JKFIT
	 Reference Energy          =    -267.4141867353436055 [Eh]
	 Singles Energy            =      -0.0000000000000000 [Eh]
	 Same-Spin Energy          =      -0.2856719660089850 [Eh]
	 Opposite-Spin Energy      =      -0.9938474256658596 [Eh]
	 Correlation Energy        =      -1.2795193916748446 [Eh]
	 Total Energy              =    -268.6937061270184586 [Eh]

	 ================> DF-SCS-MP2 Energies <==================
	-----------------------------------------------------------
	 SCS Same-Spin Scale       =       0.3333333333333333 [-]
	 SCS Opposite-Spin Scale   =       1.2000000000000000 [-]
	 SCS Same-Spin Energy      =      -0.0952239886696617 [Eh]
	 SCS Opposite-Spin Energy  =      -1.1926169107990314 [Eh]
	 SCS Correlation Energy    =      -1.2878408994686932 [Eh]
	 SCS Total Energy          =    -268.7020276348122820 [Eh]
	-----------------------------------------------------------

  Dipole Moment: [D]
     X:    -0.2127      Y:     0.2341      Z:    -0.2160     Total:     0.3830

*** Psi4 exiting successfully. Buy a developer a beer!
