                               Psi4 1.4a3.dev225

  ==> Input File <==

--------------------------------------------------------------------------
#psi4
#
memory 32 gb

molecule  {
0 1
  N        0.9404650     1.6044440    -0.2603840
  N       -2.0563017    -0.5774635     0.1821919
  C        0.0733550     0.6450740     0.4388170
  C        0.8648870    -0.6349690     0.7149280
  C       -1.1572530     0.4065190    -0.4308380
  C        1.3403660    -1.3686840    -0.5373980
  H       -0.2919930     1.0197560     1.4097680
  H        0.2501680    -1.2934280     1.3390890
  H        1.7346290    -0.3675780     1.3302640
  H       -1.7030210     1.3537690    -0.5225160
  H       -0.8245660     0.1340620    -1.4434830
  H        1.9943120    -2.2039600    -0.2694910
  H        0.5025080    -1.7807990    -1.1082240
  H        1.8904320    -0.6904920    -1.1924240
  H        1.7396730     1.8267360     0.3337390
  H        0.4376740     2.4833400    -0.3885230
  H       -1.6829760    -1.5021330     0.0801800
  H       -2.9543020    -0.5584070    -0.2807090
units angstrom
no_reorient  #important for SAPT in psi4, default
symmetry c1  #important for SAPT in psi4, default
}

set PROPERTIES_ORIGIN ["COM"]
properties('MP2/aug-cc-pvtz', properties = ['dipole'])
--------------------------------------------------------------------------

    Molecular point group: c1
  Charge       = 0
  Multiplicity = 1
  Basis Set: AUG-CC-PVTZ
    Blend: AUG-CC-PVTZ
  Basis Set: (AUG-CC-PVTZ AUX)
    Blend: AUG-CC-PVTZ-JKFIT

    Orbital Energies [Eh]
    ---------------------

    Doubly Occupied:

       1A    -15.538450     2A    -15.537681     3A    -11.245589
       4A    -11.242496     5A    -11.214444     6A    -11.205495
       7A     -1.197167     8A     -1.160266     9A     -1.029517
      10A     -0.939538    11A     -0.863592    12A     -0.750493
      13A     -0.675427    14A     -0.662117    15A     -0.643371
      16A     -0.591892    17A     -0.579932    18A     -0.553108
      19A     -0.533322    20A     -0.515467    21A     -0.491756
      22A     -0.468452    23A     -0.453473    24A     -0.392174
      25A     -0.387190

  @DF-RHF Final Energy:  -267.44581284696426

   => Energetics <=

    Nuclear Repulsion Energy =            264.7864703300601832
    One-Electron Energy =                -886.7197489863096962
    Two-Electron Energy =                 354.4874658092852542
    Total Energy =                       -267.4458128469642588
  Basis Set: (AUG-CC-PVTZ AUX)
    Blend: AUG-CC-PVTZ-RI
    Molecular point group: c1

    Geometry (in Angstrom), charge = 0, multiplicity = 1:

       Center              X                  Y                   Z               Mass
    ------------   -----------------  -----------------  -----------------  -----------------
         N            0.952585274181     1.588953961197    -0.265074964868    14.003074004430
         N           -2.044181425819    -0.592953538803     0.177500935132    14.003074004430
         C            0.085475274181     0.629583961197     0.434126035132    12.000000000000
         C            0.877007274181    -0.650459038803     0.710237035132    12.000000000000
         C           -1.145132725819     0.391028961197    -0.435528964868    12.000000000000
         C            1.352486274181    -1.384174038803    -0.542088964868    12.000000000000
         H           -0.279872725819     1.004265961197     1.405077035132     1.007825032230
         H            0.262288274181    -1.308918038803     1.334398035132     1.007825032230
         H            1.746749274181    -0.383068038803     1.325573035132     1.007825032230
         H           -1.690900725819     1.338278961197    -0.527206964868     1.007825032230
         H           -0.812445725819     0.118571961197    -1.448173964868     1.007825032230
         H            2.006432274181    -2.219450038803    -0.274181964868     1.007825032230
         H            0.514628274181    -1.796289038803    -1.112914964868     1.007825032230
         H            1.902552274181    -0.705982038803    -1.197114964868     1.007825032230
         H            1.751793274181     1.811245961197     0.329048035132     1.007825032230
         H            0.449794274181     2.467849961197    -0.393213964868     1.007825032230
         H           -1.670855725819    -1.517623038803     0.075489035132     1.007825032230
         H           -2.942181725819    -0.573897038803    -0.285399964868     1.007825032230

  Basis Set: AUG-CC-PVTZ
    Blend: AUG-CC-PVTZ
  Basis Set: (AUG-CC-PVTZ AUX)
    Blend: AUG-CC-PVTZ-JKFIT
	 Reference Energy          =    -267.4458128469642588 [Eh]
	 Singles Energy            =      -0.0000000000000000 [Eh]
	 Same-Spin Energy          =      -0.2835287996722884 [Eh]
	 Opposite-Spin Energy      =      -0.9904310521430661 [Eh]
	 Correlation Energy        =      -1.2739598518153545 [Eh]
	 Total Energy              =    -268.7197726987795932 [Eh]

	 ================> DF-SCS-MP2 Energies <==================
	-----------------------------------------------------------
	 SCS Same-Spin Scale       =       0.3333333333333333 [-]
	 SCS Opposite-Spin Scale   =       1.2000000000000000 [-]
	 SCS Same-Spin Energy      =      -0.0945095998907628 [Eh]
	 SCS Opposite-Spin Energy  =      -1.1885172625716793 [Eh]
	 SCS Correlation Energy    =      -1.2830268624624421 [Eh]
	 SCS Total Energy          =    -268.7288397094267225 [Eh]
	-----------------------------------------------------------

  Dipole Moment: [D]
     X:    -0.2289      Y:     0.2791      Z:    -0.0619     Total:     0.3663

*** Psi4 exiting successfully. Buy a developer a beer!
