                               Psi4 1.4a3.dev225

  ==> Input File <==

--------------------------------------------------------------------------
#psi4
#
memory 32 gb

molecule  {
0 1
  N        0.9404650     1.6044440    -0.2603840
  N       -2.0577020    -0.5628020     0.2031370
  C        0.0733550     0.6450740     0.4388170
  C        0.8648870    -0.6349690     0.7149280
  C       -1.0344989     0.5386621    -0.5172649
  C        1.3403660    -1.3686840    -0.5373980
  H       -0.2919930     1.0197560     1.4097680
  H        0.2501680    -1.2934280     1.3390890
  H        1.7346290    -0.3675780     1.3302640
  H       -1.7030210     1.3537690    -0.5225160
  H       -0.8245660     0.1340620    -1.4434830
  H        1.9943120    -2.2039600    -0.2694910
  H        0.5025080    -1.7807990    -1.1082240
  H        1.8904320    -0.6904920    -1.1924240
  H        1.7396730     1.8267360     0.3337390
  H        0.4376740     2.4833400    -0.3885230
  H       -1.6829760    -1.5021330     0.0801800
  H       -2.9543020    -0.5584070    -0.2807090
units angstrom
no_reorient  #important for SAPT in psi4, default
symmetry c1  #important for SAPT in psi4, default
}

set PROPERTIES_ORIGIN ["COM"]
properties('MP2/aug-cc-pvtz', properties = ['dipole'])
--------------------------------------------------------------------------

    Molecular point group: c1
  Charge       = 0
  Multiplicity = 1
  Basis Set: AUG-CC-PVTZ
    Blend: AUG-CC-PVTZ
  Basis Set: (AUG-CC-PVTZ AUX)
    Blend: AUG-CC-PVTZ-JKFIT

    Orbital Energies [Eh]
    ---------------------

    Doubly Occupied:

       1A    -15.538905     2A    -15.532458     3A    -11.247748
       4A    -11.245307     5A    -11.217842     6A    -11.207718
       7A     -1.198119     8A     -1.119914     9A     -1.030833
      10A     -0.953366    11A     -0.872787    12A     -0.759892
      13A     -0.676003    14A     -0.659937    15A     -0.635404
      16A     -0.585798    17A     -0.573469    18A     -0.562393
      19A     -0.538915    20A     -0.494122    21A     -0.486807
      22A     -0.470507    23A     -0.459147    24A     -0.397737
      25A     -0.385347

  @DF-RHF Final Energy:  -267.41364232358683

   => Energetics <=

    Nuclear Repulsion Energy =            264.2845480837764285
    One-Electron Energy =                -885.6954311580135482
    Two-Electron Energy =                 353.9972407506502350
    Total Energy =                       -267.4136423235868278
  Basis Set: (AUG-CC-PVTZ AUX)
    Blend: AUG-CC-PVTZ-RI
    Molecular point group: c1

    Geometry (in Angstrom), charge = 0, multiplicity = 1:

       Center              X                  Y                   Z               Mass
    ------------   -----------------  -----------------  -----------------  -----------------
         N            0.936087659004     1.568624536843    -0.256631984096    14.003074004430
         N           -2.062079340996    -0.598621463157     0.206889015904    14.003074004430
         C            0.068977659004     0.609254536843     0.442569015904    12.000000000000
         C            0.860509659004    -0.670788463157     0.718680015904    12.000000000000
         C           -1.038876240996     0.502842636843    -0.513512884096    12.000000000000
         C            1.335988659004    -1.404503463157    -0.533645984096    12.000000000000
         H           -0.296370340996     0.983936536843     1.413520015904     1.007825032230
         H            0.245790659004    -1.329247463157     1.342841015904     1.007825032230
         H            1.730251659004    -0.403397463157     1.334016015904     1.007825032230
         H           -1.707398340996     1.317949536843    -0.518763984096     1.007825032230
         H           -0.828943340996     0.098242536843    -1.439730984096     1.007825032230
         H            1.989934659004    -2.239779463157    -0.265738984096     1.007825032230
         H            0.498130659004    -1.816618463157    -1.104471984096     1.007825032230
         H            1.886054659004    -0.726311463157    -1.188671984096     1.007825032230
         H            1.735295659004     1.790916536843     0.337491015904     1.007825032230
         H            0.433296659004     2.447520536843    -0.384770984096     1.007825032230
         H           -1.687353340996    -1.537952463157     0.083932015904     1.007825032230
         H           -2.958679340996    -0.594226463157    -0.276956984096     1.007825032230

  Basis Set: AUG-CC-PVTZ
    Blend: AUG-CC-PVTZ
  Basis Set: (AUG-CC-PVTZ AUX)
    Blend: AUG-CC-PVTZ-JKFIT
	 Reference Energy          =    -267.4136423235868278 [Eh]
	 Singles Energy            =      -0.0000000000000000 [Eh]
	 Same-Spin Energy          =      -0.2845567965440249 [Eh]
	 Opposite-Spin Energy      =      -0.9942015152372876 [Eh]
	 Correlation Energy        =      -1.2787583117813126 [Eh]
	 Total Energy              =    -268.6924006353681307 [Eh]

	 ================> DF-SCS-MP2 Energies <==================
	-----------------------------------------------------------
	 SCS Same-Spin Scale       =       0.3333333333333333 [-]
	 SCS Opposite-Spin Scale   =       1.2000000000000000 [-]
	 SCS Same-Spin Energy      =      -0.0948522655146750 [Eh]
	 SCS Opposite-Spin Energy  =      -1.1930418182847451 [Eh]
	 SCS Correlation Energy    =      -1.2878940837994202 [Eh]
	 SCS Total Energy          =    -268.7015364073862429 [Eh]
	-----------------------------------------------------------

  Dipole Moment: [D]
     X:     0.1228      Y:     0.5002      Z:    -0.2241     Total:     0.5617

*** Psi4 exiting successfully. Buy a developer a beer!
