                               Psi4 1.4a3.dev225

  ==> Input File <==

--------------------------------------------------------------------------
#psi4
#
memory 32 gb

molecule  {
0 1
  N        0.9404650     1.6044440    -0.2603840
  N       -2.0577020    -0.5628020     0.2031370
  C        0.0733550     0.6450740     0.4388170
  C        0.8828269    -0.6420784     0.6098849
  C       -1.1572530     0.4065190    -0.4308380
  C        1.3403660    -1.3686840    -0.5373980
  H       -0.2919930     1.0197560     1.4097680
  H        0.2501680    -1.2934280     1.3390890
  H        1.7346290    -0.3675780     1.3302640
  H       -1.7030210     1.3537690    -0.5225160
  H       -0.8245660     0.1340620    -1.4434830
  H        1.9943120    -2.2039600    -0.2694910
  H        0.5025080    -1.7807990    -1.1082240
  H        1.8904320    -0.6904920    -1.1924240
  H        1.7396730     1.8267360     0.3337390
  H        0.4376740     2.4833400    -0.3885230
  H       -1.6829760    -1.5021330     0.0801800
  H       -2.9543020    -0.5584070    -0.2807090
units angstrom
no_reorient  #important for SAPT in psi4, default
symmetry c1  #important for SAPT in psi4, default
}

set PROPERTIES_ORIGIN ["COM"]
properties('MP2/aug-cc-pvtz', properties = ['dipole'])
--------------------------------------------------------------------------

    Molecular point group: c1
  Charge       = 0
  Multiplicity = 1
  Basis Set: AUG-CC-PVTZ
    Blend: AUG-CC-PVTZ
  Basis Set: (AUG-CC-PVTZ AUX)
    Blend: AUG-CC-PVTZ-JKFIT

    Orbital Energies [Eh]
    ---------------------

    Doubly Occupied:

       1A    -15.541324     2A    -15.537765     3A    -11.246959
       4A    -11.242328     5A    -11.220229     6A    -11.203149
       7A     -1.198074     8A     -1.159421     9A     -1.044042
      10A     -0.943778    11A     -0.858622    12A     -0.743686
      13A     -0.672750    14A     -0.663211    15A     -0.643168
      16A     -0.591130    17A     -0.585835    18A     -0.555166
      19A     -0.538179    20A     -0.514309    21A     -0.509552
      22A     -0.444345    23A     -0.442933    24A     -0.394205
      25A     -0.391377

  @DF-RHF Final Energy:  -267.43109804983703

   => Energetics <=

    Nuclear Repulsion Energy =            265.6448192828832475
    One-Electron Energy =                -888.3807588995496189
    Two-Electron Energy =                 355.3048415668293956
    Total Energy =                       -267.4310980498370327
  Basis Set: (AUG-CC-PVTZ AUX)
    Blend: AUG-CC-PVTZ-RI
    Molecular point group: c1

    Geometry (in Angstrom), charge = 0, multiplicity = 1:

       Center              X                  Y                   Z               Mass
    ------------   -----------------  -----------------  -----------------  -----------------
         N            0.950364273182     1.587591949806    -0.254096294229    14.003074004430
         N           -2.047802726818    -0.579654050194     0.209424705771    14.003074004430
         C            0.083254273182     0.628221949806     0.445104705771    12.000000000000
         C            0.892726173182    -0.658930450194     0.616172605771    12.000000000000
         C           -1.147353726818     0.389666949806    -0.424550294229    12.000000000000
         C            1.350265273182    -1.385536050194    -0.531110294229    12.000000000000
         H           -0.282093726818     1.002903949806     1.416055705771     1.007825032230
         H            0.260067273182    -1.310280050194     1.345376705771     1.007825032230
         H            1.744528273182    -0.384430050194     1.336551705771     1.007825032230
         H           -1.693121726818     1.336916949806    -0.516228294229     1.007825032230
         H           -0.814666726818     0.117209949806    -1.437195294229     1.007825032230
         H            2.004211273182    -2.220812050194    -0.263203294229     1.007825032230
         H            0.512407273182    -1.797651050194    -1.101936294229     1.007825032230
         H            1.900331273182    -0.707344050194    -1.186136294229     1.007825032230
         H            1.749572273182     1.809883949806     0.340026705771     1.007825032230
         H            0.447573273182     2.466487949806    -0.382235294229     1.007825032230
         H           -1.673076726818    -1.518985050194     0.086467705771     1.007825032230
         H           -2.944402726818    -0.575259050194    -0.274421294229     1.007825032230

  Basis Set: AUG-CC-PVTZ
    Blend: AUG-CC-PVTZ
  Basis Set: (AUG-CC-PVTZ AUX)
    Blend: AUG-CC-PVTZ-JKFIT
	 Reference Energy          =    -267.4310980498370327 [Eh]
	 Singles Energy            =      -0.0000000000000000 [Eh]
	 Same-Spin Energy          =      -0.2848259913681171 [Eh]
	 Opposite-Spin Energy      =      -0.9925139976652431 [Eh]
	 Correlation Energy        =      -1.2773399890333601 [Eh]
	 Total Energy              =    -268.7084380388703835 [Eh]

	 ================> DF-SCS-MP2 Energies <==================
	-----------------------------------------------------------
	 SCS Same-Spin Scale       =       0.3333333333333333 [-]
	 SCS Opposite-Spin Scale   =       1.2000000000000000 [-]
	 SCS Same-Spin Energy      =      -0.0949419971227057 [Eh]
	 SCS Opposite-Spin Energy  =      -1.1910167971982917 [Eh]
	 SCS Correlation Energy    =      -1.2859587943209974 [Eh]
	 SCS Total Energy          =    -268.7170568441580372 [Eh]
	-----------------------------------------------------------

  Dipole Moment: [D]
     X:    -0.2153      Y:     0.2379      Z:    -0.1700     Total:     0.3631

*** Psi4 exiting successfully. Buy a developer a beer!
