                               Psi4 1.4a3.dev225

  ==> Input File <==

--------------------------------------------------------------------------
#psi4
#
memory 32 gb

molecule  {
0 1
  N        0.9404650     1.6044440    -0.2603840
  N       -2.0577020    -0.5628020     0.2031370
  C        0.0733550     0.6450740     0.4388170
  C        0.8648870    -0.6349690     0.7149280
  C       -1.1975836     0.3987009    -0.4593392
  C        1.3403660    -1.3686840    -0.5373980
  H       -0.2919930     1.0197560     1.4097680
  H        0.2501680    -1.2934280     1.3390890
  H        1.7346290    -0.3675780     1.3302640
  H       -1.7030210     1.3537690    -0.5225160
  H       -0.8245660     0.1340620    -1.4434830
  H        1.9943120    -2.2039600    -0.2694910
  H        0.5025080    -1.7807990    -1.1082240
  H        1.8904320    -0.6904920    -1.1924240
  H        1.7396730     1.8267360     0.3337390
  H        0.4376740     2.4833400    -0.3885230
  H       -1.6829760    -1.5021330     0.0801800
  H       -2.9543020    -0.5584070    -0.2807090
units angstrom
no_reorient  #important for SAPT in psi4, default
symmetry c1  #important for SAPT in psi4, default
}

set PROPERTIES_ORIGIN ["COM"]
properties('MP2/aug-cc-pvtz', properties = ['dipole'])
--------------------------------------------------------------------------

    Molecular point group: c1
  Charge       = 0
  Multiplicity = 1
  Basis Set: AUG-CC-PVTZ
    Blend: AUG-CC-PVTZ
  Basis Set: (AUG-CC-PVTZ AUX)
    Blend: AUG-CC-PVTZ-JKFIT

    Orbital Energies [Eh]
    ---------------------

    Doubly Occupied:

       1A    -15.542495     2A    -15.537418     3A    -11.246203
       4A    -11.241141     5A    -11.213735     6A    -11.205331
       7A     -1.196336     8A     -1.162086     9A     -1.028060
      10A     -0.932215    11A     -0.863981    12A     -0.749916
      13A     -0.673474    14A     -0.660743    15A     -0.641452
      16A     -0.589402    17A     -0.584050    18A     -0.553812
      19A     -0.537071    20A     -0.509915    21A     -0.491456
      22A     -0.466798    23A     -0.450204    24A     -0.394750
      25A     -0.385810

  @DF-RHF Final Energy:  -267.44298643259032

   => Energetics <=

    Nuclear Repulsion Energy =            264.1925438727296296
    One-Electron Energy =                -885.5553533385974561
    Two-Electron Energy =                 353.9198230332775097
    Total Energy =                       -267.4429864325903168
  Basis Set: (AUG-CC-PVTZ AUX)
    Blend: AUG-CC-PVTZ-RI
    Molecular point group: c1

    Geometry (in Angstrom), charge = 0, multiplicity = 1:

       Center              X                  Y                   Z               Mass
    ------------   -----------------  -----------------  -----------------  -----------------
         N            0.958301226824     1.587688480967    -0.264521972951    14.003074004430
         N           -2.039865773176    -0.579557519033     0.198999027049    14.003074004430
         C            0.091191226824     0.628318480967     0.434679027049    12.000000000000
         C            0.882723226824    -0.651724519033     0.710790027049    12.000000000000
         C           -1.179747373176     0.381945380967    -0.463477172951    12.000000000000
         C            1.358202226824    -1.385439519033    -0.541535972951    12.000000000000
         H           -0.274156773176     1.003000480967     1.405630027049     1.007825032230
         H            0.268004226824    -1.310183519033     1.334951027049     1.007825032230
         H            1.752465226824    -0.384333519033     1.326126027049     1.007825032230
         H           -1.685184773176     1.337013480967    -0.526653972951     1.007825032230
         H           -0.806729773176     0.117306480967    -1.447620972951     1.007825032230
         H            2.012148226824    -2.220715519033    -0.273628972951     1.007825032230
         H            0.520344226824    -1.797554519033    -1.112361972951     1.007825032230
         H            1.908268226824    -0.707247519033    -1.196561972951     1.007825032230
         H            1.757509226824     1.809980480967     0.329601027049     1.007825032230
         H            0.455510226824     2.466584480967    -0.392660972951     1.007825032230
         H           -1.665139773176    -1.518888519033     0.076042027049     1.007825032230
         H           -2.936465773176    -0.575162519033    -0.284846972951     1.007825032230

  Basis Set: AUG-CC-PVTZ
    Blend: AUG-CC-PVTZ
  Basis Set: (AUG-CC-PVTZ AUX)
    Blend: AUG-CC-PVTZ-JKFIT
	 Reference Energy          =    -267.4429864325903168 [Eh]
	 Singles Energy            =      -0.0000000000000000 [Eh]
	 Same-Spin Energy          =      -0.2836129709293944 [Eh]
	 Opposite-Spin Energy      =      -0.9909473158671842 [Eh]
	 Correlation Energy        =      -1.2745602867965786 [Eh]
	 Total Energy              =    -268.7175467193869167 [Eh]

	 ================> DF-SCS-MP2 Energies <==================
	-----------------------------------------------------------
	 SCS Same-Spin Scale       =       0.3333333333333333 [-]
	 SCS Opposite-Spin Scale   =       1.2000000000000000 [-]
	 SCS Same-Spin Energy      =      -0.0945376569764648 [Eh]
	 SCS Opposite-Spin Energy  =      -1.1891367790406211 [Eh]
	 SCS Correlation Energy    =      -1.2836744360170860 [Eh]
	 SCS Total Energy          =    -268.7266608686073823 [Eh]
	-----------------------------------------------------------

  Dipole Moment: [D]
     X:    -0.2790      Y:     0.2247      Z:    -0.1058     Total:     0.3736

*** Psi4 exiting successfully. Buy a developer a beer!
