                               Psi4 1.4a3.dev225

  ==> Input File <==

--------------------------------------------------------------------------
#psi4
#
memory 32 gb

molecule  {
0 1
  N        1.0153834     1.5344686    -0.2559581
  N       -2.0577020    -0.5628020     0.2031370
  C        0.0733550     0.6450740     0.4388170
  C        0.8648870    -0.6349690     0.7149280
  C       -1.1572530     0.4065190    -0.4308380
  C        1.3403660    -1.3686840    -0.5373980
  H       -0.2919930     1.0197560     1.4097680
  H        0.2501680    -1.2934280     1.3390890
  H        1.7346290    -0.3675780     1.3302640
  H       -1.7030210     1.3537690    -0.5225160
  H       -0.8245660     0.1340620    -1.4434830
  H        1.9943120    -2.2039600    -0.2694910
  H        0.5025080    -1.7807990    -1.1082240
  H        1.8904320    -0.6904920    -1.1924240
  H        1.7396730     1.8267360     0.3337390
  H        0.4376740     2.4833400    -0.3885230
  H       -1.6829760    -1.5021330     0.0801800
  H       -2.9543020    -0.5584070    -0.2807090
units angstrom
no_reorient  #important for SAPT in psi4, default
symmetry c1  #important for SAPT in psi4, default
}

set PROPERTIES_ORIGIN ["COM"]
properties('MP2/aug-cc-pvtz', properties = ['dipole'])
--------------------------------------------------------------------------

    Molecular point group: c1
  Charge       = 0
  Multiplicity = 1
  Basis Set: AUG-CC-PVTZ
    Blend: AUG-CC-PVTZ
  Basis Set: (AUG-CC-PVTZ AUX)
    Blend: AUG-CC-PVTZ-JKFIT

    Orbital Energies [Eh]
    ---------------------

    Doubly Occupied:

       1A    -15.546481     2A    -15.543125     3A    -11.246318
       4A    -11.244521     5A    -11.212031     6A    -11.204016
       7A     -1.197395     8A     -1.160226     9A     -1.026127
      10A     -0.940356    11A     -0.862163    12A     -0.750209
      13A     -0.672512    14A     -0.660199    15A     -0.638279
      16A     -0.589043    17A     -0.581222    18A     -0.540908
      19A     -0.532907    20A     -0.517068    21A     -0.490912
      22A     -0.466474    23A     -0.447479    24A     -0.398885
      25A     -0.392762

  @DF-RHF Final Energy:  -267.43234521584168

   => Energetics <=

    Nuclear Repulsion Energy =            264.9108968380255646
    One-Electron Energy =                -886.9632480683759468
    Two-Electron Energy =                 354.6200060145087036
    Total Energy =                       -267.4323452158416785
  Basis Set: (AUG-CC-PVTZ AUX)
    Blend: AUG-CC-PVTZ-RI
    Molecular point group: c1

    Geometry (in Angstrom), charge = 0, multiplicity = 1:

       Center              X                  Y                   Z               Mass
    ------------   -----------------  -----------------  -----------------  -----------------
         N            1.015818329919     1.527770436449    -0.264681661865    14.003074004430
         N           -2.057267070081    -0.569500163551     0.194413438135    14.003074004430
         C            0.073789929919     0.638375836449     0.430093438135    12.000000000000
         C            0.865321929919    -0.641667163551     0.706204438135    12.000000000000
         C           -1.156818070081     0.399820836449    -0.439561561865    12.000000000000
         C            1.340800929919    -1.375382163551    -0.546121561865    12.000000000000
         H           -0.291558070081     1.013057836449     1.401044438135     1.007825032230
         H            0.250602929919    -1.300126163551     1.330365438135     1.007825032230
         H            1.735063929919    -0.374276163551     1.321540438135     1.007825032230
         H           -1.702586070081     1.347070836449    -0.531239561865     1.007825032230
         H           -0.824131070081     0.127363836449    -1.452206561865     1.007825032230
         H            1.994746929919    -2.210658163551    -0.278214561865     1.007825032230
         H            0.502942929919    -1.787497163551    -1.116947561865     1.007825032230
         H            1.890866929919    -0.697190163551    -1.201147561865     1.007825032230
         H            1.740107929919     1.820037836449     0.325015438135     1.007825032230
         H            0.438108929919     2.476641836449    -0.397246561865     1.007825032230
         H           -1.682541070081    -1.508831163551     0.071456438135     1.007825032230
         H           -2.953867070081    -0.565105163551    -0.289432561865     1.007825032230

  Basis Set: AUG-CC-PVTZ
    Blend: AUG-CC-PVTZ
  Basis Set: (AUG-CC-PVTZ AUX)
    Blend: AUG-CC-PVTZ-JKFIT
	 Reference Energy          =    -267.4323452158416785 [Eh]
	 Singles Energy            =      -0.0000000000000000 [Eh]
	 Same-Spin Energy          =      -0.2843430355666171 [Eh]
	 Opposite-Spin Energy      =      -0.9928238099820874 [Eh]
	 Correlation Energy        =      -1.2771668455487046 [Eh]
	 Total Energy              =    -268.7095120613903987 [Eh]

	 ================> DF-SCS-MP2 Energies <==================
	-----------------------------------------------------------
	 SCS Same-Spin Scale       =       0.3333333333333333 [-]
	 SCS Opposite-Spin Scale   =       1.2000000000000000 [-]
	 SCS Same-Spin Energy      =      -0.0947810118555390 [Eh]
	 SCS Opposite-Spin Energy  =      -1.1913885719785049 [Eh]
	 SCS Correlation Energy    =      -1.2861695838340439 [Eh]
	 SCS Total Energy          =    -268.7185147996757451 [Eh]
	-----------------------------------------------------------

  Dipole Moment: [D]
     X:    -0.3420      Y:     0.3422      Z:    -0.0853     Total:     0.4913

*** Psi4 exiting successfully. Buy a developer a beer!
