                               Psi4 1.4a3.dev225

  ==> Input File <==

--------------------------------------------------------------------------
#psi4
#
memory 32 gb

molecule  {
0 1
  N        0.9404650     1.6044440    -0.2603840
  N       -2.0577020    -0.5628020     0.2031370
  C        0.0615583     0.6320221     0.4483294
  C        0.8648870    -0.6349690     0.7149280
  C       -1.1572530     0.4065190    -0.4308380
  C        1.3403660    -1.3686840    -0.5373980
  H       -0.2919930     1.0197560     1.4097680
  H        0.2501680    -1.2934280     1.3390890
  H        1.7346290    -0.3675780     1.3302640
  H       -1.7030210     1.3537690    -0.5225160
  H       -0.8245660     0.1340620    -1.4434830
  H        1.9943120    -2.2039600    -0.2694910
  H        0.5025080    -1.7807990    -1.1082240
  H        1.8904320    -0.6904920    -1.1924240
  H        1.7396730     1.8267360     0.3337390
  H        0.4376740     2.4833400    -0.3885230
  H       -1.6829760    -1.5021330     0.0801800
  H       -2.9543020    -0.5584070    -0.2807090
units angstrom
no_reorient  #important for SAPT in psi4, default
symmetry c1  #important for SAPT in psi4, default
}

set PROPERTIES_ORIGIN ["COM"]
properties('MP2/aug-cc-pvtz', properties = ['dipole'])
--------------------------------------------------------------------------

    Molecular point group: c1
  Charge       = 0
  Multiplicity = 1
  Basis Set: AUG-CC-PVTZ
    Blend: AUG-CC-PVTZ
  Basis Set: (AUG-CC-PVTZ AUX)
    Blend: AUG-CC-PVTZ-JKFIT

    Orbital Energies [Eh]
    ---------------------

    Doubly Occupied:

       1A    -15.541549     2A    -15.537348     3A    -11.245357
       4A    -11.242653     5A    -11.214515     6A    -11.205897
       7A     -1.194760     8A     -1.156438     9A     -1.030046
      10A     -0.939973    11A     -0.864454    12A     -0.750144
      13A     -0.672504    14A     -0.660939    15A     -0.640783
      16A     -0.590344    17A     -0.580790    18A     -0.551932
      19A     -0.530784    20A     -0.513753    21A     -0.491656
      22A     -0.467355    23A     -0.455501    24A     -0.393875
      25A     -0.390237

  @DF-RHF Final Energy:  -267.44461278663658

   => Energetics <=

    Nuclear Repulsion Energy =            264.7004154381487524
    One-Electron Energy =                -886.5628793791898943
    Two-Electron Energy =                 354.4178511544045591
    Total Energy =                       -267.4446127866365828
  Basis Set: (AUG-CC-PVTZ AUX)
    Blend: AUG-CC-PVTZ-RI
    Molecular point group: c1

    Geometry (in Angstrom), charge = 0, multiplicity = 1:

       Center              X                  Y                   Z               Mass
    ------------   -----------------  -----------------  -----------------  -----------------
         N            0.954414659152     1.588401370474    -0.269699758983    14.003074004430
         N           -2.043752340848    -0.578844629526     0.193821241017    14.003074004430
         C            0.075507959152     0.615979470474     0.439013641017    12.000000000000
         C            0.878836659152    -0.651011629526     0.705612241017    12.000000000000
         C           -1.143303340848     0.390476370474    -0.440153758983    12.000000000000
         C            1.354315659152    -1.384726629526    -0.546713758983    12.000000000000
         H           -0.278043340848     1.003713370474     1.400452241017     1.007825032230
         H            0.264117659152    -1.309470629526     1.329773241017     1.007825032230
         H            1.748578659152    -0.383620629526     1.320948241017     1.007825032230
         H           -1.689071340848     1.337726370474    -0.531831758983     1.007825032230
         H           -0.810616340848     0.118019370474    -1.452798758983     1.007825032230
         H            2.008261659152    -2.220002629526    -0.278806758983     1.007825032230
         H            0.516457659152    -1.796841629526    -1.117539758983     1.007825032230
         H            1.904381659152    -0.706534629526    -1.201739758983     1.007825032230
         H            1.753622659152     1.810693370474     0.324423241017     1.007825032230
         H            0.451623659152     2.467297370474    -0.397838758983     1.007825032230
         H           -1.669026340848    -1.518175629526     0.070864241017     1.007825032230
         H           -2.940352340848    -0.574449629526    -0.290024758983     1.007825032230

  Basis Set: AUG-CC-PVTZ
    Blend: AUG-CC-PVTZ
  Basis Set: (AUG-CC-PVTZ AUX)
    Blend: AUG-CC-PVTZ-JKFIT
	 Reference Energy          =    -267.4446127866365828 [Eh]
	 Singles Energy            =      -0.0000000000000000 [Eh]
	 Same-Spin Energy          =      -0.2837018926080709 [Eh]
	 Opposite-Spin Energy      =      -0.9911055928750125 [Eh]
	 Correlation Energy        =      -1.2748074854830835 [Eh]
	 Total Energy              =    -268.7194202721196916 [Eh]

	 ================> DF-SCS-MP2 Energies <==================
	-----------------------------------------------------------
	 SCS Same-Spin Scale       =       0.3333333333333333 [-]
	 SCS Opposite-Spin Scale   =       1.2000000000000000 [-]
	 SCS Same-Spin Energy      =      -0.0945672975360236 [Eh]
	 SCS Opposite-Spin Energy  =      -1.1893267114500150 [Eh]
	 SCS Correlation Energy    =      -1.2838940089860387 [Eh]
	 SCS Total Energy          =    -268.7285067956225930 [Eh]
	-----------------------------------------------------------

  Dipole Moment: [D]
     X:    -0.2535      Y:     0.2208      Z:    -0.0859     Total:     0.3470

*** Psi4 exiting successfully. Buy a developer a beer!
