                               Psi4 1.4a3.dev225

  ==> Input File <==

--------------------------------------------------------------------------
#psi4
#
memory 32 gb

molecule  {
0 1
  N        0.9404650     1.6044440    -0.2603840
  N       -2.0577020    -0.5628020     0.2031370
  C        0.0733550     0.6450740     0.4388170
  C        0.9330906    -0.5759920     0.7721679
  C       -1.1572530     0.4065190    -0.4308380
  C        1.3403660    -1.3686840    -0.5373980
  H       -0.2919930     1.0197560     1.4097680
  H        0.2501680    -1.2934280     1.3390890
  H        1.7346290    -0.3675780     1.3302640
  H       -1.7030210     1.3537690    -0.5225160
  H       -0.8245660     0.1340620    -1.4434830
  H        1.9943120    -2.2039600    -0.2694910
  H        0.5025080    -1.7807990    -1.1082240
  H        1.8904320    -0.6904920    -1.1924240
  H        1.7396730     1.8267360     0.3337390
  H        0.4376740     2.4833400    -0.3885230
  H       -1.6829760    -1.5021330     0.0801800
  H       -2.9543020    -0.5584070    -0.2807090
units angstrom
no_reorient  #important for SAPT in psi4, default
symmetry c1  #important for SAPT in psi4, default
}

set PROPERTIES_ORIGIN ["COM"]
properties('MP2/aug-cc-pvtz', properties = ['dipole'])
--------------------------------------------------------------------------

    Molecular point group: c1
  Charge       = 0
  Multiplicity = 1
  Basis Set: AUG-CC-PVTZ
    Blend: AUG-CC-PVTZ
  Basis Set: (AUG-CC-PVTZ AUX)
    Blend: AUG-CC-PVTZ-JKFIT

    Orbital Energies [Eh]
    ---------------------

    Doubly Occupied:

       1A    -15.541790     2A    -15.537408     3A    -11.245683
       4A    -11.244499     5A    -11.212981     6A    -11.207172
       7A     -1.196746     8A     -1.159650     9A     -1.022459
      10A     -0.936394    11A     -0.867787    12A     -0.756806
      13A     -0.671441    14A     -0.659692    15A     -0.643290
      16A     -0.597961    17A     -0.577559    18A     -0.550301
      19A     -0.531399    20A     -0.518009    21A     -0.484488
      22A     -0.467623    23A     -0.453722    24A     -0.394609
      25A     -0.385562

  @DF-RHF Final Energy:  -267.43223597975509

   => Energetics <=

    Nuclear Repulsion Energy =            264.0882242949779197
    One-Electron Energy =                -885.3108664311345137
    Two-Electron Energy =                 353.7904061564014455
    Total Energy =                       -267.4322359797550916
  Basis Set: (AUG-CC-PVTZ AUX)
    Blend: AUG-CC-PVTZ-RI
    Molecular point group: c1

    Geometry (in Angstrom), charge = 0, multiplicity = 1:

       Center              X                  Y                   Z               Mass
    ------------   -----------------  -----------------  -----------------  -----------------
         N            0.943517915990     1.578590401970    -0.276200663471    14.003074004430
         N           -2.054649084010    -0.588655598030     0.187320336529    14.003074004430
         C            0.076407915990     0.619220401970     0.423000336529    12.000000000000
         C            0.936143515990    -0.601845598030     0.756351236529    12.000000000000
         C           -1.154200084010     0.380665401970    -0.446654663471    12.000000000000
         C            1.343418915990    -1.394537598030    -0.553214663471    12.000000000000
         H           -0.288940084010     0.993902401970     1.393951336529     1.007825032230
         H            0.253220915990    -1.319281598030     1.323272336529     1.007825032230
         H            1.737681915990    -0.393431598030     1.314447336529     1.007825032230
         H           -1.699968084010     1.327915401970    -0.538332663471     1.007825032230
         H           -0.821513084010     0.108208401970    -1.459299663471     1.007825032230
         H            1.997364915990    -2.229813598030    -0.285307663471     1.007825032230
         H            0.505560915990    -1.806652598030    -1.124040663471     1.007825032230
         H            1.893484915990    -0.716345598030    -1.208240663471     1.007825032230
         H            1.742725915990     1.800882401970     0.317922336529     1.007825032230
         H            0.440726915990     2.457486401970    -0.404339663471     1.007825032230
         H           -1.679923084010    -1.527986598030     0.064363336529     1.007825032230
         H           -2.951249084010    -0.584260598030    -0.296525663471     1.007825032230

  Basis Set: AUG-CC-PVTZ
    Blend: AUG-CC-PVTZ
  Basis Set: (AUG-CC-PVTZ AUX)
    Blend: AUG-CC-PVTZ-JKFIT
	 Reference Energy          =    -267.4322359797550916 [Eh]
	 Singles Energy            =      -0.0000000000000000 [Eh]
	 Same-Spin Energy          =      -0.2835033475583058 [Eh]
	 Opposite-Spin Energy      =      -0.9912517095959696 [Eh]
	 Correlation Energy        =      -1.2747550571542754 [Eh]
	 Total Energy              =    -268.7069910369093577 [Eh]

	 ================> DF-SCS-MP2 Energies <==================
	-----------------------------------------------------------
	 SCS Same-Spin Scale       =       0.3333333333333333 [-]
	 SCS Opposite-Spin Scale   =       1.2000000000000000 [-]
	 SCS Same-Spin Energy      =      -0.0945011158527686 [Eh]
	 SCS Opposite-Spin Energy  =      -1.1895020515151635 [Eh]
	 SCS Correlation Energy    =      -1.2840031673679322 [Eh]
	 SCS Total Energy          =    -268.7162391471230194 [Eh]
	-----------------------------------------------------------

  Dipole Moment: [D]
     X:    -0.2214      Y:     0.2918      Z:    -0.0950     Total:     0.3784

*** Psi4 exiting successfully. Buy a developer a beer!
