                               Psi4 1.4a3.dev225

  ==> Input File <==

--------------------------------------------------------------------------
#psi4
#
memory 32 gb

molecule  {
0 1
  N        0.9404650     1.6044440    -0.2603840
  N       -2.0577020    -0.5628020     0.2031370
  C        0.0733550     0.6450740     0.4388170
  C        0.8648870    -0.6349690     0.7149280
  C       -1.1169224     0.4143371    -0.4023368
  C        1.3403660    -1.3686840    -0.5373980
  H       -0.2919930     1.0197560     1.4097680
  H        0.2501680    -1.2934280     1.3390890
  H        1.7346290    -0.3675780     1.3302640
  H       -1.7030210     1.3537690    -0.5225160
  H       -0.8245660     0.1340620    -1.4434830
  H        1.9943120    -2.2039600    -0.2694910
  H        0.5025080    -1.7807990    -1.1082240
  H        1.8904320    -0.6904920    -1.1924240
  H        1.7396730     1.8267360     0.3337390
  H        0.4376740     2.4833400    -0.3885230
  H       -1.6829760    -1.5021330     0.0801800
  H       -2.9543020    -0.5584070    -0.2807090
units angstrom
no_reorient  #important for SAPT in psi4, default
symmetry c1  #important for SAPT in psi4, default
}

set PROPERTIES_ORIGIN ["COM"]
properties('MP2/aug-cc-pvtz', properties = ['dipole'])
--------------------------------------------------------------------------

    Molecular point group: c1
  Charge       = 0
  Multiplicity = 1
  Basis Set: AUG-CC-PVTZ
    Blend: AUG-CC-PVTZ
  Basis Set: (AUG-CC-PVTZ AUX)
    Blend: AUG-CC-PVTZ-JKFIT

    Orbital Energies [Eh]
    ---------------------

    Doubly Occupied:

       1A    -15.540802     2A    -15.539309     3A    -11.244843
       4A    -11.243981     5A    -11.215117     6A    -11.205886
       7A     -1.198751     8A     -1.155566     9A     -1.030983
      10A     -0.946074    11A     -0.862629    12A     -0.749790
      13A     -0.670143    14A     -0.664245    15A     -0.644834
      16A     -0.589973    17A     -0.576837    18A     -0.552896
      19A     -0.526371    20A     -0.519526    21A     -0.491966
      22A     -0.470818    23A     -0.453688    24A     -0.392845
      25A     -0.390083

  @DF-RHF Final Energy:  -267.44210872279120

   => Energetics <=

    Nuclear Repulsion Energy =            265.2767521608776065
    One-Electron Energy =                -887.6818150963123344
    Two-Electron Energy =                 354.9629542126434671
    Total Energy =                       -267.4421087227912039
  Basis Set: (AUG-CC-PVTZ AUX)
    Blend: AUG-CC-PVTZ-RI
    Molecular point group: c1

    Geometry (in Angstrom), charge = 0, multiplicity = 1:

       Center              X                  Y                   Z               Mass
    ------------   -----------------  -----------------  -----------------  -----------------
         N            0.947314463280     1.585558693261    -0.272286200241    14.003074004430
         N           -2.050852536720    -0.581687306739     0.191234799759    14.003074004430
         C            0.080204463280     0.626188693261     0.426914799759    12.000000000000
         C            0.871736463280    -0.653854306739     0.703025799759    12.000000000000
         C           -1.110072936720     0.395451793261    -0.414239000241    12.000000000000
         C            1.347215463280    -1.387569306739    -0.549300200241    12.000000000000
         H           -0.285143536720     1.000870693261     1.397865799759     1.007825032230
         H            0.257017463280    -1.312313306739     1.327186799759     1.007825032230
         H            1.741478463280    -0.386463306739     1.318361799759     1.007825032230
         H           -1.696171536720     1.334883693261    -0.534418200241     1.007825032230
         H           -0.817716536720     0.115176693261    -1.455385200241     1.007825032230
         H            2.001161463280    -2.222845306739    -0.281393200241     1.007825032230
         H            0.509357463280    -1.799684306739    -1.120126200241     1.007825032230
         H            1.897281463280    -0.709377306739    -1.204326200241     1.007825032230
         H            1.746522463280     1.807850693261     0.321836799759     1.007825032230
         H            0.444523463280     2.464454693261    -0.400425200241     1.007825032230
         H           -1.676126536720    -1.521018306739     0.068277799759     1.007825032230
         H           -2.947452536720    -0.577292306739    -0.292611200241     1.007825032230

  Basis Set: AUG-CC-PVTZ
    Blend: AUG-CC-PVTZ
  Basis Set: (AUG-CC-PVTZ AUX)
    Blend: AUG-CC-PVTZ-JKFIT
	 Reference Energy          =    -267.4421087227912039 [Eh]
	 Singles Energy            =      -0.0000000000000000 [Eh]
	 Same-Spin Energy          =      -0.2840288028726249 [Eh]
	 Opposite-Spin Energy      =      -0.9914257787186206 [Eh]
	 Correlation Energy        =      -1.2754545815912455 [Eh]
	 Total Energy              =    -268.7175633043824519 [Eh]

	 ================> DF-SCS-MP2 Energies <==================
	-----------------------------------------------------------
	 SCS Same-Spin Scale       =       0.3333333333333333 [-]
	 SCS Opposite-Spin Scale   =       1.2000000000000000 [-]
	 SCS Same-Spin Energy      =      -0.0946762676242083 [Eh]
	 SCS Opposite-Spin Energy  =      -1.1897109344623447 [Eh]
	 SCS Correlation Energy    =      -1.2843872020865530 [Eh]
	 SCS Total Energy          =    -268.7264959248777814 [Eh]
	-----------------------------------------------------------

  Dipole Moment: [D]
     X:    -0.1628      Y:     0.2875      Z:    -0.0988     Total:     0.3448

*** Psi4 exiting successfully. Buy a developer a beer!
