                               Psi4 1.4a3.dev225

  ==> Input File <==

--------------------------------------------------------------------------
#psi4
#
memory 32 gb

molecule  {
0 1
  N        0.9234665     1.6054782    -0.2795749
  N       -2.0577020    -0.5628020     0.2031370
  C        0.0733550     0.6450740     0.4388170
  C        0.8648870    -0.6349690     0.7149280
  C       -1.1572530     0.4065190    -0.4308380
  C        1.3403660    -1.3686840    -0.5373980
  H       -0.2919930     1.0197560     1.4097680
  H        0.2501680    -1.2934280     1.3390890
  H        1.7346290    -0.3675780     1.3302640
  H       -1.7030210     1.3537690    -0.5225160
  H       -0.8245660     0.1340620    -1.4434830
  H        1.9943120    -2.2039600    -0.2694910
  H        0.5025080    -1.7807990    -1.1082240
  H        1.8904320    -0.6904920    -1.1924240
  H        1.7396730     1.8267360     0.3337390
  H        0.4376740     2.4833400    -0.3885230
  H       -1.6829760    -1.5021330     0.0801800
  H       -2.9543020    -0.5584070    -0.2807090
units angstrom
no_reorient  #important for SAPT in psi4, default
symmetry c1  #important for SAPT in psi4, default
}

set PROPERTIES_ORIGIN ["COM"]
properties('MP2/aug-cc-pvtz', properties = ['dipole'])
--------------------------------------------------------------------------

    Molecular point group: c1
  Charge       = 0
  Multiplicity = 1
  Basis Set: AUG-CC-PVTZ
    Blend: AUG-CC-PVTZ
  Basis Set: (AUG-CC-PVTZ AUX)
    Blend: AUG-CC-PVTZ-JKFIT

    Orbital Energies [Eh]
    ---------------------

    Doubly Occupied:

       1A    -15.541065     2A    -15.540273     3A    -11.245470
       4A    -11.241838     5A    -11.214849     6A    -11.205785
       7A     -1.196750     8A     -1.158472     9A     -1.029581
      10A     -0.937912    11A     -0.863489    12A     -0.749795
      13A     -0.671434    14A     -0.664088    15A     -0.638111
      16A     -0.589555    17A     -0.579456    18A     -0.555454
      19A     -0.529645    20A     -0.513013    21A     -0.492409
      22A     -0.468212    23A     -0.453261    24A     -0.394110
      25A     -0.389912

  @DF-RHF Final Energy:  -267.44376986012691

   => Energetics <=

    Nuclear Repulsion Energy =            264.7378558625825349
    One-Electron Energy =                -886.6353733410392124
    Two-Electron Energy =                 354.4537476183297144
    Total Energy =                       -267.4437698601269062
  Basis Set: (AUG-CC-PVTZ AUX)
    Blend: AUG-CC-PVTZ-RI
    Molecular point group: c1

    Geometry (in Angstrom), charge = 0, multiplicity = 1:

       Center              X                  Y                   Z               Mass
    ------------   -----------------  -----------------  -----------------  -----------------
         N            0.938511173914     1.587493406056    -0.284544686423    14.003074004430
         N           -2.042657326086    -0.580786793944     0.198167213577    14.003074004430
         C            0.088399673914     0.627089206056     0.433847213577    12.000000000000
         C            0.879931673914    -0.652953793944     0.709958213577    12.000000000000
         C           -1.142208326086     0.388534206056    -0.435807786423    12.000000000000
         C            1.355410673914    -1.386668793944    -0.542367786423    12.000000000000
         H           -0.276948326086     1.001771206056     1.404798213577     1.007825032230
         H            0.265212673914    -1.311412793944     1.334119213577     1.007825032230
         H            1.749673673914    -0.385562793944     1.325294213577     1.007825032230
         H           -1.687976326086     1.335784206056    -0.527485786423     1.007825032230
         H           -0.809521326086     0.116077206056    -1.448452786423     1.007825032230
         H            2.009356673914    -2.221944793944    -0.274460786423     1.007825032230
         H            0.517552673914    -1.798783793944    -1.113193786423     1.007825032230
         H            1.905476673914    -0.708476793944    -1.197393786423     1.007825032230
         H            1.754717673914     1.808751206056     0.328769213577     1.007825032230
         H            0.452718673914     2.465355206056    -0.393492786423     1.007825032230
         H           -1.667931326086    -1.520117793944     0.075210213577     1.007825032230
         H           -2.939257326086    -0.576391793944    -0.285678786423     1.007825032230

  Basis Set: AUG-CC-PVTZ
    Blend: AUG-CC-PVTZ
  Basis Set: (AUG-CC-PVTZ AUX)
    Blend: AUG-CC-PVTZ-JKFIT
	 Reference Energy          =    -267.4437698601269062 [Eh]
	 Singles Energy            =      -0.0000000000000000 [Eh]
	 Same-Spin Energy          =      -0.2838226427820018 [Eh]
	 Opposite-Spin Energy      =      -0.9913365986001496 [Eh]
	 Correlation Energy        =      -1.2751592413821513 [Eh]
	 Total Energy              =    -268.7189291015090475 [Eh]

	 ================> DF-SCS-MP2 Energies <==================
	-----------------------------------------------------------
	 SCS Same-Spin Scale       =       0.3333333333333333 [-]
	 SCS Opposite-Spin Scale   =       1.2000000000000000 [-]
	 SCS Same-Spin Energy      =      -0.0946075475940006 [Eh]
	 SCS Opposite-Spin Energy  =      -1.1896039183201794 [Eh]
	 SCS Correlation Energy    =      -1.2842114659141799 [Eh]
	 SCS Total Energy          =    -268.7279813260410606 [Eh]
	-----------------------------------------------------------

  Dipole Moment: [D]
     X:    -0.2013      Y:     0.2561      Z:    -0.0744     Total:     0.3341

*** Psi4 exiting successfully. Buy a developer a beer!
