                               Psi4 1.4a3.dev225

  ==> Input File <==

--------------------------------------------------------------------------
#psi4
#
memory 32 gb

molecule  {
0 1
  N        0.9404650     1.6044440    -0.2603840
  N       -2.0577020    -0.5628020     0.2031370
  C        0.0733550     0.6450740     0.4388170
  C        0.8648870    -0.6349690     0.7149280
  C       -1.1572530     0.4065190    -0.4308380
  C        1.3403660    -1.3686840    -0.5373980
  H       -0.2919930     1.0197560     1.4097680
  H        0.2501680    -1.2934280     1.3390890
  H        1.7346290    -0.3675780     1.3302640
  H       -1.7191207     1.3485250    -0.4089394
  H       -0.8245660     0.1340620    -1.4434830
  H        1.9943120    -2.2039600    -0.2694910
  H        0.5025080    -1.7807990    -1.1082240
  H        1.8904320    -0.6904920    -1.1924240
  H        1.7396730     1.8267360     0.3337390
  H        0.4376740     2.4833400    -0.3885230
  H       -1.6829760    -1.5021330     0.0801800
  H       -2.9543020    -0.5584070    -0.2807090
units angstrom
no_reorient  #important for SAPT in psi4, default
symmetry c1  #important for SAPT in psi4, default
}

set PROPERTIES_ORIGIN ["COM"]
properties('MP2/aug-cc-pvtz', properties = ['dipole'])
--------------------------------------------------------------------------

    Molecular point group: c1
  Charge       = 0
  Multiplicity = 1
  Basis Set: AUG-CC-PVTZ
    Blend: AUG-CC-PVTZ
  Basis Set: (AUG-CC-PVTZ AUX)
    Blend: AUG-CC-PVTZ-JKFIT

    Orbital Energies [Eh]
    ---------------------

    Doubly Occupied:

       1A    -15.540833     2A    -15.538409     3A    -11.244991
       4A    -11.242528     5A    -11.213952     6A    -11.205842
       7A     -1.197221     8A     -1.159289     9A     -1.029360
      10A     -0.939035    11A     -0.862532    12A     -0.748349
      13A     -0.674209    14A     -0.662680    15A     -0.642654
      16A     -0.589625    17A     -0.578431    18A     -0.554521
      19A     -0.531923    20A     -0.515162    21A     -0.491855
      22A     -0.468315    23A     -0.450638    24A     -0.394432
      25A     -0.389215

  @DF-RHF Final Energy:  -267.44358899023763

   => Energetics <=

    Nuclear Repulsion Energy =            264.7944559235360771
    One-Electron Energy =                -886.7440856330438237
    Two-Electron Energy =                 354.5060407192700609
    Total Energy =                       -267.4435889902376289
  Basis Set: (AUG-CC-PVTZ AUX)
    Blend: AUG-CC-PVTZ-RI
    Molecular point group: c1

    Geometry (in Angstrom), charge = 0, multiplicity = 1:

       Center              X                  Y                   Z               Mass
    ------------   -----------------  -----------------  -----------------  -----------------
         N            0.952992018398     1.586683576122    -0.269703351950    14.003074004430
         N           -2.045174981602    -0.580562423878     0.193817648050    14.003074004430
         C            0.085882018398     0.627313576122     0.429497648050    12.000000000000
         C            0.877414018398    -0.652729423878     0.705608648050    12.000000000000
         C           -1.144725981602     0.388758576122    -0.440157351950    12.000000000000
         C            1.352893018398    -1.386444423878    -0.546717351950    12.000000000000
         H           -0.279465981602     1.001995576122     1.400448648050     1.007825032230
         H            0.262695018398    -1.311188423878     1.329769648050     1.007825032230
         H            1.747156018398    -0.385338423878     1.320944648050     1.007825032230
         H           -1.706593681602     1.330764576122    -0.418258751950     1.007825032230
         H           -0.812038981602     0.116301576122    -1.452802351950     1.007825032230
         H            2.006839018398    -2.221720423878    -0.278810351950     1.007825032230
         H            0.515035018398    -1.798559423878    -1.117543351950     1.007825032230
         H            1.902959018398    -0.708252423878    -1.201743351950     1.007825032230
         H            1.752200018398     1.808975576122     0.324419648050     1.007825032230
         H            0.450201018398     2.465579576122    -0.397842351950     1.007825032230
         H           -1.670448981602    -1.519893423878     0.070860648050     1.007825032230
         H           -2.941774981602    -0.576167423878    -0.290028351950     1.007825032230

  Basis Set: AUG-CC-PVTZ
    Blend: AUG-CC-PVTZ
  Basis Set: (AUG-CC-PVTZ AUX)
    Blend: AUG-CC-PVTZ-JKFIT
	 Reference Energy          =    -267.4435889902376289 [Eh]
	 Singles Energy            =      -0.0000000000000000 [Eh]
	 Same-Spin Energy          =      -0.2838009623067203 [Eh]
	 Opposite-Spin Energy      =      -0.9912273958152167 [Eh]
	 Correlation Energy        =      -1.2750283581219370 [Eh]
	 Total Energy              =    -268.7186173483595439 [Eh]

	 ================> DF-SCS-MP2 Energies <==================
	-----------------------------------------------------------
	 SCS Same-Spin Scale       =       0.3333333333333333 [-]
	 SCS Opposite-Spin Scale   =       1.2000000000000000 [-]
	 SCS Same-Spin Energy      =      -0.0946003207689068 [Eh]
	 SCS Opposite-Spin Energy  =      -1.1894728749782599 [Eh]
	 SCS Correlation Energy    =      -1.2840731957471667 [Eh]
	 SCS Total Energy          =    -268.7276621859847978 [Eh]
	-----------------------------------------------------------

  Dipole Moment: [D]
     X:    -0.2140      Y:     0.2560      Z:    -0.0786     Total:     0.3429

*** Psi4 exiting successfully. Buy a developer a beer!
