                               Psi4 1.4a3.dev225

  ==> Input File <==

--------------------------------------------------------------------------
#psi4
#
memory 32 gb

molecule  {
0 1
  N        0.9404650     1.6044440    -0.2603840
  N       -2.0577020    -0.5628020     0.2031370
  C        0.0663169     0.6706282     0.4413589
  C        0.8648870    -0.6349690     0.7149280
  C       -1.1572530     0.4065190    -0.4308380
  C        1.3403660    -1.3686840    -0.5373980
  H       -0.2919930     1.0197560     1.4097680
  H        0.2501680    -1.2934280     1.3390890
  H        1.7346290    -0.3675780     1.3302640
  H       -1.7030210     1.3537690    -0.5225160
  H       -0.8245660     0.1340620    -1.4434830
  H        1.9943120    -2.2039600    -0.2694910
  H        0.5025080    -1.7807990    -1.1082240
  H        1.8904320    -0.6904920    -1.1924240
  H        1.7396730     1.8267360     0.3337390
  H        0.4376740     2.4833400    -0.3885230
  H       -1.6829760    -1.5021330     0.0801800
  H       -2.9543020    -0.5584070    -0.2807090
units angstrom
no_reorient  #important for SAPT in psi4, default
symmetry c1  #important for SAPT in psi4, default
}

set PROPERTIES_ORIGIN ["COM"]
properties('MP2/aug-cc-pvtz', properties = ['dipole'])
--------------------------------------------------------------------------

    Molecular point group: c1
  Charge       = 0
  Multiplicity = 1
  Basis Set: AUG-CC-PVTZ
    Blend: AUG-CC-PVTZ
  Basis Set: (AUG-CC-PVTZ AUX)
    Blend: AUG-CC-PVTZ-JKFIT

    Orbital Energies [Eh]
    ---------------------

    Doubly Occupied:

       1A    -15.541592     2A    -15.539289     3A    -11.244726
       4A    -11.242202     5A    -11.214387     6A    -11.205223
       7A     -1.198325     8A     -1.160659     9A     -1.026397
      10A     -0.938945    11A     -0.860738    12A     -0.751428
      13A     -0.671302    14A     -0.662584    15A     -0.645274
      16A     -0.587886    17A     -0.580121    18A     -0.554072
      19A     -0.531796    20A     -0.514832    21A     -0.492382
      22A     -0.469007    23A     -0.446015    24A     -0.394752
      25A     -0.390535

  @DF-RHF Final Energy:  -267.44446360878300

   => Energetics <=

    Nuclear Repulsion Energy =            264.5554009717583313
    One-Electron Energy =                -886.2707931946300732
    Two-Electron Energy =                 354.2709286140887457
    Total Energy =                       -267.4444636087829963
  Basis Set: (AUG-CC-PVTZ AUX)
    Blend: AUG-CC-PVTZ-RI
    Molecular point group: c1

    Geometry (in Angstrom), charge = 0, multiplicity = 1:

       Center              X                  Y                   Z               Mass
    ------------   -----------------  -----------------  -----------------  -----------------
         N            0.953766496058     1.583142880740    -0.268750315691    14.003074004430
         N           -2.044400503942    -0.584103119260     0.194770684309    14.003074004430
         C            0.079618396058     0.649327080740     0.432992584309    12.000000000000
         C            0.878188496058    -0.656270119260     0.706561684309    12.000000000000
         C           -1.143951503942     0.385217880740    -0.439204315691    12.000000000000
         C            1.353667496058    -1.389985119260    -0.545764315691    12.000000000000
         H           -0.278691503942     0.998454880740     1.401401684309     1.007825032230
         H            0.263469496058    -1.314729119260     1.330722684309     1.007825032230
         H            1.747930496058    -0.388879119260     1.321897684309     1.007825032230
         H           -1.689719503942     1.332467880740    -0.530882315691     1.007825032230
         H           -0.811264503942     0.112760880740    -1.451849315691     1.007825032230
         H            2.007613496058    -2.225261119260    -0.277857315691     1.007825032230
         H            0.515809496058    -1.802100119260    -1.116590315691     1.007825032230
         H            1.903733496058    -0.711793119260    -1.200790315691     1.007825032230
         H            1.752974496058     1.805434880740     0.325372684309     1.007825032230
         H            0.450975496058     2.462038880740    -0.396889315691     1.007825032230
         H           -1.669674503942    -1.523434119260     0.071813684309     1.007825032230
         H           -2.941000503942    -0.579708119260    -0.289075315691     1.007825032230

  Basis Set: AUG-CC-PVTZ
    Blend: AUG-CC-PVTZ
  Basis Set: (AUG-CC-PVTZ AUX)
    Blend: AUG-CC-PVTZ-JKFIT
	 Reference Energy          =    -267.4444636087829963 [Eh]
	 Singles Energy            =      -0.0000000000000000 [Eh]
	 Same-Spin Energy          =      -0.2836709465429599 [Eh]
	 Opposite-Spin Energy      =      -0.9909505028080531 [Eh]
	 Correlation Energy        =      -1.2746214493510131 [Eh]
	 Total Energy              =    -268.7190850581339987 [Eh]

	 ================> DF-SCS-MP2 Energies <==================
	-----------------------------------------------------------
	 SCS Same-Spin Scale       =       0.3333333333333333 [-]
	 SCS Opposite-Spin Scale   =       1.2000000000000000 [-]
	 SCS Same-Spin Energy      =      -0.0945569821809866 [Eh]
	 SCS Opposite-Spin Energy  =      -1.1891406033696637 [Eh]
	 SCS Correlation Energy    =      -1.2836975855506503 [Eh]
	 SCS Total Energy          =    -268.7281611943336657 [Eh]
	-----------------------------------------------------------

  Dipole Moment: [D]
     X:    -0.2148      Y:     0.3037      Z:    -0.1094     Total:     0.3878

*** Psi4 exiting successfully. Buy a developer a beer!
