                               Psi4 1.4a3.dev225

  ==> Input File <==

--------------------------------------------------------------------------
#psi4
#
memory 32 gb

molecule  {
0 1
  N        0.9404650     1.6044440    -0.2603840
  N       -2.0577020    -0.5628020     0.2031370
  C        0.0733550     0.6450740     0.4388170
  C        0.8648870    -0.6349690     0.7149280
  C       -1.1572530     0.4065190    -0.4308380
  C        1.3403660    -1.3686840    -0.5373980
  H       -0.2919930     1.0197560     1.4097680
  H        0.2501680    -1.2934280     1.3390890
  H        1.7346290    -0.3675780     1.3302640
  H       -1.7030210     1.3537690    -0.5225160
  H       -0.8245660     0.1340620    -1.4434830
  H        1.9943120    -2.2039600    -0.2694910
  H        0.5025080    -1.7807990    -1.1082240
  H        1.8904320    -0.6904920    -1.1924240
  H        1.7396730     1.8267360     0.3337390
  H        0.4376740     2.4833400    -0.3885230
  H       -1.7713684    -1.5240822     0.0247159
  H       -2.9543020    -0.5584070    -0.2807090
units angstrom
no_reorient  #important for SAPT in psi4, default
symmetry c1  #important for SAPT in psi4, default
}

set PROPERTIES_ORIGIN ["COM"]
properties('MP2/aug-cc-pvtz', properties = ['dipole'])
--------------------------------------------------------------------------

    Molecular point group: c1
  Charge       = 0
  Multiplicity = 1
  Basis Set: AUG-CC-PVTZ
    Blend: AUG-CC-PVTZ
  Basis Set: (AUG-CC-PVTZ AUX)
    Blend: AUG-CC-PVTZ-JKFIT

    Orbital Energies [Eh]
    ---------------------

    Doubly Occupied:

       1A    -15.542365     2A    -15.538184     3A    -11.245143
       4A    -11.243552     5A    -11.213288     6A    -11.204837
       7A     -1.196954     8A     -1.160105     9A     -1.028774
      10A     -0.940072    11A     -0.863281    12A     -0.750103
      13A     -0.666854    14A     -0.660815    15A     -0.643821
      16A     -0.586046    17A     -0.582981    18A     -0.553097
      19A     -0.531557    20A     -0.513407    21A     -0.491007
      22A     -0.467528    23A     -0.452540    24A     -0.396658
      25A     -0.388939

  @DF-RHF Final Energy:  -267.44394988460346

   => Energetics <=

    Nuclear Repulsion Energy =            264.5719429862045331
    One-Electron Energy =                -886.3079741141146997
    Two-Electron Energy =                 354.2920812433066544
    Total Energy =                       -267.4439498846034553
  Basis Set: (AUG-CC-PVTZ AUX)
    Blend: AUG-CC-PVTZ-RI
    Molecular point group: c1

    Geometry (in Angstrom), charge = 0, multiplicity = 1:

       Center              X                  Y                   Z               Mass
    ------------   -----------------  -----------------  -----------------  -----------------
         N            0.953819014455     1.586874676116    -0.267769602173    14.003074004430
         N           -2.044347985545    -0.580371323884     0.195751397827    14.003074004430
         C            0.086709014455     0.627504676116     0.431431397827    12.000000000000
         C            0.878241014455    -0.652538323884     0.707542397827    12.000000000000
         C           -1.143898985545     0.388949676116    -0.438223602173    12.000000000000
         C            1.353720014455    -1.386253323884    -0.544783602173    12.000000000000
         H           -0.278638985545     1.002186676116     1.402382397827     1.007825032230
         H            0.263522014455    -1.310997323884     1.331703397827     1.007825032230
         H            1.747983014455    -0.385147323884     1.322878397827     1.007825032230
         H           -1.689666985545     1.336199676116    -0.529901602173     1.007825032230
         H           -0.811211985545     0.116492676116    -1.450868602173     1.007825032230
         H            2.007666014455    -2.221529323884    -0.276876602173     1.007825032230
         H            0.515862014455    -1.798368323884    -1.115609602173     1.007825032230
         H            1.903786014455    -0.708061323884    -1.199809602173     1.007825032230
         H            1.753027014455     1.809166676116     0.326353397827     1.007825032230
         H            0.451028014455     2.465770676116    -0.395908602173     1.007825032230
         H           -1.758014385545    -1.541651523884     0.017330297827     1.007825032230
         H           -2.940947985545    -0.575976323884    -0.288094602173     1.007825032230

  Basis Set: AUG-CC-PVTZ
    Blend: AUG-CC-PVTZ
  Basis Set: (AUG-CC-PVTZ AUX)
    Blend: AUG-CC-PVTZ-JKFIT
	 Reference Energy          =    -267.4439498846034553 [Eh]
	 Singles Energy            =      -0.0000000000000000 [Eh]
	 Same-Spin Energy          =      -0.2836798010708925 [Eh]
	 Opposite-Spin Energy      =      -0.9910274058049502 [Eh]
	 Correlation Energy        =      -1.2747072068758427 [Eh]
	 Total Energy              =    -268.7186570914793151 [Eh]

	 ================> DF-SCS-MP2 Energies <==================
	-----------------------------------------------------------
	 SCS Same-Spin Scale       =       0.3333333333333333 [-]
	 SCS Opposite-Spin Scale   =       1.2000000000000000 [-]
	 SCS Same-Spin Energy      =      -0.0945599336902975 [Eh]
	 SCS Opposite-Spin Energy  =      -1.1892328869659401 [Eh]
	 SCS Correlation Energy    =      -1.2837928206562377 [Eh]
	 SCS Total Energy          =    -268.7277427052596863 [Eh]
	-----------------------------------------------------------

  Dipole Moment: [D]
     X:    -0.2978      Y:     0.2514      Z:    -0.1643     Total:     0.4229

*** Psi4 exiting successfully. Buy a developer a beer!
