                               Psi4 1.4a3.dev225

  ==> Input File <==

--------------------------------------------------------------------------
#psi4
#
memory 32 gb

molecule  {
0 1
  N        0.9404650     1.6044440    -0.2603840
  N       -2.0577020    -0.5628020     0.2031370
  C        0.0733550     0.6450740     0.4388170
  C        0.8648870    -0.6349690     0.7149280
  C       -1.1878207     0.4230485    -0.3904868
  C        1.3403660    -1.3686840    -0.5373980
  H       -0.2919930     1.0197560     1.4097680
  H        0.2501680    -1.2934280     1.3390890
  H        1.7346290    -0.3675780     1.3302640
  H       -1.7030210     1.3537690    -0.5225160
  H       -0.8245660     0.1340620    -1.4434830
  H        1.9943120    -2.2039600    -0.2694910
  H        0.5025080    -1.7807990    -1.1082240
  H        1.8904320    -0.6904920    -1.1924240
  H        1.7396730     1.8267360     0.3337390
  H        0.4376740     2.4833400    -0.3885230
  H       -1.6829760    -1.5021330     0.0801800
  H       -2.9543020    -0.5584070    -0.2807090
units angstrom
no_reorient  #important for SAPT in psi4, default
symmetry c1  #important for SAPT in psi4, default
}

set PROPERTIES_ORIGIN ["COM"]
properties('MP2/aug-cc-pvtz', properties = ['dipole'])
--------------------------------------------------------------------------

    Molecular point group: c1
  Charge       = 0
  Multiplicity = 1
  Basis Set: AUG-CC-PVTZ
    Blend: AUG-CC-PVTZ
  Basis Set: (AUG-CC-PVTZ AUX)
    Blend: AUG-CC-PVTZ-JKFIT

    Orbital Energies [Eh]
    ---------------------

    Doubly Occupied:

       1A    -15.541724     2A    -15.538741     3A    -11.245444
       4A    -11.243927     5A    -11.214730     6A    -11.205098
       7A     -1.199583     8A     -1.163071     9A     -1.029197
      10A     -0.938952    11A     -0.862358    12A     -0.750126
      13A     -0.674017    14A     -0.660091    15A     -0.645861
      16A     -0.589993    17A     -0.581697    18A     -0.551022
      19A     -0.535845    20A     -0.516003    21A     -0.491389
      22A     -0.468068    23A     -0.456064    24A     -0.391777
      25A     -0.382198

  @DF-RHF Final Energy:  -267.44235571585887

   => Energetics <=

    Nuclear Repulsion Energy =            264.7481133076069568
    One-Electron Energy =                -886.6269897822018038
    Two-Electron Energy =                 354.4365207587359237
    Total Energy =                       -267.4423557158588665
  Basis Set: (AUG-CC-PVTZ AUX)
    Blend: AUG-CC-PVTZ-RI
    Molecular point group: c1

    Geometry (in Angstrom), charge = 0, multiplicity = 1:

       Center              X                  Y                   Z               Mass
    ------------   -----------------  -----------------  -----------------  -----------------
         N            0.956971434138     1.584372124106    -0.273900274269    14.003074004430
         N           -2.041195565862    -0.582873875894     0.189620725731    14.003074004430
         C            0.089861434138     0.625002124106     0.425300725731    12.000000000000
         C            0.881393434138    -0.655040875894     0.701411725731    12.000000000000
         C           -1.171314265862     0.402976624106    -0.404003074269    12.000000000000
         C            1.356872434138    -1.388755875894    -0.550914274269    12.000000000000
         H           -0.275486565862     0.999684124106     1.396251725731     1.007825032230
         H            0.266674434138    -1.313499875894     1.325572725731     1.007825032230
         H            1.751135434138    -0.387649875894     1.316747725731     1.007825032230
         H           -1.686514565862     1.333697124106    -0.536032274269     1.007825032230
         H           -0.808059565862     0.113990124106    -1.456999274269     1.007825032230
         H            2.010818434138    -2.224031875894    -0.283007274269     1.007825032230
         H            0.519014434138    -1.800870875894    -1.121740274269     1.007825032230
         H            1.906938434138    -0.710563875894    -1.205940274269     1.007825032230
         H            1.756179434138     1.806664124106     0.320222725731     1.007825032230
         H            0.454180434138     2.463268124106    -0.402039274269     1.007825032230
         H           -1.666469565862    -1.522204875894     0.066663725731     1.007825032230
         H           -2.937795565862    -0.578478875894    -0.294225274269     1.007825032230

  Basis Set: AUG-CC-PVTZ
    Blend: AUG-CC-PVTZ
  Basis Set: (AUG-CC-PVTZ AUX)
    Blend: AUG-CC-PVTZ-JKFIT
	 Reference Energy          =    -267.4423557158588665 [Eh]
	 Singles Energy            =      -0.0000000000000000 [Eh]
	 Same-Spin Energy          =      -0.2837804997163534 [Eh]
	 Opposite-Spin Energy      =      -0.9908447706645891 [Eh]
	 Correlation Energy        =      -1.2746252703809424 [Eh]
	 Total Energy              =    -268.7169809862398324 [Eh]

	 ================> DF-SCS-MP2 Energies <==================
	-----------------------------------------------------------
	 SCS Same-Spin Scale       =       0.3333333333333333 [-]
	 SCS Opposite-Spin Scale   =       1.2000000000000000 [-]
	 SCS Same-Spin Energy      =      -0.0945934999054511 [Eh]
	 SCS Opposite-Spin Energy  =      -1.1890137247975068 [Eh]
	 SCS Correlation Energy    =      -1.2836072247029580 [Eh]
	 SCS Total Energy          =    -268.7259629405618284 [Eh]
	-----------------------------------------------------------

  Dipole Moment: [D]
     X:    -0.2766      Y:     0.2619      Z:    -0.0485     Total:     0.3840

*** Psi4 exiting successfully. Buy a developer a beer!
