                               Psi4 1.4a3.dev225

  ==> Input File <==

--------------------------------------------------------------------------
#psi4
#
memory 32 gb

molecule  {
0 1
  N        0.9404650     1.6044440    -0.2603840
  N       -2.0577020    -0.5628020     0.2031370
  C        0.0863046     0.5937555     0.4329394
  C        0.8648870    -0.6349690     0.7149280
  C       -1.1572530     0.4065190    -0.4308380
  C        1.3403660    -1.3686840    -0.5373980
  H       -0.2919930     1.0197560     1.4097680
  H        0.2501680    -1.2934280     1.3390890
  H        1.7346290    -0.3675780     1.3302640
  H       -1.7030210     1.3537690    -0.5225160
  H       -0.8245660     0.1340620    -1.4434830
  H        1.9943120    -2.2039600    -0.2694910
  H        0.5025080    -1.7807990    -1.1082240
  H        1.8904320    -0.6904920    -1.1924240
  H        1.7396730     1.8267360     0.3337390
  H        0.4376740     2.4833400    -0.3885230
  H       -1.6829760    -1.5021330     0.0801800
  H       -2.9543020    -0.5584070    -0.2807090
units angstrom
no_reorient  #important for SAPT in psi4, default
symmetry c1  #important for SAPT in psi4, default
}

set PROPERTIES_ORIGIN ["COM"]
properties('MP2/aug-cc-pvtz', properties = ['dipole'])
--------------------------------------------------------------------------

    Molecular point group: c1
  Charge       = 0
  Multiplicity = 1
  Basis Set: AUG-CC-PVTZ
    Blend: AUG-CC-PVTZ
  Basis Set: (AUG-CC-PVTZ AUX)
    Blend: AUG-CC-PVTZ-JKFIT

    Orbital Energies [Eh]
    ---------------------

    Doubly Occupied:

       1A    -15.541607     2A    -15.536390     3A    -11.247353
       4A    -11.243421     5A    -11.214096     6A    -11.206380
       7A     -1.194793     8A     -1.155882     9A     -1.035865
      10A     -0.938369    11A     -0.868591    12A     -0.747232
      13A     -0.672645    14A     -0.661705    15A     -0.638887
      16A     -0.593975    17A     -0.580511    18A     -0.552179
      19A     -0.530160    20A     -0.514647    21A     -0.489967
      22A     -0.468354    23A     -0.464570    24A     -0.392802
      25A     -0.383771

  @DF-RHF Final Energy:  -267.44179060114664

   => Energetics <=

    Nuclear Repulsion Energy =            265.0763734295967424
    One-Electron Energy =                -887.2880252762947748
    Two-Electron Energy =                 354.7698612455513967
    Total Energy =                       -267.4417906011466357
  Basis Set: (AUG-CC-PVTZ AUX)
    Blend: AUG-CC-PVTZ-RI
    Molecular point group: c1

    Geometry (in Angstrom), charge = 0, multiplicity = 1:

       Center              X                  Y                   Z               Mass
    ------------   -----------------  -----------------  -----------------  -----------------
         N            0.951043995851     1.593613617327    -0.267603505878    14.003074004430
         N           -2.047123004149    -0.573632382673     0.195917494122    14.003074004430
         C            0.096883595851     0.582925117327     0.425719894122    12.000000000000
         C            0.875465995851    -0.645799382673     0.707708494122    12.000000000000
         C           -1.146674004149     0.395688617327    -0.438057505878    12.000000000000
         C            1.350944995851    -1.379514382673    -0.544617505878    12.000000000000
         H           -0.281414004149     1.008925617327     1.402548494122     1.007825032230
         H            0.260746995851    -1.304258382673     1.331869494122     1.007825032230
         H            1.745207995851    -0.378408382673     1.323044494122     1.007825032230
         H           -1.692442004149     1.342938617327    -0.529735505878     1.007825032230
         H           -0.813987004149     0.123231617327    -1.450702505878     1.007825032230
         H            2.004890995851    -2.214790382673    -0.276710505878     1.007825032230
         H            0.513086995851    -1.791629382673    -1.115443505878     1.007825032230
         H            1.901010995851    -0.701322382673    -1.199643505878     1.007825032230
         H            1.750251995851     1.815905617327     0.326519494122     1.007825032230
         H            0.448252995851     2.472509617327    -0.395742505878     1.007825032230
         H           -1.672397004149    -1.512963382673     0.072960494122     1.007825032230
         H           -2.943723004149    -0.569237382673    -0.287928505878     1.007825032230

  Basis Set: AUG-CC-PVTZ
    Blend: AUG-CC-PVTZ
  Basis Set: (AUG-CC-PVTZ AUX)
    Blend: AUG-CC-PVTZ-JKFIT
	 Reference Energy          =    -267.4417906011466357 [Eh]
	 Singles Energy            =      -0.0000000000000000 [Eh]
	 Same-Spin Energy          =      -0.2839538513363238 [Eh]
	 Opposite-Spin Energy      =      -0.9913847728990418 [Eh]
	 Correlation Energy        =      -1.2753386242353657 [Eh]
	 Total Energy              =    -268.7171292253819956 [Eh]

	 ================> DF-SCS-MP2 Energies <==================
	-----------------------------------------------------------
	 SCS Same-Spin Scale       =       0.3333333333333333 [-]
	 SCS Opposite-Spin Scale   =       1.2000000000000000 [-]
	 SCS Same-Spin Energy      =      -0.0946512837787746 [Eh]
	 SCS Opposite-Spin Energy  =      -1.1896617274788501 [Eh]
	 SCS Correlation Energy    =      -1.2843130112576246 [Eh]
	 SCS Total Energy          =    -268.7261036124042448 [Eh]
	-----------------------------------------------------------

  Dipole Moment: [D]
     X:    -0.2421      Y:     0.1591      Z:    -0.0950     Total:     0.3048

*** Psi4 exiting successfully. Buy a developer a beer!
