                               Psi4 1.4a3.dev225

  ==> Input File <==

--------------------------------------------------------------------------
#psi4
#
memory 32 gb

molecule  {
0 1
  N        0.9404650     1.6044440    -0.2603840
  N       -2.0577020    -0.5628020     0.2031370
  C        0.1323386     0.7103335     0.3912551
  C        0.8648870    -0.6349690     0.7149280
  C       -1.1572530     0.4065190    -0.4308380
  C        1.3403660    -1.3686840    -0.5373980
  H       -0.2919930     1.0197560     1.4097680
  H        0.2501680    -1.2934280     1.3390890
  H        1.7346290    -0.3675780     1.3302640
  H       -1.7030210     1.3537690    -0.5225160
  H       -0.8245660     0.1340620    -1.4434830
  H        1.9943120    -2.2039600    -0.2694910
  H        0.5025080    -1.7807990    -1.1082240
  H        1.8904320    -0.6904920    -1.1924240
  H        1.7396730     1.8267360     0.3337390
  H        0.4376740     2.4833400    -0.3885230
  H       -1.6829760    -1.5021330     0.0801800
  H       -2.9543020    -0.5584070    -0.2807090
units angstrom
no_reorient  #important for SAPT in psi4, default
symmetry c1  #important for SAPT in psi4, default
}

set PROPERTIES_ORIGIN ["COM"]
properties('MP2/aug-cc-pvtz', properties = ['dipole'])
--------------------------------------------------------------------------

    Molecular point group: c1
  Charge       = 0
  Multiplicity = 1
  Basis Set: AUG-CC-PVTZ
    Blend: AUG-CC-PVTZ
  Basis Set: (AUG-CC-PVTZ AUX)
    Blend: AUG-CC-PVTZ-JKFIT

    Orbital Energies [Eh]
    ---------------------

    Doubly Occupied:

       1A    -15.542466     2A    -15.541861     3A    -11.247378
       4A    -11.242200     5A    -11.214100     6A    -11.204251
       7A     -1.219158     8A     -1.166845     9A     -1.025916
      10A     -0.931849    11A     -0.857589    12A     -0.751980
      13A     -0.673319    14A     -0.665526    15A     -0.654888
      16A     -0.587305    17A     -0.578870    18A     -0.565756
      19A     -0.530988    20A     -0.516977    21A     -0.493236
      22A     -0.472903    23A     -0.438933    24A     -0.392905
      25A     -0.376667

  @DF-RHF Final Energy:  -267.43429617083785

   => Energetics <=

    Nuclear Repulsion Energy =            264.9008855356254344
    One-Electron Energy =                -886.8826286825882335
    Two-Electron Energy =                 354.5474469761249452
    Total Energy =                       -267.4342961708378539
  Basis Set: (AUG-CC-PVTZ AUX)
    Blend: AUG-CC-PVTZ-RI
    Molecular point group: c1

    Geometry (in Angstrom), charge = 0, multiplicity = 1:

       Center              X                  Y                   Z               Mass
    ------------   -----------------  -----------------  -----------------  -----------------
         N            0.944773760930     1.577734670317    -0.261925738282    14.003074004430
         N           -2.053393239070    -0.589511329683     0.201595261718    14.003074004430
         C            0.136647360930     0.683624170317     0.389713361718    12.000000000000
         C            0.869195760930    -0.661678329683     0.713386261718    12.000000000000
         C           -1.152944239070     0.379809670317    -0.432379738282    12.000000000000
         C            1.344674760930    -1.395393329683    -0.538939738282    12.000000000000
         H           -0.287684239070     0.993046670317     1.408226261718     1.007825032230
         H            0.254476760930    -1.320137329683     1.337547261718     1.007825032230
         H            1.738937760930    -0.394287329683     1.328722261718     1.007825032230
         H           -1.698712239070     1.327059670317    -0.524057738282     1.007825032230
         H           -0.820257239070     0.107352670317    -1.445024738282     1.007825032230
         H            1.998620760930    -2.230669329683    -0.271032738282     1.007825032230
         H            0.506816760930    -1.807508329683    -1.109765738282     1.007825032230
         H            1.894740760930    -0.717201329683    -1.193965738282     1.007825032230
         H            1.743981760930     1.800026670317     0.332197261718     1.007825032230
         H            0.441982760930     2.456630670317    -0.390064738282     1.007825032230
         H           -1.678667239070    -1.528842329683     0.078638261718     1.007825032230
         H           -2.949993239070    -0.585116329683    -0.282250738282     1.007825032230

  Basis Set: AUG-CC-PVTZ
    Blend: AUG-CC-PVTZ
  Basis Set: (AUG-CC-PVTZ AUX)
    Blend: AUG-CC-PVTZ-JKFIT
	 Reference Energy          =    -267.4342961708378539 [Eh]
	 Singles Energy            =      -0.0000000000000000 [Eh]
	 Same-Spin Energy          =      -0.2842216941463243 [Eh]
	 Opposite-Spin Energy      =      -0.9912339789464316 [Eh]
	 Correlation Energy        =      -1.2754556730927560 [Eh]
	 Total Energy              =    -268.7097518439306327 [Eh]

	 ================> DF-SCS-MP2 Energies <==================
	-----------------------------------------------------------
	 SCS Same-Spin Scale       =       0.3333333333333333 [-]
	 SCS Opposite-Spin Scale   =       1.2000000000000000 [-]
	 SCS Same-Spin Energy      =      -0.0947405647154414 [Eh]
	 SCS Opposite-Spin Energy  =      -1.1894807747357179 [Eh]
	 SCS Correlation Energy    =      -1.2842213394511592 [Eh]
	 SCS Total Energy          =    -268.7185175102890184 [Eh]
	-----------------------------------------------------------

  Dipole Moment: [D]
     X:    -0.0614      Y:     0.4387      Z:    -0.2187     Total:     0.4940

*** Psi4 exiting successfully. Buy a developer a beer!
