                               Psi4 1.4a3.dev225

  ==> Input File <==

--------------------------------------------------------------------------
#psi4
#
memory 32 gb

molecule  {
0 1
  N        0.9404650     1.6044440    -0.2603840
  N       -2.0577020    -0.5628020     0.2031370
  C        0.0733550     0.6450740     0.4388170
  C        0.8648870    -0.6349690     0.7149280
  C       -1.1572530     0.4065190    -0.4308380
  C        1.3403660    -1.3686840    -0.5373980
  H       -0.2919930     1.0197560     1.4097680
  H        0.2501680    -1.2934280     1.3390890
  H        1.7346290    -0.3675780     1.3302640
  H       -1.7030210     1.3537690    -0.5225160
  H       -0.8245660     0.1340620    -1.4434830
  H        1.9943120    -2.2039600    -0.2694910
  H        0.5025080    -1.7807990    -1.1082240
  H        1.8904320    -0.6904920    -1.1924240
  H        1.7396730     1.8267360     0.3337390
  H        0.4376740     2.4833400    -0.3885230
  H       -1.7120309    -1.5106071     0.0615119
  H       -2.9543020    -0.5584070    -0.2807090
units angstrom
no_reorient  #important for SAPT in psi4, default
symmetry c1  #important for SAPT in psi4, default
}

set PROPERTIES_ORIGIN ["COM"]
properties('MP2/aug-cc-pvtz', properties = ['dipole'])
--------------------------------------------------------------------------

    Molecular point group: c1
  Charge       = 0
  Multiplicity = 1
  Basis Set: AUG-CC-PVTZ
    Blend: AUG-CC-PVTZ
  Basis Set: (AUG-CC-PVTZ AUX)
    Blend: AUG-CC-PVTZ-JKFIT

    Orbital Energies [Eh]
    ---------------------

    Doubly Occupied:

       1A    -15.541855     2A    -15.538263     3A    -11.245303
       4A    -11.242855     5A    -11.213993     6A    -11.205343
       7A     -1.196872     8A     -1.159468     9A     -1.029172
      10A     -0.939140    11A     -0.863271    12A     -0.750014
      13A     -0.669636    14A     -0.662095    15A     -0.643289
      16A     -0.588534    17A     -0.581188    18A     -0.553273
      19A     -0.531222    20A     -0.514452    21A     -0.491504
      22A     -0.468026    23A     -0.452928    24A     -0.394853
      25A     -0.388836

  @DF-RHF Final Energy:  -267.44495691518830

   => Energetics <=

    Nuclear Repulsion Energy =            264.6736654754312212
    One-Electron Energy =                -886.5064787208642656
    Two-Electron Energy =                 354.3878563302447446
    Total Energy =                       -267.4449569151882997
  Basis Set: (AUG-CC-PVTZ AUX)
    Blend: AUG-CC-PVTZ-RI
    Molecular point group: c1

    Geometry (in Angstrom), charge = 0, multiplicity = 1:

       Center              X                  Y                   Z               Mass
    ------------   -----------------  -----------------  -----------------  -----------------
         N            0.953140220074     1.586720527017    -0.268190531907    14.003074004430
         N           -2.045026779926    -0.580525472983     0.195330468093    14.003074004430
         C            0.086030220074     0.627350527017     0.431010468093    12.000000000000
         C            0.877562220074    -0.652692472983     0.707121468093    12.000000000000
         C           -1.144577779926     0.388795527017    -0.438644531907    12.000000000000
         C            1.353041220074    -1.386407472983    -0.545204531907    12.000000000000
         H           -0.279317779926     1.002032527017     1.401961468093     1.007825032230
         H            0.262843220074    -1.311151472983     1.331282468093     1.007825032230
         H            1.747304220074    -0.385301472983     1.322457468093     1.007825032230
         H           -1.690345779926     1.336045527017    -0.530322531907     1.007825032230
         H           -0.811890779926     0.116338527017    -1.451289531907     1.007825032230
         H            2.006987220074    -2.221683472983    -0.277297531907     1.007825032230
         H            0.515183220074    -1.798522472983    -1.116030531907     1.007825032230
         H            1.903107220074    -0.708215472983    -1.200230531907     1.007825032230
         H            1.752348220074     1.809012527017     0.325932468093     1.007825032230
         H            0.450349220074     2.465616527017    -0.396329531907     1.007825032230
         H           -1.699355679926    -1.528330572983     0.053705368093     1.007825032230
         H           -2.941626779926    -0.576130472983    -0.288515531907     1.007825032230

  Basis Set: AUG-CC-PVTZ
    Blend: AUG-CC-PVTZ
  Basis Set: (AUG-CC-PVTZ AUX)
    Blend: AUG-CC-PVTZ-JKFIT
	 Reference Energy          =    -267.4449569151882997 [Eh]
	 Singles Energy            =      -0.0000000000000000 [Eh]
	 Same-Spin Energy          =      -0.2836828623051619 [Eh]
	 Opposite-Spin Energy      =      -0.9909788499553042 [Eh]
	 Correlation Energy        =      -1.2746617122604660 [Eh]
	 Total Energy              =    -268.7196186274487673 [Eh]

	 ================> DF-SCS-MP2 Energies <==================
	-----------------------------------------------------------
	 SCS Same-Spin Scale       =       0.3333333333333333 [-]
	 SCS Opposite-Spin Scale   =       1.2000000000000000 [-]
	 SCS Same-Spin Energy      =      -0.0945609541017206 [Eh]
	 SCS Opposite-Spin Energy  =      -1.1891746199463649 [Eh]
	 SCS Correlation Energy    =      -1.2837355740480856 [Eh]
	 SCS Total Energy          =    -268.7286924892363800 [Eh]
	-----------------------------------------------------------

  Dipole Moment: [D]
     X:    -0.2482      Y:     0.2542      Z:    -0.1243     Total:     0.3764

*** Psi4 exiting successfully. Buy a developer a beer!
