                               Psi4 1.4a3.dev225

  ==> Input File <==

--------------------------------------------------------------------------
#psi4
#
memory 32 gb

molecule  {
0 1
  N        0.9404650     1.6044440    -0.2603840
  N       -2.0577020    -0.5628020     0.2031370
  C        0.0733550     0.6450740     0.4388170
  C        0.8648870    -0.6349690     0.7149280
  C       -1.2168519     0.4398485    -0.3491253
  C        1.3403660    -1.3686840    -0.5373980
  H       -0.2919930     1.0197560     1.4097680
  H        0.2501680    -1.2934280     1.3390890
  H        1.7346290    -0.3675780     1.3302640
  H       -1.7030210     1.3537690    -0.5225160
  H       -0.8245660     0.1340620    -1.4434830
  H        1.9943120    -2.2039600    -0.2694910
  H        0.5025080    -1.7807990    -1.1082240
  H        1.8904320    -0.6904920    -1.1924240
  H        1.7396730     1.8267360     0.3337390
  H        0.4376740     2.4833400    -0.3885230
  H       -1.6829760    -1.5021330     0.0801800
  H       -2.9543020    -0.5584070    -0.2807090
units angstrom
no_reorient  #important for SAPT in psi4, default
symmetry c1  #important for SAPT in psi4, default
}

set PROPERTIES_ORIGIN ["COM"]
properties('MP2/aug-cc-pvtz', properties = ['dipole'])
--------------------------------------------------------------------------

    Molecular point group: c1
  Charge       = 0
  Multiplicity = 1
  Basis Set: AUG-CC-PVTZ
    Blend: AUG-CC-PVTZ
  Basis Set: (AUG-CC-PVTZ AUX)
    Blend: AUG-CC-PVTZ-JKFIT

    Orbital Energies [Eh]
    ---------------------

    Doubly Occupied:

       1A    -15.542295     2A    -15.539252     3A    -11.246529
       4A    -11.245731     5A    -11.215218     6A    -11.204621
       7A     -1.203087     8A     -1.166356     9A     -1.029122
      10A     -0.939719    11A     -0.862075    12A     -0.751469
      13A     -0.676673    14A     -0.657660    15A     -0.649353
      16A     -0.590749    17A     -0.586413    18A     -0.551143
      19A     -0.535050    20A     -0.516894    21A     -0.491131
      22A     -0.467880    23A     -0.458605    24A     -0.390931
      25A     -0.372886

  @DF-RHF Final Energy:  -267.43426433645141

   => Energetics <=

    Nuclear Repulsion Energy =            264.7643575131436364
    One-Electron Energy =                -886.6155601798047883
    Two-Electron Energy =                 354.4169383302097458
    Total Energy =                       -267.4342643364514061
  Basis Set: (AUG-CC-PVTZ AUX)
    Blend: AUG-CC-PVTZ-RI
    Molecular point group: c1

    Geometry (in Angstrom), charge = 0, multiplicity = 1:

       Center              X                  Y                   Z               Mass
    ------------   -----------------  -----------------  -----------------  -----------------
         N            0.960925738436     1.582083816623    -0.279534073672    14.003074004430
         N           -2.037241261564    -0.585162183377     0.183986926328    14.003074004430
         C            0.093815738436     0.622713816623     0.419666926328    12.000000000000
         C            0.885347738436    -0.657329183377     0.695777926328    12.000000000000
         C           -1.196391161564     0.417488316623    -0.368275373672    12.000000000000
         C            1.360826738436    -1.391044183377    -0.556548073672    12.000000000000
         H           -0.271532261564     0.997395816623     1.390617926328     1.007825032230
         H            0.270628738436    -1.315788183377     1.319938926328     1.007825032230
         H            1.755089738436    -0.389938183377     1.311113926328     1.007825032230
         H           -1.682560261564     1.331408816623    -0.541666073672     1.007825032230
         H           -0.804105261564     0.111701816623    -1.462633073672     1.007825032230
         H            2.014772738436    -2.226320183377    -0.288641073672     1.007825032230
         H            0.522968738436    -1.803159183377    -1.127374073672     1.007825032230
         H            1.910892738436    -0.712852183377    -1.211574073672     1.007825032230
         H            1.760133738436     1.804375816623     0.314588926328     1.007825032230
         H            0.458134738436     2.460979816623    -0.407673073672     1.007825032230
         H           -1.662515261564    -1.524493183377     0.061029926328     1.007825032230
         H           -2.933841261564    -0.580767183377    -0.299859073672     1.007825032230

  Basis Set: AUG-CC-PVTZ
    Blend: AUG-CC-PVTZ
  Basis Set: (AUG-CC-PVTZ AUX)
    Blend: AUG-CC-PVTZ-JKFIT
	 Reference Energy          =    -267.4342643364514061 [Eh]
	 Singles Energy            =      -0.0000000000000000 [Eh]
	 Same-Spin Energy          =      -0.2839709782458535 [Eh]
	 Opposite-Spin Energy      =      -0.9910166763495739 [Eh]
	 Correlation Energy        =      -1.2749876545954275 [Eh]
	 Total Energy              =    -268.7092519910468127 [Eh]

	 ================> DF-SCS-MP2 Energies <==================
	-----------------------------------------------------------
	 SCS Same-Spin Scale       =       0.3333333333333333 [-]
	 SCS Opposite-Spin Scale   =       1.2000000000000000 [-]
	 SCS Same-Spin Energy      =      -0.0946569927486178 [Eh]
	 SCS Opposite-Spin Energy  =      -1.1892200116194886 [Eh]
	 SCS Correlation Energy    =      -1.2838770043681065 [Eh]
	 SCS Total Energy          =    -268.7181413408194999 [Eh]
	-----------------------------------------------------------

  Dipole Moment: [D]
     X:    -0.3317      Y:     0.2629      Z:     0.0262     Total:     0.4240

*** Psi4 exiting successfully. Buy a developer a beer!
