                               Psi4 1.4a3.dev225

  ==> Input File <==

--------------------------------------------------------------------------
#psi4
#
memory 32 gb

molecule  {
0 1
  N        0.9404650     1.6044440    -0.2603840
  N       -2.0577020    -0.5628020     0.2031370
  C        0.0733550     0.6450740     0.4388170
  C        0.8697372    -0.6373329     0.6887734
  C       -1.1572530     0.4065190    -0.4308380
  C        1.3403660    -1.3686840    -0.5373980
  H       -0.2919930     1.0197560     1.4097680
  H        0.2501680    -1.2934280     1.3390890
  H        1.7346290    -0.3675780     1.3302640
  H       -1.7030210     1.3537690    -0.5225160
  H       -0.8245660     0.1340620    -1.4434830
  H        1.9943120    -2.2039600    -0.2694910
  H        0.5025080    -1.7807990    -1.1082240
  H        1.8904320    -0.6904920    -1.1924240
  H        1.7396730     1.8267360     0.3337390
  H        0.4376740     2.4833400    -0.3885230
  H       -1.6829760    -1.5021330     0.0801800
  H       -2.9543020    -0.5584070    -0.2807090
units angstrom
no_reorient  #important for SAPT in psi4, default
symmetry c1  #important for SAPT in psi4, default
}

set PROPERTIES_ORIGIN ["COM"]
properties('MP2/aug-cc-pvtz', properties = ['dipole'])
--------------------------------------------------------------------------

    Molecular point group: c1
  Charge       = 0
  Multiplicity = 1
  Basis Set: AUG-CC-PVTZ
    Blend: AUG-CC-PVTZ
  Basis Set: (AUG-CC-PVTZ AUX)
    Blend: AUG-CC-PVTZ-JKFIT

    Orbital Energies [Eh]
    ---------------------

    Doubly Occupied:

       1A    -15.541500     2A    -15.538133     3A    -11.245639
       4A    -11.242421     5A    -11.215544     6A    -11.205014
       7A     -1.197099     8A     -1.159213     9A     -1.032493
      10A     -0.939940    11A     -0.862124    12A     -0.748378
      13A     -0.671694    14A     -0.662522    15A     -0.642981
      16A     -0.589590    17A     -0.581509    18A     -0.553575
      19A     -0.532060    20A     -0.514728    21A     -0.496427
      22A     -0.463534    23A     -0.450909    24A     -0.393943
      25A     -0.389593

  @DF-RHF Final Energy:  -267.44392625461393

   => Energetics <=

    Nuclear Repulsion Energy =            264.9491670075462366
    One-Electron Energy =                -887.0450611440937791
    Two-Electron Energy =                 354.6519678819335581
    Total Energy =                       -267.4439262546139275
  Basis Set: (AUG-CC-PVTZ AUX)
    Blend: AUG-CC-PVTZ-RI
    Molecular point group: c1

    Geometry (in Angstrom), charge = 0, multiplicity = 1:

       Center              X                  Y                   Z               Mass
    ------------   -----------------  -----------------  -----------------  -----------------
         N            0.952147205233     1.586945571046    -0.264841600471    14.003074004430
         N           -2.046019794767    -0.580300428954     0.198679399529    14.003074004430
         C            0.085037205233     0.627575571046     0.434359399529    12.000000000000
         C            0.881419405233    -0.654831328954     0.684315799529    12.000000000000
         C           -1.145570794767     0.389020571046    -0.435295600471    12.000000000000
         C            1.352048205233    -1.386182428954    -0.541855600471    12.000000000000
         H           -0.280310794767     1.002257571046     1.405310399529     1.007825032230
         H            0.261850205233    -1.310926428954     1.334631399529     1.007825032230
         H            1.746311205233    -0.385076428954     1.325806399529     1.007825032230
         H           -1.691338794767     1.336270571046    -0.526973600471     1.007825032230
         H           -0.812883794767     0.116563571046    -1.447940600471     1.007825032230
         H            2.005994205233    -2.221458428954    -0.273948600471     1.007825032230
         H            0.514190205233    -1.798297428954    -1.112681600471     1.007825032230
         H            1.902114205233    -0.707990428954    -1.196881600471     1.007825032230
         H            1.751355205233     1.809237571046     0.329281399529     1.007825032230
         H            0.449356205233     2.465841571046    -0.392980600471     1.007825032230
         H           -1.671293794767    -1.519631428954     0.075722399529     1.007825032230
         H           -2.942619794767    -0.575905428954    -0.285166600471     1.007825032230

  Basis Set: AUG-CC-PVTZ
    Blend: AUG-CC-PVTZ
  Basis Set: (AUG-CC-PVTZ AUX)
    Blend: AUG-CC-PVTZ-JKFIT
	 Reference Energy          =    -267.4439262546139275 [Eh]
	 Singles Energy            =      -0.0000000000000000 [Eh]
	 Same-Spin Energy          =      -0.2839148798476712 [Eh]
	 Opposite-Spin Energy      =      -0.9912251023134699 [Eh]
	 Correlation Energy        =      -1.2751399821611411 [Eh]
	 Total Energy              =    -268.7190662367750633 [Eh]

	 ================> DF-SCS-MP2 Energies <==================
	-----------------------------------------------------------
	 SCS Same-Spin Scale       =       0.3333333333333333 [-]
	 SCS Opposite-Spin Scale   =       1.2000000000000000 [-]
	 SCS Same-Spin Energy      =      -0.0946382932825570 [Eh]
	 SCS Opposite-Spin Energy  =      -1.1894701227761639 [Eh]
	 SCS Correlation Energy    =      -1.2841084160587211 [Eh]
	 SCS Total Energy          =    -268.7280346706726277 [Eh]
	-----------------------------------------------------------

  Dipole Moment: [D]
     X:    -0.2211      Y:     0.2508      Z:    -0.1181     Total:     0.3546

*** Psi4 exiting successfully. Buy a developer a beer!
