                               Psi4 1.4a3.dev225

  ==> Input File <==

--------------------------------------------------------------------------
#psi4
#
memory 32 gb

molecule  {
0 1
  N        0.9404650     1.6044440    -0.2603840
  N       -2.0577020    -0.5628020     0.2031370
  C        0.0733550     0.6450740     0.4388170
  C        0.8396835    -0.6407827     0.7084813
  C       -1.1572530     0.4065190    -0.4308380
  C        1.3403660    -1.3686840    -0.5373980
  H       -0.2919930     1.0197560     1.4097680
  H        0.2501680    -1.2934280     1.3390890
  H        1.7346290    -0.3675780     1.3302640
  H       -1.7030210     1.3537690    -0.5225160
  H       -0.8245660     0.1340620    -1.4434830
  H        1.9943120    -2.2039600    -0.2694910
  H        0.5025080    -1.7807990    -1.1082240
  H        1.8904320    -0.6904920    -1.1924240
  H        1.7396730     1.8267360     0.3337390
  H        0.4376740     2.4833400    -0.3885230
  H       -1.6829760    -1.5021330     0.0801800
  H       -2.9543020    -0.5584070    -0.2807090
units angstrom
no_reorient  #important for SAPT in psi4, default
symmetry c1  #important for SAPT in psi4, default
}

set PROPERTIES_ORIGIN ["COM"]
properties('MP2/aug-cc-pvtz', properties = ['dipole'])
--------------------------------------------------------------------------

    Molecular point group: c1
  Charge       = 0
  Multiplicity = 1
  Basis Set: AUG-CC-PVTZ
    Blend: AUG-CC-PVTZ
  Basis Set: (AUG-CC-PVTZ AUX)
    Blend: AUG-CC-PVTZ-JKFIT

    Orbital Energies [Eh]
    ---------------------

    Doubly Occupied:

       1A    -15.541659     2A    -15.538718     3A    -11.245247
       4A    -11.242204     5A    -11.215062     6A    -11.205794
       7A     -1.197370     8A     -1.159313     9A     -1.030272
      10A     -0.939074    11A     -0.863507    12A     -0.749427
      13A     -0.671766    14A     -0.663550    15A     -0.643226
      16A     -0.587593    17A     -0.580911    18A     -0.553955
      19A     -0.530926    20A     -0.514716    21A     -0.494426
      22A     -0.467242    23A     -0.451659    24A     -0.394041
      25A     -0.389135

  @DF-RHF Final Energy:  -267.44414223356068

   => Energetics <=

    Nuclear Repulsion Energy =            264.9136931051546640
    One-Electron Energy =                -886.9740851555319523
    Two-Electron Energy =                 354.6162498168165484
    Total Energy =                       -267.4441422335606831
  Basis Set: (AUG-CC-PVTZ AUX)
    Blend: AUG-CC-PVTZ-RI
    Molecular point group: c1

    Geometry (in Angstrom), charge = 0, multiplicity = 1:

       Center              X                  Y                   Z               Mass
    ------------   -----------------  -----------------  -----------------  -----------------
         N            0.956240783007     1.587415464091    -0.267525989462    14.003074004430
         N           -2.041926216993    -0.579830535909     0.195995010538    14.003074004430
         C            0.089130783007     0.628045464091     0.431675010538    12.000000000000
         C            0.855459283007    -0.657811235909     0.701339310538    12.000000000000
         C           -1.141477216993     0.389490464091    -0.437979989462    12.000000000000
         C            1.356141783007    -1.385712535909    -0.544539989462    12.000000000000
         H           -0.276217216993     1.002727464091     1.402626010538     1.007825032230
         H            0.265943783007    -1.310456535909     1.331947010538     1.007825032230
         H            1.750404783007    -0.384606535909     1.323122010538     1.007825032230
         H           -1.687245216993     1.336740464091    -0.529657989462     1.007825032230
         H           -0.808790216993     0.117033464091    -1.450624989462     1.007825032230
         H            2.010087783007    -2.220988535909    -0.276632989462     1.007825032230
         H            0.518283783007    -1.797827535909    -1.115365989462     1.007825032230
         H            1.906207783007    -0.707520535909    -1.199565989462     1.007825032230
         H            1.755448783007     1.809707464091     0.326597010538     1.007825032230
         H            0.453449783007     2.466311464091    -0.395664989462     1.007825032230
         H           -1.667200216993    -1.519161535909     0.073038010538     1.007825032230
         H           -2.938526216993    -0.575435535909    -0.287850989462     1.007825032230

  Basis Set: AUG-CC-PVTZ
    Blend: AUG-CC-PVTZ
  Basis Set: (AUG-CC-PVTZ AUX)
    Blend: AUG-CC-PVTZ-JKFIT
	 Reference Energy          =    -267.4441422335606831 [Eh]
	 Singles Energy            =      -0.0000000000000000 [Eh]
	 Same-Spin Energy          =      -0.2838056684384784 [Eh]
	 Opposite-Spin Energy      =      -0.9911129994528202 [Eh]
	 Correlation Energy        =      -1.2749186678912987 [Eh]
	 Total Energy              =    -268.7190609014519964 [Eh]

	 ================> DF-SCS-MP2 Energies <==================
	-----------------------------------------------------------
	 SCS Same-Spin Scale       =       0.3333333333333333 [-]
	 SCS Opposite-Spin Scale   =       1.2000000000000000 [-]
	 SCS Same-Spin Energy      =      -0.0946018894794928 [Eh]
	 SCS Opposite-Spin Energy  =      -1.1893355993433841 [Eh]
	 SCS Correlation Energy    =      -1.2839374888228769 [Eh]
	 SCS Total Energy          =    -268.7280797223835407 [Eh]
	-----------------------------------------------------------

  Dipole Moment: [D]
     X:    -0.2330      Y:     0.2518      Z:    -0.1075     Total:     0.3595

*** Psi4 exiting successfully. Buy a developer a beer!
