                               Psi4 1.4a3.dev225

  ==> Input File <==

--------------------------------------------------------------------------
#psi4
#
memory 32 gb

molecule  {
0 1
  N        0.9404650     1.6044440    -0.2603840
  N       -2.0577020    -0.5628020     0.2031370
  C        0.0733550     0.6450740     0.4388170
  C        0.8648870    -0.6349690     0.7149280
  C       -1.1572530     0.4065190    -0.4308380
  C        1.3403660    -1.3686840    -0.5373980
  H       -0.2919930     1.0197560     1.4097680
  H        0.2501680    -1.2934280     1.3390890
  H        1.7346290    -0.3675780     1.3302640
  H       -1.6997506     1.3536339    -0.5413813
  H       -0.8245660     0.1340620    -1.4434830
  H        1.9943120    -2.2039600    -0.2694910
  H        0.5025080    -1.7807990    -1.1082240
  H        1.8904320    -0.6904920    -1.1924240
  H        1.7396730     1.8267360     0.3337390
  H        0.4376740     2.4833400    -0.3885230
  H       -1.6829760    -1.5021330     0.0801800
  H       -2.9543020    -0.5584070    -0.2807090
units angstrom
no_reorient  #important for SAPT in psi4, default
symmetry c1  #important for SAPT in psi4, default
}

set PROPERTIES_ORIGIN ["COM"]
properties('MP2/aug-cc-pvtz', properties = ['dipole'])
--------------------------------------------------------------------------

    Molecular point group: c1
  Charge       = 0
  Multiplicity = 1
  Basis Set: AUG-CC-PVTZ
    Blend: AUG-CC-PVTZ
  Basis Set: (AUG-CC-PVTZ AUX)
    Blend: AUG-CC-PVTZ-JKFIT

    Orbital Energies [Eh]
    ---------------------

    Doubly Occupied:

       1A    -15.541702     2A    -15.538302     3A    -11.245487
       4A    -11.242491     5A    -11.214430     6A    -11.205551
       7A     -1.196821     8A     -1.159183     9A     -1.029394
      10A     -0.938658    11A     -0.863415    12A     -0.750269
      13A     -0.671243    14A     -0.662275    15A     -0.643099
      16A     -0.589669    17A     -0.580665    18A     -0.553221
      19A     -0.530644    20A     -0.514798    21A     -0.491743
      22A     -0.468282    23A     -0.453412    24A     -0.393916
      25A     -0.388641

  @DF-RHF Final Energy:  -267.44503032830562

   => Energetics <=

    Nuclear Repulsion Energy =            264.7170474335639483
    One-Electron Energy =                -886.5895365045541894
    Two-Electron Energy =                 354.4274587426846210
    Total Energy =                       -267.4450303283056201
  Basis Set: (AUG-CC-PVTZ AUX)
    Blend: AUG-CC-PVTZ-RI
    Molecular point group: c1

    Geometry (in Angstrom), charge = 0, multiplicity = 1:

       Center              X                  Y                   Z               Mass
    ------------   -----------------  -----------------  -----------------  -----------------
         N            0.952770433143     1.586625132598    -0.268188276027    14.003074004430
         N           -2.045396566857    -0.580620867402     0.195332723973    14.003074004430
         C            0.085660433143     0.627255132598     0.431012723973    12.000000000000
         C            0.877192433143    -0.652787867402     0.707123723973    12.000000000000
         C           -1.144947566857     0.388700132598    -0.438642276027    12.000000000000
         C            1.352671433143    -1.386502867402    -0.545202276027    12.000000000000
         H           -0.279687566857     1.001937132598     1.401963723973     1.007825032230
         H            0.262473433143    -1.311246867402     1.331284723973     1.007825032230
         H            1.746934433143    -0.385396867402     1.322459723973     1.007825032230
         H           -1.687445166857     1.335815032598    -0.549185576027     1.007825032230
         H           -0.812260566857     0.116243132598    -1.451287276027     1.007825032230
         H            2.006617433143    -2.221778867402    -0.277295276027     1.007825032230
         H            0.514813433143    -1.798617867402    -1.116028276027     1.007825032230
         H            1.902737433143    -0.708310867402    -1.200228276027     1.007825032230
         H            1.751978433143     1.808917132598     0.325934723973     1.007825032230
         H            0.449979433143     2.465521132598    -0.396327276027     1.007825032230
         H           -1.670670566857    -1.519951867402     0.072375723973     1.007825032230
         H           -2.941996566857    -0.576225867402    -0.288513276027     1.007825032230

  Basis Set: AUG-CC-PVTZ
    Blend: AUG-CC-PVTZ
  Basis Set: (AUG-CC-PVTZ AUX)
    Blend: AUG-CC-PVTZ-JKFIT
	 Reference Energy          =    -267.4450303283056201 [Eh]
	 Singles Energy            =      -0.0000000000000000 [Eh]
	 Same-Spin Energy          =      -0.2837026976454521 [Eh]
	 Opposite-Spin Energy      =      -0.9909654129987866 [Eh]
	 Correlation Energy        =      -1.2746681106442388 [Eh]
	 Total Energy              =    -268.7196984389498766 [Eh]

	 ================> DF-SCS-MP2 Energies <==================
	-----------------------------------------------------------
	 SCS Same-Spin Scale       =       0.3333333333333333 [-]
	 SCS Opposite-Spin Scale   =       1.2000000000000000 [-]
	 SCS Same-Spin Energy      =      -0.0945675658818174 [Eh]
	 SCS Opposite-Spin Energy  =      -1.1891584955985439 [Eh]
	 SCS Correlation Energy    =      -1.2837260614803614 [Eh]
	 SCS Total Energy          =    -268.7287563897859854 [Eh]
	-----------------------------------------------------------

  Dipole Moment: [D]
     X:    -0.2250      Y:     0.2569      Z:    -0.1089     Total:     0.3584

*** Psi4 exiting successfully. Buy a developer a beer!
