                               Psi4 1.4a3.dev225

  ==> Input File <==

--------------------------------------------------------------------------
#psi4
#
memory 32 gb

molecule  {
0 1
  N        0.9404650     1.6044440    -0.2603840
  N       -2.0577020    -0.5628020     0.2031370
  C        0.0733550     0.6450740     0.4388170
  C        0.8648870    -0.6349690     0.7149280
  C       -1.1572530     0.4065190    -0.4308380
  C        1.3403660    -1.3686840    -0.5373980
  H       -0.2919930     1.0197560     1.4097680
  H        0.2759583    -1.2898322     1.3671103
  H        1.7346290    -0.3675780     1.3302640
  H       -1.7030210     1.3537690    -0.5225160
  H       -0.8245660     0.1340620    -1.4434830
  H        1.9943120    -2.2039600    -0.2694910
  H        0.5025080    -1.7807990    -1.1082240
  H        1.8904320    -0.6904920    -1.1924240
  H        1.7396730     1.8267360     0.3337390
  H        0.4376740     2.4833400    -0.3885230
  H       -1.6829760    -1.5021330     0.0801800
  H       -2.9543020    -0.5584070    -0.2807090
units angstrom
no_reorient  #important for SAPT in psi4, default
symmetry c1  #important for SAPT in psi4, default
}

set PROPERTIES_ORIGIN ["COM"]
properties('MP2/aug-cc-pvtz', properties = ['dipole'])
--------------------------------------------------------------------------

    Molecular point group: c1
  Charge       = 0
  Multiplicity = 1
  Basis Set: AUG-CC-PVTZ
    Blend: AUG-CC-PVTZ
  Basis Set: (AUG-CC-PVTZ AUX)
    Blend: AUG-CC-PVTZ-JKFIT

    Orbital Energies [Eh]
    ---------------------

    Doubly Occupied:

       1A    -15.541365     2A    -15.538369     3A    -11.245589
       4A    -11.242410     5A    -11.214358     6A    -11.205873
       7A     -1.196764     8A     -1.159076     9A     -1.029225
      10A     -0.938653    11A     -0.863526    12A     -0.750682
      13A     -0.671092    14A     -0.662252    15A     -0.643020
      16A     -0.588474    17A     -0.580481    18A     -0.553149
      19A     -0.530847    20A     -0.514853    21A     -0.493064
      22A     -0.466816    23A     -0.453793    24A     -0.393846
      25A     -0.388729

  @DF-RHF Final Energy:  -267.44494918254463

   => Energetics <=

    Nuclear Repulsion Energy =            264.6755749673052378
    One-Electron Energy =                -886.5084369717259278
    Two-Electron Energy =                 354.3879128218760570
    Total Energy =                       -267.4449491825446330
  Basis Set: (AUG-CC-PVTZ AUX)
    Blend: AUG-CC-PVTZ-RI
    Molecular point group: c1

    Geometry (in Angstrom), charge = 0, multiplicity = 1:

       Center              X                  Y                   Z               Mass
    ------------   -----------------  -----------------  -----------------  -----------------
         N            0.952512815589     1.586582452775    -0.268724637698    14.003074004430
         N           -2.045654184411    -0.580663547225     0.194796362302    14.003074004430
         C            0.085402815589     0.627212452775     0.430476362302    12.000000000000
         C            0.876934815589    -0.652830547225     0.706587362302    12.000000000000
         C           -1.145205184411     0.388657452775    -0.439178637698    12.000000000000
         C            1.352413815589    -1.386545547225    -0.545738637698    12.000000000000
         H           -0.279945184411     1.001894452775     1.401427362302     1.007825032230
         H            0.288006115589    -1.307693747225     1.358769662302     1.007825032230
         H            1.746676815589    -0.385439547225     1.321923362302     1.007825032230
         H           -1.690973184411     1.335907452775    -0.530856637698     1.007825032230
         H           -0.812518184411     0.116200452775    -1.451823637698     1.007825032230
         H            2.006359815589    -2.221821547225    -0.277831637698     1.007825032230
         H            0.514555815589    -1.798660547225    -1.116564637698     1.007825032230
         H            1.902479815589    -0.708353547225    -1.200764637698     1.007825032230
         H            1.751720815589     1.808874452775     0.325398362302     1.007825032230
         H            0.449721815589     2.465478452775    -0.396863637698     1.007825032230
         H           -1.670928184411    -1.519994547225     0.071839362302     1.007825032230
         H           -2.942254184411    -0.576268547225    -0.289049637698     1.007825032230

  Basis Set: AUG-CC-PVTZ
    Blend: AUG-CC-PVTZ
  Basis Set: (AUG-CC-PVTZ AUX)
    Blend: AUG-CC-PVTZ-JKFIT
	 Reference Energy          =    -267.4449491825446330 [Eh]
	 Singles Energy            =      -0.0000000000000000 [Eh]
	 Same-Spin Energy          =      -0.2836917902511417 [Eh]
	 Opposite-Spin Energy      =      -0.9909444521657917 [Eh]
	 Correlation Energy        =      -1.2746362424169333 [Eh]
	 Total Energy              =    -268.7195854249615650 [Eh]

	 ================> DF-SCS-MP2 Energies <==================
	-----------------------------------------------------------
	 SCS Same-Spin Scale       =       0.3333333333333333 [-]
	 SCS Opposite-Spin Scale   =       1.2000000000000000 [-]
	 SCS Same-Spin Energy      =      -0.0945639300837139 [Eh]
	 SCS Opposite-Spin Energy  =      -1.1891333425989501 [Eh]
	 SCS Correlation Energy    =      -1.2836972726826639 [Eh]
	 SCS Total Energy          =    -268.7286464552273060 [Eh]
	-----------------------------------------------------------

  Dipole Moment: [D]
     X:    -0.2127      Y:     0.2539      Z:    -0.0952     Total:     0.3446

*** Psi4 exiting successfully. Buy a developer a beer!
