                               Psi4 1.4a3.dev225

  ==> Input File <==

--------------------------------------------------------------------------
#psi4
#
memory 32 gb

molecule  {
0 1
  N        0.9404650     1.6044440    -0.2603840
  N       -2.0605572    -0.5012493     0.2849232
  C        0.0733550     0.6450740     0.4388170
  C        0.8648870    -0.6349690     0.7149280
  C       -1.1572530     0.4065190    -0.4308380
  C        1.3403660    -1.3686840    -0.5373980
  H       -0.2919930     1.0197560     1.4097680
  H        0.2501680    -1.2934280     1.3390890
  H        1.7346290    -0.3675780     1.3302640
  H       -1.7030210     1.3537690    -0.5225160
  H       -0.8245660     0.1340620    -1.4434830
  H        1.9943120    -2.2039600    -0.2694910
  H        0.5025080    -1.7807990    -1.1082240
  H        1.8904320    -0.6904920    -1.1924240
  H        1.7396730     1.8267360     0.3337390
  H        0.4376740     2.4833400    -0.3885230
  H       -1.6829760    -1.5021330     0.0801800
  H       -2.9543020    -0.5584070    -0.2807090
units angstrom
no_reorient  #important for SAPT in psi4, default
symmetry c1  #important for SAPT in psi4, default
}

set PROPERTIES_ORIGIN ["COM"]
properties('MP2/aug-cc-pvtz', properties = ['dipole'])
--------------------------------------------------------------------------

    Molecular point group: c1
  Charge       = 0
  Multiplicity = 1
  Basis Set: AUG-CC-PVTZ
    Blend: AUG-CC-PVTZ
  Basis Set: (AUG-CC-PVTZ AUX)
    Blend: AUG-CC-PVTZ-JKFIT

    Orbital Energies [Eh]
    ---------------------

    Doubly Occupied:

       1A    -15.558436     2A    -15.537768     3A    -11.244719
       4A    -11.242774     5A    -11.214058     6A    -11.205941
       7A     -1.195896     8A     -1.154665     9A     -1.028824
      10A     -0.934898    11A     -0.861973    12A     -0.748368
      13A     -0.665173    14A     -0.658239    15A     -0.640311
      16A     -0.585093    17A     -0.576050    18A     -0.554051
      19A     -0.520745    20A     -0.511073    21A     -0.491766
      22A     -0.467659    23A     -0.450932    24A     -0.406756
      25A     -0.389432

  @DF-RHF Final Energy:  -267.43364472504379

   => Energetics <=

    Nuclear Repulsion Energy =            264.4937173393138892
    One-Electron Energy =                -886.1635242915673416
    Two-Electron Energy =                 354.2361622272096611
    Total Energy =                       -267.4336447250437914
  Basis Set: (AUG-CC-PVTZ AUX)
    Blend: AUG-CC-PVTZ-RI
    Molecular point group: c1

    Geometry (in Angstrom), charge = 0, multiplicity = 1:

       Center              X                  Y                   Z               Mass
    ------------   -----------------  -----------------  -----------------  -----------------
         N            0.953261665199     1.576840084960    -0.281403605121    14.003074004430
         N           -2.047760534801    -0.528853215040     0.263903594879    14.003074004430
         C            0.086151665199     0.617470084960     0.417797394879    12.000000000000
         C            0.877683665199    -0.662572915040     0.693908394879    12.000000000000
         C           -1.144456334801     0.378915084960    -0.451857605121    12.000000000000
         C            1.353162665199    -1.396287915040    -0.558417605121    12.000000000000
         H           -0.279196334801     0.992152084960     1.388748394879     1.007825032230
         H            0.262964665199    -1.321031915040     1.318069394879     1.007825032230
         H            1.747425665199    -0.395181915040     1.309244394879     1.007825032230
         H           -1.690224334801     1.326165084960    -0.543535605121     1.007825032230
         H           -0.811769334801     0.106458084960    -1.464502605121     1.007825032230
         H            2.007108665199    -2.231563915040    -0.290510605121     1.007825032230
         H            0.515304665199    -1.808402915040    -1.129243605121     1.007825032230
         H            1.903228665199    -0.718095915040    -1.213443605121     1.007825032230
         H            1.752469665199     1.799132084960     0.312719394879     1.007825032230
         H            0.450470665199     2.455736084960    -0.409542605121     1.007825032230
         H           -1.670179334801    -1.529736915040     0.059160394879     1.007825032230
         H           -2.941505334801    -0.586010915040    -0.301728605121     1.007825032230

  Basis Set: AUG-CC-PVTZ
    Blend: AUG-CC-PVTZ
  Basis Set: (AUG-CC-PVTZ AUX)
    Blend: AUG-CC-PVTZ-JKFIT
	 Reference Energy          =    -267.4336447250437914 [Eh]
	 Singles Energy            =      -0.0000000000000000 [Eh]
	 Same-Spin Energy          =      -0.2847154579956283 [Eh]
	 Opposite-Spin Energy      =      -0.9939455835657662 [Eh]
	 Correlation Energy        =      -1.2786610415613944 [Eh]
	 Total Energy              =    -268.7123057666051977 [Eh]

	 ================> DF-SCS-MP2 Energies <==================
	-----------------------------------------------------------
	 SCS Same-Spin Scale       =       0.3333333333333333 [-]
	 SCS Opposite-Spin Scale   =       1.2000000000000000 [-]
	 SCS Same-Spin Energy      =      -0.0949051526652094 [Eh]
	 SCS Opposite-Spin Energy  =      -1.1927347002789195 [Eh]
	 SCS Correlation Energy    =      -1.2876398529441289 [Eh]
	 SCS Total Energy          =    -268.7212845779879444 [Eh]
	-----------------------------------------------------------

  Dipole Moment: [D]
     X:    -0.2059      Y:     0.1828      Z:    -0.2424     Total:     0.3668

*** Psi4 exiting successfully. Buy a developer a beer!
