                               Psi4 1.4a3.dev225

  ==> Input File <==

--------------------------------------------------------------------------
#psi4
#
memory 32 gb

molecule  {
0 1
  N        0.9404650     1.6044440    -0.2603840
  N       -2.0577020    -0.5628020     0.2031370
  C        0.0733550     0.6450740     0.4388170
  C        0.8648870    -0.6349690     0.7149280
  C       -1.1727266     0.4147487    -0.4107918
  C        1.3403660    -1.3686840    -0.5373980
  H       -0.2919930     1.0197560     1.4097680
  H        0.2501680    -1.2934280     1.3390890
  H        1.7346290    -0.3675780     1.3302640
  H       -1.7030210     1.3537690    -0.5225160
  H       -0.8245660     0.1340620    -1.4434830
  H        1.9943120    -2.2039600    -0.2694910
  H        0.5025080    -1.7807990    -1.1082240
  H        1.8904320    -0.6904920    -1.1924240
  H        1.7396730     1.8267360     0.3337390
  H        0.4376740     2.4833400    -0.3885230
  H       -1.6829760    -1.5021330     0.0801800
  H       -2.9543020    -0.5584070    -0.2807090
units angstrom
no_reorient  #important for SAPT in psi4, default
symmetry c1  #important for SAPT in psi4, default
}

set PROPERTIES_ORIGIN ["COM"]
properties('MP2/aug-cc-pvtz', properties = ['dipole'])
--------------------------------------------------------------------------

    Molecular point group: c1
  Charge       = 0
  Multiplicity = 1
  Basis Set: AUG-CC-PVTZ
    Blend: AUG-CC-PVTZ
  Basis Set: (AUG-CC-PVTZ AUX)
    Blend: AUG-CC-PVTZ-JKFIT

    Orbital Energies [Eh]
    ---------------------

    Doubly Occupied:

       1A    -15.541600     2A    -15.538516     3A    -11.245355
       4A    -11.243109     5A    -11.214533     6A    -11.205344
       7A     -1.198124     8A     -1.161203     9A     -1.029279
      10A     -0.938757    11A     -0.862729    12A     -0.749881
      13A     -0.672758    14A     -0.661289    15A     -0.644370
      16A     -0.589804    17A     -0.580465    18A     -0.551975
      19A     -0.534096    20A     -0.515475    21A     -0.491561
      22A     -0.468177    23A     -0.454641    24A     -0.392541
      25A     -0.385986

  @DF-RHF Final Energy:  -267.44443702201841

   => Energetics <=

    Nuclear Repulsion Energy =            264.7377495712911468
    One-Electron Energy =                -886.6212336680010822
    Two-Electron Energy =                 354.4390470746915298
    Total Energy =                       -267.4444370220184055
  Basis Set: (AUG-CC-PVTZ AUX)
    Blend: AUG-CC-PVTZ-RI
    Molecular point group: c1

    Geometry (in Angstrom), charge = 0, multiplicity = 1:

       Center              X                  Y                   Z               Mass
    ------------   -----------------  -----------------  -----------------  -----------------
         N            0.954915485211     1.585502629728    -0.271134555017    14.003074004430
         N           -2.043251514789    -0.581743370272     0.192386444983    14.003074004430
         C            0.087805485211     0.626132629728     0.428066444983    12.000000000000
         C            0.879337485211    -0.653910370272     0.704177444983    12.000000000000
         C           -1.158276114789     0.395807329728    -0.421542355017    12.000000000000
         C            1.354816485211    -1.387625370272    -0.548148555017    12.000000000000
         H           -0.277542514789     1.000814629728     1.399017444983     1.007825032230
         H            0.264618485211    -1.312369370272     1.328338444983     1.007825032230
         H            1.749079485211    -0.386519370272     1.319513444983     1.007825032230
         H           -1.688570514789     1.334827629728    -0.533266555017     1.007825032230
         H           -0.810115514789     0.115120629728    -1.454233555017     1.007825032230
         H            2.008762485211    -2.222901370272    -0.280241555017     1.007825032230
         H            0.516958485211    -1.799740370272    -1.118974555017     1.007825032230
         H            1.904882485211    -0.709433370272    -1.203174555017     1.007825032230
         H            1.754123485211     1.807794629728     0.322988444983     1.007825032230
         H            0.452124485211     2.464398629728    -0.399273555017     1.007825032230
         H           -1.668525514789    -1.521074370272     0.069429444983     1.007825032230
         H           -2.939851514789    -0.577348370272    -0.291459555017     1.007825032230

  Basis Set: AUG-CC-PVTZ
    Blend: AUG-CC-PVTZ
  Basis Set: (AUG-CC-PVTZ AUX)
    Blend: AUG-CC-PVTZ-JKFIT
	 Reference Energy          =    -267.4444370220184055 [Eh]
	 Singles Energy            =      -0.0000000000000000 [Eh]
	 Same-Spin Energy          =      -0.2837280404602470 [Eh]
	 Opposite-Spin Energy      =      -0.9908742200766910 [Eh]
	 Correlation Energy        =      -1.2746022605369380 [Eh]
	 Total Energy              =    -268.7190392825553431 [Eh]

	 ================> DF-SCS-MP2 Energies <==================
	-----------------------------------------------------------
	 SCS Same-Spin Scale       =       0.3333333333333333 [-]
	 SCS Opposite-Spin Scale   =       1.2000000000000000 [-]
	 SCS Same-Spin Energy      =      -0.0945760134867490 [Eh]
	 SCS Opposite-Spin Energy  =      -1.1890490640920293 [Eh]
	 SCS Correlation Energy    =      -1.2836250775787783 [Eh]
	 SCS Total Energy          =    -268.7280620995971958 [Eh]
	-----------------------------------------------------------

  Dipole Moment: [D]
     X:    -0.2499      Y:     0.2599      Z:    -0.0787     Total:     0.3691

*** Psi4 exiting successfully. Buy a developer a beer!
