                               Psi4 1.4a3.dev225

  ==> Input File <==

--------------------------------------------------------------------------
#psi4
#
memory 32 gb

molecule  {
0 1
  N        0.9404650     1.6044440    -0.2603840
  N       -2.0577020    -0.5628020     0.2031370
  C        0.0733550     0.6450740     0.4388170
  C        0.8823127    -0.6207987     0.7293751
  C       -1.1572530     0.4065190    -0.4308380
  C        1.3403660    -1.3686840    -0.5373980
  H       -0.2919930     1.0197560     1.4097680
  H        0.2501680    -1.2934280     1.3390890
  H        1.7346290    -0.3675780     1.3302640
  H       -1.7030210     1.3537690    -0.5225160
  H       -0.8245660     0.1340620    -1.4434830
  H        1.9943120    -2.2039600    -0.2694910
  H        0.5025080    -1.7807990    -1.1082240
  H        1.8904320    -0.6904920    -1.1924240
  H        1.7396730     1.8267360     0.3337390
  H        0.4376740     2.4833400    -0.3885230
  H       -1.6829760    -1.5021330     0.0801800
  H       -2.9543020    -0.5584070    -0.2807090
units angstrom
no_reorient  #important for SAPT in psi4, default
symmetry c1  #important for SAPT in psi4, default
}

set PROPERTIES_ORIGIN ["COM"]
properties('MP2/aug-cc-pvtz', properties = ['dipole'])
--------------------------------------------------------------------------

    Molecular point group: c1
  Charge       = 0
  Multiplicity = 1
  Basis Set: AUG-CC-PVTZ
    Blend: AUG-CC-PVTZ
  Basis Set: (AUG-CC-PVTZ AUX)
    Blend: AUG-CC-PVTZ-JKFIT

    Orbital Energies [Eh]
    ---------------------

    Doubly Occupied:

       1A    -15.541579     2A    -15.538054     3A    -11.245299
       4A    -11.242932     5A    -11.213722     6A    -11.205874
       7A     -1.196761     8A     -1.159248     9A     -1.027467
      10A     -0.938008    11A     -0.864233    12A     -0.751122
      13A     -0.671543    14A     -0.661652    15A     -0.642991
      16A     -0.591511    17A     -0.579421    18A     -0.552627
      19A     -0.530947    20A     -0.515535    21A     -0.486196
      22A     -0.471397    23A     -0.454824    24A     -0.394107
      25A     -0.387998

  @DF-RHF Final Energy:  -267.44448530866691

   => Energetics <=

    Nuclear Repulsion Energy =            264.5635062077052453
    One-Electron Energy =                -886.2858889694165327
    Two-Electron Energy =                 354.2778974530443747
    Total Energy =                       -267.4444853086669127
  Basis Set: (AUG-CC-PVTZ AUX)
    Blend: AUG-CC-PVTZ-RI
    Molecular point group: c1

    Geometry (in Angstrom), charge = 0, multiplicity = 1:

       Center              X                  Y                   Z               Mass
    ------------   -----------------  -----------------  -----------------  -----------------
         N            0.950434311736     1.584693467857    -0.270371908444    14.003074004430
         N           -2.047732688264    -0.582552532143     0.193149091556    14.003074004430
         C            0.083324311736     0.625323467857     0.428829091556    12.000000000000
         C            0.892282011736    -0.640549232143     0.719387191556    12.000000000000
         C           -1.147283688264     0.386768467857    -0.440825908444    12.000000000000
         C            1.350335311736    -1.388434532143    -0.547385908444    12.000000000000
         H           -0.282023688264     1.000005467857     1.399780091556     1.007825032230
         H            0.260137311736    -1.313178532143     1.329101091556     1.007825032230
         H            1.744598311736    -0.387328532143     1.320276091556     1.007825032230
         H           -1.693051688264     1.334018467857    -0.532503908444     1.007825032230
         H           -0.814596688264     0.114311467857    -1.453470908444     1.007825032230
         H            2.004281311736    -2.223710532143    -0.279478908444     1.007825032230
         H            0.512477311736    -1.800549532143    -1.118211908444     1.007825032230
         H            1.900401311736    -0.710242532143    -1.202411908444     1.007825032230
         H            1.749642311736     1.806985467857     0.323751091556     1.007825032230
         H            0.447643311736     2.463589467857    -0.398510908444     1.007825032230
         H           -1.673006688264    -1.521883532143     0.070192091556     1.007825032230
         H           -2.944332688264    -0.578157532143    -0.290696908444     1.007825032230

  Basis Set: AUG-CC-PVTZ
    Blend: AUG-CC-PVTZ
  Basis Set: (AUG-CC-PVTZ AUX)
    Blend: AUG-CC-PVTZ-JKFIT
	 Reference Energy          =    -267.4444853086669127 [Eh]
	 Singles Energy            =      -0.0000000000000000 [Eh]
	 Same-Spin Energy          =      -0.2836052663570964 [Eh]
	 Opposite-Spin Energy      =      -0.9909114824243084 [Eh]
	 Correlation Energy        =      -1.2745167487814046 [Eh]
	 Total Energy              =    -268.7190020574483356 [Eh]

	 ================> DF-SCS-MP2 Energies <==================
	-----------------------------------------------------------
	 SCS Same-Spin Scale       =       0.3333333333333333 [-]
	 SCS Opposite-Spin Scale   =       1.2000000000000000 [-]
	 SCS Same-Spin Energy      =      -0.0945350887856988 [Eh]
	 SCS Opposite-Spin Energy  =      -1.1890937789091700 [Eh]
	 SCS Correlation Energy    =      -1.2836288676948688 [Eh]
	 SCS Total Energy          =    -268.7281141763617711 [Eh]
	-----------------------------------------------------------

  Dipole Moment: [D]
     X:    -0.2198      Y:     0.2652      Z:    -0.0982     Total:     0.3582

*** Psi4 exiting successfully. Buy a developer a beer!
