                               Psi4 1.4a3.dev225

  ==> Input File <==

--------------------------------------------------------------------------
#psi4
#
memory 32 gb

molecule  {
0 1
  N        0.9404650     1.6044440    -0.2603840
  N       -2.0588280    -0.5478452     0.2238889
  C        0.0733550     0.6450740     0.4388170
  C        0.8648870    -0.6349690     0.7149280
  C       -1.1572530     0.4065190    -0.4308380
  C        1.3403660    -1.3686840    -0.5373980
  H       -0.2919930     1.0197560     1.4097680
  H        0.2501680    -1.2934280     1.3390890
  H        1.7346290    -0.3675780     1.3302640
  H       -1.7030210     1.3537690    -0.5225160
  H       -0.8245660     0.1340620    -1.4434830
  H        1.9943120    -2.2039600    -0.2694910
  H        0.5025080    -1.7807990    -1.1082240
  H        1.8904320    -0.6904920    -1.1924240
  H        1.7396730     1.8267360     0.3337390
  H        0.4376740     2.4833400    -0.3885230
  H       -1.6829760    -1.5021330     0.0801800
  H       -2.9543020    -0.5584070    -0.2807090
units angstrom
no_reorient  #important for SAPT in psi4, default
symmetry c1  #important for SAPT in psi4, default
}

set PROPERTIES_ORIGIN ["COM"]
properties('MP2/aug-cc-pvtz', properties = ['dipole'])
--------------------------------------------------------------------------

    Molecular point group: c1
  Charge       = 0
  Multiplicity = 1
  Basis Set: AUG-CC-PVTZ
    Blend: AUG-CC-PVTZ
  Basis Set: (AUG-CC-PVTZ AUX)
    Blend: AUG-CC-PVTZ-JKFIT

    Orbital Energies [Eh]
    ---------------------

    Doubly Occupied:

       1A    -15.545610     2A    -15.538177     3A    -11.245227
       4A    -11.242530     5A    -11.214290     6A    -11.205689
       7A     -1.196589     8A     -1.158083     9A     -1.029258
      10A     -0.937808    11A     -0.862958    12A     -0.749513
      13A     -0.668221    14A     -0.662491    15A     -0.642558
      16A     -0.587594    17A     -0.580262    18A     -0.553569
      19A     -0.528558    20A     -0.514197    21A     -0.491769
      22A     -0.468118    23A     -0.452676    24A     -0.396828
      25A     -0.389281

  @DF-RHF Final Energy:  -267.44347227897595

   => Energetics <=

    Nuclear Repulsion Energy =            264.6673959537529299
    One-Electron Energy =                -886.4980290727213514
    Two-Electron Energy =                 354.3871608399924753
    Total Energy =                       -267.4434722789759462
  Basis Set: (AUG-CC-PVTZ AUX)
    Blend: AUG-CC-PVTZ-RI
    Molecular point group: c1

    Geometry (in Angstrom), charge = 0, multiplicity = 1:

       Center              X                  Y                   Z               Mass
    ------------   -----------------  -----------------  -----------------  -----------------
         N            0.952986817273     1.584246276533    -0.271702500124    14.003074004430
         N           -2.046306182727    -0.568042923467     0.212570399876    14.003074004430
         C            0.085876817273     0.624876276533     0.427498499876    12.000000000000
         C            0.877408817273    -0.655166723467     0.703609499876    12.000000000000
         C           -1.144731182727     0.386321276533    -0.442156500124    12.000000000000
         C            1.352887817273    -1.388881723467    -0.548716500124    12.000000000000
         H           -0.279471182727     0.999558276533     1.398449499876     1.007825032230
         H            0.262689817273    -1.313625723467     1.327770499876     1.007825032230
         H            1.747150817273    -0.387775723467     1.318945499876     1.007825032230
         H           -1.690499182727     1.333571276533    -0.533834500124     1.007825032230
         H           -0.812044182727     0.113864276533    -1.454801500124     1.007825032230
         H            2.006833817273    -2.224157723467    -0.280809500124     1.007825032230
         H            0.515029817273    -1.800996723467    -1.119542500124     1.007825032230
         H            1.902953817273    -0.710689723467    -1.203742500124     1.007825032230
         H            1.752194817273     1.806538276533     0.322420499876     1.007825032230
         H            0.450195817273     2.463142276533    -0.399841500124     1.007825032230
         H           -1.670454182727    -1.522330723467     0.068861499876     1.007825032230
         H           -2.941780182727    -0.578604723467    -0.292027500124     1.007825032230

  Basis Set: AUG-CC-PVTZ
    Blend: AUG-CC-PVTZ
  Basis Set: (AUG-CC-PVTZ AUX)
    Blend: AUG-CC-PVTZ-JKFIT
	 Reference Energy          =    -267.4434722789759462 [Eh]
	 Singles Energy            =      -0.0000000000000000 [Eh]
	 Same-Spin Energy          =      -0.2839121054104400 [Eh]
	 Opposite-Spin Energy      =      -0.9916120997698169 [Eh]
	 Correlation Energy        =      -1.2755242051802569 [Eh]
	 Total Energy              =    -268.7189964841562073 [Eh]

	 ================> DF-SCS-MP2 Energies <==================
	-----------------------------------------------------------
	 SCS Same-Spin Scale       =       0.3333333333333333 [-]
	 SCS Opposite-Spin Scale   =       1.2000000000000000 [-]
	 SCS Same-Spin Energy      =      -0.0946373684701467 [Eh]
	 SCS Opposite-Spin Energy  =      -1.1899345197237803 [Eh]
	 SCS Correlation Energy    =      -1.2845718881939270 [Eh]
	 SCS Total Energy          =    -268.7280441671698554 [Eh]
	-----------------------------------------------------------

  Dipole Moment: [D]
     X:    -0.2188      Y:     0.2363      Z:    -0.1432     Total:     0.3525

*** Psi4 exiting successfully. Buy a developer a beer!
