                               Psi4 1.4a3.dev225

  ==> Input File <==

--------------------------------------------------------------------------
#psi4
#
memory 32 gb

molecule  {
0 1
  N        0.9404650     1.6044440    -0.2603840
  N       -2.0577020    -0.5628020     0.2031370
  C        0.0733550     0.6450740     0.4388170
  C        0.8597957    -0.6322152     0.7409985
  C       -1.1572530     0.4065190    -0.4308380
  C        1.3403660    -1.3686840    -0.5373980
  H       -0.2919930     1.0197560     1.4097680
  H        0.2501680    -1.2934280     1.3390890
  H        1.7346290    -0.3675780     1.3302640
  H       -1.7030210     1.3537690    -0.5225160
  H       -0.8245660     0.1340620    -1.4434830
  H        1.9943120    -2.2039600    -0.2694910
  H        0.5025080    -1.7807990    -1.1082240
  H        1.8904320    -0.6904920    -1.1924240
  H        1.7396730     1.8267360     0.3337390
  H        0.4376740     2.4833400    -0.3885230
  H       -1.6829760    -1.5021330     0.0801800
  H       -2.9543020    -0.5584070    -0.2807090
units angstrom
no_reorient  #important for SAPT in psi4, default
symmetry c1  #important for SAPT in psi4, default
}

set PROPERTIES_ORIGIN ["COM"]
properties('MP2/aug-cc-pvtz', properties = ['dipole'])
--------------------------------------------------------------------------

    Molecular point group: c1
  Charge       = 0
  Multiplicity = 1
  Basis Set: AUG-CC-PVTZ
    Blend: AUG-CC-PVTZ
  Basis Set: (AUG-CC-PVTZ AUX)
    Blend: AUG-CC-PVTZ-JKFIT

    Orbital Energies [Eh]
    ---------------------

    Doubly Occupied:

       1A    -15.541652     2A    -15.538523     3A    -11.245272
       4A    -11.242607     5A    -11.213399     6A    -11.206140
       7A     -1.196683     8A     -1.159191     9A     -1.026643
      10A     -0.937483    11A     -0.864409    12A     -0.751587
      13A     -0.671609    14A     -0.662257    15A     -0.643126
      16A     -0.590048    17A     -0.579083    18A     -0.553308
      19A     -0.530275    20A     -0.515065    21A     -0.488467
      22A     -0.470952    23A     -0.454965    24A     -0.394069
      25A     -0.387748

  @DF-RHF Final Energy:  -267.44472551222026

   => Energetics <=

    Nuclear Repulsion Energy =            264.5090798018963483
    One-Electron Energy =                -886.1784867591461534
    Two-Electron Energy =                 354.2246814450294892
    Total Energy =                       -267.4447255122202591
  Basis Set: (AUG-CC-PVTZ AUX)
    Blend: AUG-CC-PVTZ-RI
    Molecular point group: c1

    Geometry (in Angstrom), charge = 0, multiplicity = 1:

       Center              X                  Y                   Z               Mass
    ------------   -----------------  -----------------  -----------------  -----------------
         N            0.953501324807     1.586248495379    -0.271955117563    14.003074004430
         N           -2.044665675193    -0.580997504621     0.191565882437    14.003074004430
         C            0.086391324807     0.626878495379     0.427245882437    12.000000000000
         C            0.872832024807    -0.650410704621     0.729427382437    12.000000000000
         C           -1.144216675193     0.388323495379    -0.442409117563    12.000000000000
         C            1.353402324807    -1.386879504621    -0.548969117563    12.000000000000
         H           -0.278956675193     1.001560495379     1.398196882437     1.007825032230
         H            0.263204324807    -1.311623504621     1.327517882437     1.007825032230
         H            1.747665324807    -0.385773504621     1.318692882437     1.007825032230
         H           -1.689984675193     1.335573495379    -0.534087117563     1.007825032230
         H           -0.811529675193     0.115866495379    -1.455054117563     1.007825032230
         H            2.007348324807    -2.222155504621    -0.281062117563     1.007825032230
         H            0.515544324807    -1.798994504621    -1.119795117563     1.007825032230
         H            1.903468324807    -0.708687504621    -1.203995117563     1.007825032230
         H            1.752709324807     1.808540495379     0.322167882437     1.007825032230
         H            0.450710324807     2.465144495379    -0.400094117563     1.007825032230
         H           -1.669939675193    -1.520328504621     0.068608882437     1.007825032230
         H           -2.941265675193    -0.576602504621    -0.292280117563     1.007825032230

  Basis Set: AUG-CC-PVTZ
    Blend: AUG-CC-PVTZ
  Basis Set: (AUG-CC-PVTZ AUX)
    Blend: AUG-CC-PVTZ-JKFIT
	 Reference Energy          =    -267.4447255122202591 [Eh]
	 Singles Energy            =      -0.0000000000000000 [Eh]
	 Same-Spin Energy          =      -0.2835427721825620 [Eh]
	 Opposite-Spin Energy      =      -0.9908397359305166 [Eh]
	 Correlation Energy        =      -1.2743825081130786 [Eh]
	 Total Energy              =    -268.7191080203333513 [Eh]

	 ================> DF-SCS-MP2 Energies <==================
	-----------------------------------------------------------
	 SCS Same-Spin Scale       =       0.3333333333333333 [-]
	 SCS Opposite-Spin Scale   =       1.2000000000000000 [-]
	 SCS Same-Spin Energy      =      -0.0945142573941873 [Eh]
	 SCS Opposite-Spin Energy  =      -1.1890076831166199 [Eh]
	 SCS Correlation Energy    =      -1.2835219405108071 [Eh]
	 SCS Total Energy          =    -268.7282474527310683 [Eh]
	-----------------------------------------------------------

  Dipole Moment: [D]
     X:    -0.2265      Y:     0.2642      Z:    -0.0917     Total:     0.3599

*** Psi4 exiting successfully. Buy a developer a beer!
