                               Psi4 1.4a3.dev225

  ==> Input File <==

--------------------------------------------------------------------------
#psi4
#
memory 32 gb

molecule  {
0 1
  N        0.9404650     1.6044440    -0.2603840
  N       -2.0577020    -0.5628020     0.2031370
  C        0.0733550     0.6450740     0.4388170
  C        0.8648870    -0.6349690     0.7149280
  C       -0.9959304     0.4377916    -0.3168334
  C        1.3403660    -1.3686840    -0.5373980
  H       -0.2919930     1.0197560     1.4097680
  H        0.2501680    -1.2934280     1.3390890
  H        1.7346290    -0.3675780     1.3302640
  H       -1.7030210     1.3537690    -0.5225160
  H       -0.8245660     0.1340620    -1.4434830
  H        1.9943120    -2.2039600    -0.2694910
  H        0.5025080    -1.7807990    -1.1082240
  H        1.8904320    -0.6904920    -1.1924240
  H        1.7396730     1.8267360     0.3337390
  H        0.4376740     2.4833400    -0.3885230
  H       -1.6829760    -1.5021330     0.0801800
  H       -2.9543020    -0.5584070    -0.2807090
units angstrom
no_reorient  #important for SAPT in psi4, default
symmetry c1  #important for SAPT in psi4, default
}

set PROPERTIES_ORIGIN ["COM"]
properties('MP2/aug-cc-pvtz', properties = ['dipole'])
--------------------------------------------------------------------------

    Molecular point group: c1
  Charge       = 0
  Multiplicity = 1
  Basis Set: AUG-CC-PVTZ
    Blend: AUG-CC-PVTZ
  Basis Set: (AUG-CC-PVTZ AUX)
    Blend: AUG-CC-PVTZ-JKFIT

    Orbital Energies [Eh]
    ---------------------

    Doubly Occupied:

       1A    -15.543237     2A    -15.538958     3A    -11.253911
       4A    -11.238845     5A    -11.218358     6A    -11.206995
       7A     -1.212149     8A     -1.142568     9A     -1.038306
      10A     -0.972802    11A     -0.861449    12A     -0.746740
      13A     -0.673649    14A     -0.667277    15A     -0.651684
      16A     -0.591349    17A     -0.573653    18A     -0.560750
      19A     -0.525622    20A     -0.513976    21A     -0.491923
      22A     -0.478174    23A     -0.441574    24A     -0.396256
      25A     -0.380285

  @DF-RHF Final Energy:  -267.39401510619030

   => Energetics <=

    Nuclear Repulsion Energy =            267.0790190435295699
    One-Electron Energy =                -891.1050899237955036
    Two-Electron Energy =                 356.6320557740756385
    Total Energy =                       -267.3940151061902952
  Basis Set: (AUG-CC-PVTZ AUX)
    Blend: AUG-CC-PVTZ-RI
    Molecular point group: c1

    Geometry (in Angstrom), charge = 0, multiplicity = 1:

       Center              X                  Y                   Z               Mass
    ------------   -----------------  -----------------  -----------------  -----------------
         N            0.930834290721     1.582363984460    -0.283932513934    14.003074004430
         N           -2.067332709279    -0.584882015540     0.179588486066    14.003074004430
         C            0.063724290721     0.622993984460     0.415268486066    12.000000000000
         C            0.855256290721    -0.657049015540     0.691379486066    12.000000000000
         C           -1.005561109279     0.415711584460    -0.340381913934    12.000000000000
         C            1.330735290721    -1.390764015540    -0.560946513934    12.000000000000
         H           -0.301623709279     0.997675984460     1.386219486066     1.007825032230
         H            0.240537290721    -1.315508015540     1.315540486066     1.007825032230
         H            1.724998290721    -0.389658015540     1.306715486066     1.007825032230
         H           -1.712651709279     1.331688984460    -0.546064513934     1.007825032230
         H           -0.834196709279     0.111981984460    -1.467031513934     1.007825032230
         H            1.984681290721    -2.226040015540    -0.293039513934     1.007825032230
         H            0.492877290721    -1.802879015540    -1.131772513934     1.007825032230
         H            1.880801290721    -0.712572015540    -1.215972513934     1.007825032230
         H            1.730042290721     1.804655984460     0.310190486066     1.007825032230
         H            0.428043290721     2.461259984460    -0.412071513934     1.007825032230
         H           -1.692606709279    -1.524213015540     0.056631486066     1.007825032230
         H           -2.963932709279    -0.580487015540    -0.304257513934     1.007825032230

  Basis Set: AUG-CC-PVTZ
    Blend: AUG-CC-PVTZ
  Basis Set: (AUG-CC-PVTZ AUX)
    Blend: AUG-CC-PVTZ-JKFIT
	 Reference Energy          =    -267.3940151061902952 [Eh]
	 Singles Energy            =      -0.0000000000000000 [Eh]
	 Same-Spin Energy          =      -0.2865683355032467 [Eh]
	 Opposite-Spin Energy      =      -0.9953907532861219 [Eh]
	 Correlation Energy        =      -1.2819590887893686 [Eh]
	 Total Energy              =    -268.6759741949796876 [Eh]

	 ================> DF-SCS-MP2 Energies <==================
	-----------------------------------------------------------
	 SCS Same-Spin Scale       =       0.3333333333333333 [-]
	 SCS Opposite-Spin Scale   =       1.2000000000000000 [-]
	 SCS Same-Spin Energy      =      -0.0955227785010822 [Eh]
	 SCS Opposite-Spin Energy  =      -1.1944689039433463 [Eh]
	 SCS Correlation Energy    =      -1.2899916824444284 [Eh]
	 SCS Total Energy          =    -268.6840067886347470 [Eh]
	-----------------------------------------------------------

  Dipole Moment: [D]
     X:     0.0628      Y:     0.3664      Z:    -0.0548     Total:     0.3757

*** Psi4 exiting successfully. Buy a developer a beer!
