                               Psi4 1.4a3.dev225

  ==> Input File <==

--------------------------------------------------------------------------
#psi4
#
memory 32 gb

molecule  {
0 1
  N        0.9596053     1.5873754    -0.2595963
  N       -2.0577020    -0.5628020     0.2031370
  C        0.0733550     0.6450740     0.4388170
  C        0.8648870    -0.6349690     0.7149280
  C       -1.1572530     0.4065190    -0.4308380
  C        1.3403660    -1.3686840    -0.5373980
  H       -0.2919930     1.0197560     1.4097680
  H        0.2501680    -1.2934280     1.3390890
  H        1.7346290    -0.3675780     1.3302640
  H       -1.7030210     1.3537690    -0.5225160
  H       -0.8245660     0.1340620    -1.4434830
  H        1.9943120    -2.2039600    -0.2694910
  H        0.5025080    -1.7807990    -1.1082240
  H        1.8904320    -0.6904920    -1.1924240
  H        1.7396730     1.8267360     0.3337390
  H        0.4376740     2.4833400    -0.3885230
  H       -1.6829760    -1.5021330     0.0801800
  H       -2.9543020    -0.5584070    -0.2807090
units angstrom
no_reorient  #important for SAPT in psi4, default
symmetry c1  #important for SAPT in psi4, default
}

set PROPERTIES_ORIGIN ["COM"]
properties('MP2/aug-cc-pvtz', properties = ['dipole'])
--------------------------------------------------------------------------

    Molecular point group: c1
  Charge       = 0
  Multiplicity = 1
  Basis Set: AUG-CC-PVTZ
    Blend: AUG-CC-PVTZ
  Basis Set: (AUG-CC-PVTZ AUX)
    Blend: AUG-CC-PVTZ-JKFIT

    Orbital Energies [Eh]
    ---------------------

    Doubly Occupied:

       1A    -15.541954     2A    -15.540263     3A    -11.245512
       4A    -11.242985     5A    -11.213711     6A    -11.205165
       7A     -1.196835     8A     -1.159288     9A     -1.028436
      10A     -0.938965    11A     -0.862943    12A     -0.749719
      13A     -0.671681    14A     -0.659918    15A     -0.643861
      16A     -0.589449    17A     -0.580295    18A     -0.550262
      19A     -0.531730    20A     -0.515512    21A     -0.491521
      22A     -0.467640    23A     -0.452135    24A     -0.394857
      25A     -0.389998

  @DF-RHF Final Energy:  -267.44371632863215

   => Energetics <=

    Nuclear Repulsion Energy =            264.7638675928403700
    One-Electron Energy =                -886.6858961458326576
    Two-Electron Energy =                 354.4783122243601383
    Total Energy =                       -267.4437163286321493
  Basis Set: (AUG-CC-PVTZ AUX)
    Blend: AUG-CC-PVTZ-RI
    Molecular point group: c1

    Geometry (in Angstrom), charge = 0, multiplicity = 1:

       Center              X                  Y                   Z               Mass
    ------------   -----------------  -----------------  -----------------  -----------------
         N            0.968905887502     1.572267958030    -0.267741587678    14.003074004430
         N           -2.048401412498    -0.577909441970     0.194991712322    14.003074004430
         C            0.082655587502     0.629966558030     0.430671712322    12.000000000000
         C            0.874187587502    -0.650076441970     0.706782712322    12.000000000000
         C           -1.147952412498     0.391411558030    -0.438983287678    12.000000000000
         C            1.349666587502    -1.383791441970    -0.545543287678    12.000000000000
         H           -0.282692412498     1.004648558030     1.401622712322     1.007825032230
         H            0.259468587502    -1.308535441970     1.330943712322     1.007825032230
         H            1.743929587502    -0.382685441970     1.322118712322     1.007825032230
         H           -1.693720412498     1.338661558030    -0.530661287678     1.007825032230
         H           -0.815265412498     0.118954558030    -1.451628287678     1.007825032230
         H            2.003612587502    -2.219067441970    -0.277636287678     1.007825032230
         H            0.511808587502    -1.795906441970    -1.116369287678     1.007825032230
         H            1.899732587502    -0.705599441970    -1.200569287678     1.007825032230
         H            1.748973587502     1.811628558030     0.325593712322     1.007825032230
         H            0.446974587502     2.468232558030    -0.396668287678     1.007825032230
         H           -1.673675412498    -1.517240441970     0.072034712322     1.007825032230
         H           -2.945001412498    -0.573514441970    -0.288854287678     1.007825032230

  Basis Set: AUG-CC-PVTZ
    Blend: AUG-CC-PVTZ
  Basis Set: (AUG-CC-PVTZ AUX)
    Blend: AUG-CC-PVTZ-JKFIT
	 Reference Energy          =    -267.4437163286321493 [Eh]
	 Singles Energy            =      -0.0000000000000000 [Eh]
	 Same-Spin Energy          =      -0.2838370200382221 [Eh]
	 Opposite-Spin Energy      =      -0.9913469913440975 [Eh]
	 Correlation Energy        =      -1.2751840113823196 [Eh]
	 Total Energy              =    -268.7189003400144429 [Eh]

	 ================> DF-SCS-MP2 Energies <==================
	-----------------------------------------------------------
	 SCS Same-Spin Scale       =       0.3333333333333333 [-]
	 SCS Opposite-Spin Scale   =       1.2000000000000000 [-]
	 SCS Same-Spin Energy      =      -0.0946123400127407 [Eh]
	 SCS Opposite-Spin Energy  =      -1.1896163896129170 [Eh]
	 SCS Correlation Energy    =      -1.2842287296256578 [Eh]
	 SCS Total Energy          =    -268.7279450582578306 [Eh]
	-----------------------------------------------------------

  Dipole Moment: [D]
     X:    -0.2543      Y:     0.2823      Z:    -0.1001     Total:     0.3929

*** Psi4 exiting successfully. Buy a developer a beer!
