                               Psi4 1.4a3.dev225

  ==> Input File <==

--------------------------------------------------------------------------
#psi4
#
memory 32 gb

molecule  {
0 1
  N        0.9404650     1.6044440    -0.2603840
  N       -2.0577020    -0.5628020     0.2031370
  C        0.0589061     0.6961019     0.4436351
  C        0.8648870    -0.6349690     0.7149280
  C       -1.1572530     0.4065190    -0.4308380
  C        1.3403660    -1.3686840    -0.5373980
  H       -0.2919930     1.0197560     1.4097680
  H        0.2501680    -1.2934280     1.3390890
  H        1.7346290    -0.3675780     1.3302640
  H       -1.7030210     1.3537690    -0.5225160
  H       -0.8245660     0.1340620    -1.4434830
  H        1.9943120    -2.2039600    -0.2694910
  H        0.5025080    -1.7807990    -1.1082240
  H        1.8904320    -0.6904920    -1.1924240
  H        1.7396730     1.8267360     0.3337390
  H        0.4376740     2.4833400    -0.3885230
  H       -1.6829760    -1.5021330     0.0801800
  H       -2.9543020    -0.5584070    -0.2807090
units angstrom
no_reorient  #important for SAPT in psi4, default
symmetry c1  #important for SAPT in psi4, default
}

set PROPERTIES_ORIGIN ["COM"]
properties('MP2/aug-cc-pvtz', properties = ['dipole'])
--------------------------------------------------------------------------

    Molecular point group: c1
  Charge       = 0
  Multiplicity = 1
  Basis Set: AUG-CC-PVTZ
    Blend: AUG-CC-PVTZ
  Basis Set: (AUG-CC-PVTZ AUX)
    Blend: AUG-CC-PVTZ-JKFIT

    Orbital Energies [Eh]
    ---------------------

    Doubly Occupied:

       1A    -15.541636     2A    -15.540285     3A    -11.244257
       4A    -11.242008     5A    -11.214318     6A    -11.204859
       7A     -1.200047     8A     -1.161978     9A     -1.023569
      10A     -0.939254    11A     -0.858288    12A     -0.752905
      13A     -0.671237    14A     -0.662667    15A     -0.647618
      16A     -0.586420    17A     -0.579925    18A     -0.554782
      19A     -0.532844    20A     -0.514656    21A     -0.492826
      22A     -0.469524    23A     -0.438992    24A     -0.395518
      25A     -0.391827

  @DF-RHF Final Energy:  -267.44247563314570

   => Energetics <=

    Nuclear Repulsion Energy =            264.3855074495468216
    One-Electron Energy =                -885.9314867596514205
    Two-Electron Energy =                 354.1035036769588942
    Total Energy =                       -267.4424756331457047
  Basis Set: (AUG-CC-PVTZ AUX)
    Blend: AUG-CC-PVTZ-RI
    Molecular point group: c1

    Geometry (in Angstrom), charge = 0, multiplicity = 1:

       Center              X                  Y                   Z               Mass
    ------------   -----------------  -----------------  -----------------  -----------------
         N            0.954775912075     1.579673139173    -0.269060354113    14.003074004430
         N           -2.043391087925    -0.587572860827     0.194460645887    14.003074004430
         C            0.073217012075     0.671331039173     0.434958745887    12.000000000000
         C            0.879197912075    -0.659739860827     0.706251645887    12.000000000000
         C           -1.142942087925     0.381748139173    -0.439514354113    12.000000000000
         C            1.354676912075    -1.393454860827    -0.546074354113    12.000000000000
         H           -0.277682087925     0.994985139173     1.401091645887     1.007825032230
         H            0.264478912075    -1.318198860827     1.330412645887     1.007825032230
         H            1.748939912075    -0.392348860827     1.321587645887     1.007825032230
         H           -1.688710087925     1.328998139173    -0.531192354113     1.007825032230
         H           -0.810255087925     0.109291139173    -1.452159354113     1.007825032230
         H            2.008622912075    -2.228730860827    -0.278167354113     1.007825032230
         H            0.516818912075    -1.805569860827    -1.116900354113     1.007825032230
         H            1.904742912075    -0.715262860827    -1.201100354113     1.007825032230
         H            1.753983912075     1.801965139173     0.325062645887     1.007825032230
         H            0.451984912075     2.458569139173    -0.397199354113     1.007825032230
         H           -1.668665087925    -1.526903860827     0.071503645887     1.007825032230
         H           -2.939991087925    -0.583177860827    -0.289385354113     1.007825032230

  Basis Set: AUG-CC-PVTZ
    Blend: AUG-CC-PVTZ
  Basis Set: (AUG-CC-PVTZ AUX)
    Blend: AUG-CC-PVTZ-JKFIT
	 Reference Energy          =    -267.4424756331457047 [Eh]
	 Singles Energy            =      -0.0000000000000000 [Eh]
	 Same-Spin Energy          =      -0.2836944746268710 [Eh]
	 Opposite-Spin Energy      =      -0.9910238264643587 [Eh]
	 Correlation Energy        =      -1.2747183010912297 [Eh]
	 Total Energy              =    -268.7171939342369456 [Eh]

	 ================> DF-SCS-MP2 Energies <==================
	-----------------------------------------------------------
	 SCS Same-Spin Scale       =       0.3333333333333333 [-]
	 SCS Opposite-Spin Scale   =       1.2000000000000000 [-]
	 SCS Same-Spin Energy      =      -0.0945648248756237 [Eh]
	 SCS Opposite-Spin Energy  =      -1.1892285917572305 [Eh]
	 SCS Correlation Energy    =      -1.2837934166328542 [Eh]
	 SCS Total Energy          =    -268.7262690497785798 [Eh]
	-----------------------------------------------------------

  Dipole Moment: [D]
     X:    -0.2064      Y:     0.3492      Z:    -0.1150     Total:     0.4216

*** Psi4 exiting successfully. Buy a developer a beer!
