                               Psi4 1.4a3.dev225

  ==> Input File <==

--------------------------------------------------------------------------
#psi4
#
memory 32 gb

molecule  {
0 1
  N        0.9404650     1.6044440    -0.2603840
  N       -2.0577020    -0.5628020     0.2031370
  C        0.0733550     0.6450740     0.4388170
  C        0.8293176    -0.6621357     0.6857859
  C       -1.1572530     0.4065190    -0.4308380
  C        1.3403660    -1.3686840    -0.5373980
  H       -0.2919930     1.0197560     1.4097680
  H        0.2501680    -1.2934280     1.3390890
  H        1.7346290    -0.3675780     1.3302640
  H       -1.7030210     1.3537690    -0.5225160
  H       -0.8245660     0.1340620    -1.4434830
  H        1.9943120    -2.2039600    -0.2694910
  H        0.5025080    -1.7807990    -1.1082240
  H        1.8904320    -0.6904920    -1.1924240
  H        1.7396730     1.8267360     0.3337390
  H        0.4376740     2.4833400    -0.3885230
  H       -1.6829760    -1.5021330     0.0801800
  H       -2.9543020    -0.5584070    -0.2807090
units angstrom
no_reorient  #important for SAPT in psi4, default
symmetry c1  #important for SAPT in psi4, default
}

set PROPERTIES_ORIGIN ["COM"]
properties('MP2/aug-cc-pvtz', properties = ['dipole'])
--------------------------------------------------------------------------

    Molecular point group: c1
  Charge       = 0
  Multiplicity = 1
  Basis Set: AUG-CC-PVTZ
    Blend: AUG-CC-PVTZ
  Basis Set: (AUG-CC-PVTZ AUX)
    Blend: AUG-CC-PVTZ-JKFIT

    Orbital Energies [Eh]
    ---------------------

    Doubly Occupied:

       1A    -15.541663     2A    -15.538898     3A    -11.245951
       4A    -11.241795     5A    -11.216270     6A    -11.205300
       7A     -1.197246     8A     -1.159194     9A     -1.033547
      10A     -0.940268    11A     -0.861703    12A     -0.748638
      13A     -0.671730    14A     -0.663859    15A     -0.643269
      16A     -0.586551    17A     -0.582265    18A     -0.554792
      19A     -0.531538    20A     -0.514193    21A     -0.502439
      22A     -0.465135    23A     -0.444559    24A     -0.393857
      25A     -0.390044

  @DF-RHF Final Energy:  -267.44166421382215

   => Energetics <=

    Nuclear Repulsion Energy =            265.0577455730658016
    One-Electron Energy =                -887.2494122863599841
    Two-Electron Energy =                 354.7500024994719752
    Total Energy =                       -267.4416642138221505
  Basis Set: (AUG-CC-PVTZ AUX)
    Blend: AUG-CC-PVTZ-RI
    Molecular point group: c1

    Geometry (in Angstrom), charge = 0, multiplicity = 1:

       Center              X                  Y                   Z               Mass
    ------------   -----------------  -----------------  -----------------  -----------------
         N            0.957652709587     1.590323930144    -0.264434676745    14.003074004430
         N           -2.040514290413    -0.576922069856     0.199086323255    14.003074004430
         C            0.090542709587     0.630953930144     0.434766323255    12.000000000000
         C            0.846505309587    -0.676255769856     0.681735223255    12.000000000000
         C           -1.140065290413     0.392398930144    -0.434888676745    12.000000000000
         C            1.357553709587    -1.382804069856    -0.541448676745    12.000000000000
         H           -0.274805290413     1.005635930144     1.405717323255     1.007825032230
         H            0.267355709587    -1.307548069856     1.335038323255     1.007825032230
         H            1.751816709587    -0.381698069856     1.326213323255     1.007825032230
         H           -1.685833290413     1.339648930144    -0.526566676745     1.007825032230
         H           -0.807378290413     0.119941930144    -1.447533676745     1.007825032230
         H            2.011499709587    -2.218080069856    -0.273541676745     1.007825032230
         H            0.519695709587    -1.794919069856    -1.112274676745     1.007825032230
         H            1.907619709587    -0.704612069856    -1.196474676745     1.007825032230
         H            1.756860709587     1.812615930144     0.329688323255     1.007825032230
         H            0.454861709587     2.469219930144    -0.392573676745     1.007825032230
         H           -1.665788290413    -1.516253069856     0.076129323255     1.007825032230
         H           -2.937114290413    -0.572527069856    -0.284759676745     1.007825032230

  Basis Set: AUG-CC-PVTZ
    Blend: AUG-CC-PVTZ
  Basis Set: (AUG-CC-PVTZ AUX)
    Blend: AUG-CC-PVTZ-JKFIT
	 Reference Energy          =    -267.4416642138221505 [Eh]
	 Singles Energy            =      -0.0000000000000000 [Eh]
	 Same-Spin Energy          =      -0.2840004028248092 [Eh]
	 Opposite-Spin Energy      =      -0.9913921574274833 [Eh]
	 Correlation Energy        =      -1.2753925602522924 [Eh]
	 Total Energy              =    -268.7170567740744218 [Eh]

	 ================> DF-SCS-MP2 Energies <==================
	-----------------------------------------------------------
	 SCS Same-Spin Scale       =       0.3333333333333333 [-]
	 SCS Opposite-Spin Scale   =       1.2000000000000000 [-]
	 SCS Same-Spin Energy      =      -0.0946668009416030 [Eh]
	 SCS Opposite-Spin Energy  =      -1.1896705889129799 [Eh]
	 SCS Correlation Energy    =      -1.2843373898545829 [Eh]
	 SCS Total Energy          =    -268.7260016036767070 [Eh]
	-----------------------------------------------------------

  Dipole Moment: [D]
     X:    -0.2378      Y:     0.2416      Z:    -0.1235     Total:     0.3608

*** Psi4 exiting successfully. Buy a developer a beer!
