                               Psi4 1.4a3.dev225

  ==> Input File <==

--------------------------------------------------------------------------
#psi4
#
memory 32 gb

molecule  {
0 1
  N        0.9404650     1.6044440    -0.2603840
  N       -2.0577020    -0.5628020     0.2031370
  C        0.0733550     0.6450740     0.4388170
  C        0.8648870    -0.6349690     0.7149280
  C       -1.0958759     0.4725906    -0.4740515
  C        1.3403660    -1.3686840    -0.5373980
  H       -0.2919930     1.0197560     1.4097680
  H        0.2501680    -1.2934280     1.3390890
  H        1.7346290    -0.3675780     1.3302640
  H       -1.7030210     1.3537690    -0.5225160
  H       -0.8245660     0.1340620    -1.4434830
  H        1.9943120    -2.2039600    -0.2694910
  H        0.5025080    -1.7807990    -1.1082240
  H        1.8904320    -0.6904920    -1.1924240
  H        1.7396730     1.8267360     0.3337390
  H        0.4376740     2.4833400    -0.3885230
  H       -1.6829760    -1.5021330     0.0801800
  H       -2.9543020    -0.5584070    -0.2807090
units angstrom
no_reorient  #important for SAPT in psi4, default
symmetry c1  #important for SAPT in psi4, default
}

set PROPERTIES_ORIGIN ["COM"]
properties('MP2/aug-cc-pvtz', properties = ['dipole'])
--------------------------------------------------------------------------

    Molecular point group: c1
  Charge       = 0
  Multiplicity = 1
  Basis Set: AUG-CC-PVTZ
    Blend: AUG-CC-PVTZ
  Basis Set: (AUG-CC-PVTZ AUX)
    Blend: AUG-CC-PVTZ-JKFIT

    Orbital Energies [Eh]
    ---------------------

    Doubly Occupied:

       1A    -15.538232     2A    -15.537807     3A    -11.246103
       4A    -11.242115     5A    -11.216018     6A    -11.206652
       7A     -1.194643     8A     -1.138916     9A     -1.030123
      10A     -0.946386    11A     -0.868308    12A     -0.754460
      13A     -0.670538    14A     -0.661945    15A     -0.637413
      16A     -0.588116    17A     -0.574035    18A     -0.557544
      19A     -0.532563    20A     -0.504034    21A     -0.492697
      22A     -0.467570    23A     -0.461279    24A     -0.395311
      25A     -0.391003

  @DF-RHF Final Energy:  -267.43630632832640

   => Energetics <=

    Nuclear Repulsion Energy =            264.4864944060555558
    One-Electron Energy =                -886.1379838597753178
    Two-Electron Energy =                 354.2151831253933096
    Total Energy =                       -267.4363063283263955
  Basis Set: (AUG-CC-PVTZ AUX)
    Blend: AUG-CC-PVTZ-RI
    Molecular point group: c1

    Geometry (in Angstrom), charge = 0, multiplicity = 1:

       Center              X                  Y                   Z               Mass
    ------------   -----------------  -----------------  -----------------  -----------------
         N            0.944447745218     1.577624055168    -0.262518028536    14.003074004430
         N           -2.053719254782    -0.589621944832     0.201002971464    14.003074004430
         C            0.077337745218     0.618254055168     0.436682971464    12.000000000000
         C            0.868869745218    -0.661788944832     0.712793971464    12.000000000000
         C           -1.091893154782     0.445770655168    -0.476185528536    12.000000000000
         C            1.344348745218    -1.395503944832    -0.539532028536    12.000000000000
         H           -0.288010254782     0.992936055168     1.407633971464     1.007825032230
         H            0.254150745218    -1.320247944832     1.336954971464     1.007825032230
         H            1.738611745218    -0.394397944832     1.328129971464     1.007825032230
         H           -1.699038254782     1.326949055168    -0.524650028536     1.007825032230
         H           -0.820583254782     0.107242055168    -1.445617028536     1.007825032230
         H            1.998294745218    -2.230779944832    -0.271625028536     1.007825032230
         H            0.506490745218    -1.807618944832    -1.110358028536     1.007825032230
         H            1.894414745218    -0.717311944832    -1.194558028536     1.007825032230
         H            1.743655745218     1.799916055168     0.331604971464     1.007825032230
         H            0.441656745218     2.456520055168    -0.390657028536     1.007825032230
         H           -1.678993254782    -1.528952944832     0.078045971464     1.007825032230
         H           -2.950319254782    -0.585226944832    -0.282843028536     1.007825032230

  Basis Set: AUG-CC-PVTZ
    Blend: AUG-CC-PVTZ
  Basis Set: (AUG-CC-PVTZ AUX)
    Blend: AUG-CC-PVTZ-JKFIT
	 Reference Energy          =    -267.4363063283263955 [Eh]
	 Singles Energy            =      -0.0000000000000000 [Eh]
	 Same-Spin Energy          =      -0.2837961538754111 [Eh]
	 Opposite-Spin Energy      =      -0.9920031429328056 [Eh]
	 Correlation Energy        =      -1.2757992968082168 [Eh]
	 Total Energy              =    -268.7121056251345976 [Eh]

	 ================> DF-SCS-MP2 Energies <==================
	-----------------------------------------------------------
	 SCS Same-Spin Scale       =       0.3333333333333333 [-]
	 SCS Opposite-Spin Scale   =       1.2000000000000000 [-]
	 SCS Same-Spin Energy      =      -0.0945987179584704 [Eh]
	 SCS Opposite-Spin Energy  =      -1.1904037715193667 [Eh]
	 SCS Correlation Energy    =      -1.2850024894778371 [Eh]
	 SCS Total Energy          =    -268.7213088178042426 [Eh]
	-----------------------------------------------------------

  Dipole Moment: [D]
     X:    -0.0481      Y:     0.3829      Z:    -0.1767     Total:     0.4244

*** Psi4 exiting successfully. Buy a developer a beer!
