                               Psi4 1.4a3.dev225

  ==> Input File <==

--------------------------------------------------------------------------
#psi4
#
memory 32 gb

molecule  {
0 1
  N        0.9784756     1.5700197    -0.2585959
  N       -2.0577020    -0.5628020     0.2031370
  C        0.0733550     0.6450740     0.4388170
  C        0.8648870    -0.6349690     0.7149280
  C       -1.1572530     0.4065190    -0.4308380
  C        1.3403660    -1.3686840    -0.5373980
  H       -0.2919930     1.0197560     1.4097680
  H        0.2501680    -1.2934280     1.3390890
  H        1.7346290    -0.3675780     1.3302640
  H       -1.7030210     1.3537690    -0.5225160
  H       -0.8245660     0.1340620    -1.4434830
  H        1.9943120    -2.2039600    -0.2694910
  H        0.5025080    -1.7807990    -1.1082240
  H        1.8904320    -0.6904920    -1.1924240
  H        1.7396730     1.8267360     0.3337390
  H        0.4376740     2.4833400    -0.3885230
  H       -1.6829760    -1.5021330     0.0801800
  H       -2.9543020    -0.5584070    -0.2807090
units angstrom
no_reorient  #important for SAPT in psi4, default
symmetry c1  #important for SAPT in psi4, default
}

set PROPERTIES_ORIGIN ["COM"]
properties('MP2/aug-cc-pvtz', properties = ['dipole'])
--------------------------------------------------------------------------

    Molecular point group: c1
  Charge       = 0
  Multiplicity = 1
  Basis Set: AUG-CC-PVTZ
    Blend: AUG-CC-PVTZ
  Basis Set: (AUG-CC-PVTZ AUX)
    Blend: AUG-CC-PVTZ-JKFIT

    Orbital Energies [Eh]
    ---------------------

    Doubly Occupied:

       1A    -15.542341     2A    -15.542271     3A    -11.245703
       4A    -11.243484     5A    -11.213103     6A    -11.204758
       7A     -1.196919     8A     -1.159499     9A     -1.027576
      10A     -0.939345    11A     -0.862642    12A     -0.749702
      13A     -0.671890    14A     -0.658723    15A     -0.643294
      16A     -0.589276    17A     -0.580494    18A     -0.547016
      19A     -0.532400    20A     -0.516072    21A     -0.491299
      22A     -0.467128    23A     -0.450875    24A     -0.395956
      25A     -0.391102

  @DF-RHF Final Energy:  -267.44106041634029

   => Energetics <=

    Nuclear Repulsion Energy =            264.8070719315060160
    One-Electron Energy =                -886.7705288722333989
    Two-Electron Energy =                 354.5223965243870907
    Total Energy =                       -267.4410604163402922
  Basis Set: (AUG-CC-PVTZ AUX)
    Blend: AUG-CC-PVTZ-RI
    Molecular point group: c1

    Geometry (in Angstrom), charge = 0, multiplicity = 1:

       Center              X                  Y                   Z               Mass
    ------------   -----------------  -----------------  -----------------  -----------------
         N            0.984776845139     1.557670862093    -0.266900196390    14.003074004430
         N           -2.051400754861    -0.575150837907     0.194832703610    14.003074004430
         C            0.079656245139     0.632725162093     0.430512703610    12.000000000000
         C            0.871188245139    -0.647317837907     0.706623703610    12.000000000000
         C           -1.150951754861     0.394170162093    -0.439142296390    12.000000000000
         C            1.346667245139    -1.381032837907    -0.545702296390    12.000000000000
         H           -0.285691754861     1.007407162093     1.401463703610     1.007825032230
         H            0.256469245139    -1.305776837907     1.330784703610     1.007825032230
         H            1.740930245139    -0.379926837907     1.321959703610     1.007825032230
         H           -1.696719754861     1.341420162093    -0.530820296390     1.007825032230
         H           -0.818264754861     0.121713162093    -1.451787296390     1.007825032230
         H            2.000613245139    -2.216308837907    -0.277795296390     1.007825032230
         H            0.508809245139    -1.793147837907    -1.116528296390     1.007825032230
         H            1.896733245139    -0.702840837907    -1.200728296390     1.007825032230
         H            1.745974245139     1.814387162093     0.325434703610     1.007825032230
         H            0.443975245139     2.470991162093    -0.396827296390     1.007825032230
         H           -1.676674754861    -1.514481837907     0.071875703610     1.007825032230
         H           -2.948000754861    -0.570755837907    -0.289013296390     1.007825032230

  Basis Set: AUG-CC-PVTZ
    Blend: AUG-CC-PVTZ
  Basis Set: (AUG-CC-PVTZ AUX)
    Blend: AUG-CC-PVTZ-JKFIT
	 Reference Energy          =    -267.4410604163402922 [Eh]
	 Singles Energy            =      -0.0000000000000000 [Eh]
	 Same-Spin Energy          =      -0.2839873506611410 [Eh]
	 Opposite-Spin Energy      =      -0.9917753493067589 [Eh]
	 Correlation Energy        =      -1.2757626999678999 [Eh]
	 Total Energy              =    -268.7168231163082055 [Eh]

	 ================> DF-SCS-MP2 Energies <==================
	-----------------------------------------------------------
	 SCS Same-Spin Scale       =       0.3333333333333333 [-]
	 SCS Opposite-Spin Scale   =       1.2000000000000000 [-]
	 SCS Same-Spin Energy      =      -0.0946624502203803 [Eh]
	 SCS Opposite-Spin Energy  =      -1.1901304191681106 [Eh]
	 SCS Correlation Energy    =      -1.2847928693884909 [Eh]
	 SCS Total Energy          =    -268.7258532857287605 [Eh]
	-----------------------------------------------------------

  Dipole Moment: [D]
     X:    -0.2843      Y:     0.3049      Z:    -0.0956     Total:     0.4277

*** Psi4 exiting successfully. Buy a developer a beer!
