                               Psi4 1.4a3.dev225

  ==> Input File <==

--------------------------------------------------------------------------
#psi4
#
memory 32 gb

molecule  {
0 1
  N        0.9404650     1.6044440    -0.2603840
  N       -2.0577020    -0.5628020     0.2031370
  C        0.0733550     0.6450740     0.4388170
  C        0.8648870    -0.6349690     0.7149280
  C       -1.1572530     0.4065190    -0.4308380
  C        1.3403660    -1.3686840    -0.5373980
  H       -0.2919930     1.0197560     1.4097680
  H        0.2501680    -1.2934280     1.3390890
  H        1.7346290    -0.3675780     1.3302640
  H       -1.7061251     1.3536156    -0.5036228
  H       -0.8245660     0.1340620    -1.4434830
  H        1.9943120    -2.2039600    -0.2694910
  H        0.5025080    -1.7807990    -1.1082240
  H        1.8904320    -0.6904920    -1.1924240
  H        1.7396730     1.8267360     0.3337390
  H        0.4376740     2.4833400    -0.3885230
  H       -1.6829760    -1.5021330     0.0801800
  H       -2.9543020    -0.5584070    -0.2807090
units angstrom
no_reorient  #important for SAPT in psi4, default
symmetry c1  #important for SAPT in psi4, default
}

set PROPERTIES_ORIGIN ["COM"]
properties('MP2/aug-cc-pvtz', properties = ['dipole'])
--------------------------------------------------------------------------

    Molecular point group: c1
  Charge       = 0
  Multiplicity = 1
  Basis Set: AUG-CC-PVTZ
    Blend: AUG-CC-PVTZ
  Basis Set: (AUG-CC-PVTZ AUX)
    Blend: AUG-CC-PVTZ-JKFIT

    Orbital Energies [Eh]
    ---------------------

    Doubly Occupied:

       1A    -15.541444     2A    -15.538327     3A    -11.245328
       4A    -11.242512     5A    -11.214302     6A    -11.205638
       7A     -1.196919     8A     -1.159201     9A     -1.029387
      10A     -0.938739    11A     -0.863145    12A     -0.749697
      13A     -0.671953    14A     -0.662454    15A     -0.642961
      16A     -0.589654    17A     -0.579881    18A     -0.553505
      19A     -0.531300    20A     -0.514974    21A     -0.491782
      22A     -0.468288    23A     -0.452766    24A     -0.394065
      25A     -0.388820

  @DF-RHF Final Energy:  -267.44500974040346

   => Energetics <=

    Nuclear Repulsion Energy =            264.7370762656109378
    One-Electron Energy =                -886.6300867648518533
    Two-Electron Energy =                 354.4480007588375088
    Total Energy =                       -267.4450097404034636
  Basis Set: (AUG-CC-PVTZ AUX)
    Blend: AUG-CC-PVTZ-RI
    Molecular point group: c1

    Geometry (in Angstrom), charge = 0, multiplicity = 1:

       Center              X                  Y                   Z               Mass
    ------------   -----------------  -----------------  -----------------  -----------------
         N            0.952843354564     1.586625341941    -0.268620216329    14.003074004430
         N           -2.045323645436    -0.580620658059     0.194900783671    14.003074004430
         C            0.085733354564     0.627255341941     0.430580783671    12.000000000000
         C            0.877265354564    -0.652787658059     0.706691783671    12.000000000000
         C           -1.144874645436     0.388700341941    -0.439074216329    12.000000000000
         C            1.352744354564    -1.386502658059    -0.545634216329    12.000000000000
         H           -0.279614645436     1.001937341941     1.401531783671     1.007825032230
         H            0.262546354564    -1.311246658059     1.330852783671     1.007825032230
         H            1.747007354564    -0.385396658059     1.322027783671     1.007825032230
         H           -1.693746745436     1.335796941941    -0.511859016329     1.007825032230
         H           -0.812187645436     0.116243341941    -1.451719216329     1.007825032230
         H            2.006690354564    -2.221778658059    -0.277727216329     1.007825032230
         H            0.514886354564    -1.798617658059    -1.116460216329     1.007825032230
         H            1.902810354564    -0.708310658059    -1.200660216329     1.007825032230
         H            1.752051354564     1.808917341941     0.325502783671     1.007825032230
         H            0.450052354564     2.465521341941    -0.396759216329     1.007825032230
         H           -1.670597645436    -1.519951658059     0.071943783671     1.007825032230
         H           -2.941923645436    -0.576225658059    -0.288945216329     1.007825032230

  Basis Set: AUG-CC-PVTZ
    Blend: AUG-CC-PVTZ
  Basis Set: (AUG-CC-PVTZ AUX)
    Blend: AUG-CC-PVTZ-JKFIT
	 Reference Energy          =    -267.4450097404034636 [Eh]
	 Singles Energy            =      -0.0000000000000000 [Eh]
	 Same-Spin Energy          =      -0.2837121658897862 [Eh]
	 Opposite-Spin Energy      =      -0.9910111351384954 [Eh]
	 Correlation Energy        =      -1.2747233010282817 [Eh]
	 Total Energy              =    -268.7197330414317662 [Eh]

	 ================> DF-SCS-MP2 Energies <==================
	-----------------------------------------------------------
	 SCS Same-Spin Scale       =       0.3333333333333333 [-]
	 SCS Opposite-Spin Scale   =       1.2000000000000000 [-]
	 SCS Same-Spin Energy      =      -0.0945707219632621 [Eh]
	 SCS Opposite-Spin Energy  =      -1.1892133621661944 [Eh]
	 SCS Correlation Energy    =      -1.2837840841294565 [Eh]
	 SCS Total Energy          =    -268.7287938245329428 [Eh]
	-----------------------------------------------------------

  Dipole Moment: [D]
     X:    -0.2222      Y:     0.2571      Z:    -0.0997     Total:     0.3541

*** Psi4 exiting successfully. Buy a developer a beer!
