                               Psi4 1.4a3.dev225

  ==> Input File <==

--------------------------------------------------------------------------
#psi4
#
memory 32 gb

molecule  {
0 1
  N        0.9404650     1.6044440    -0.2603840
  N       -2.0577020    -0.5628020     0.2031370
  C        0.0733550     0.6450740     0.4388170
  C        0.8648870    -0.6349690     0.7149280
  C       -1.1411207     0.4096463    -0.4194375
  C        1.3403660    -1.3686840    -0.5373980
  H       -0.2919930     1.0197560     1.4097680
  H        0.2501680    -1.2934280     1.3390890
  H        1.7346290    -0.3675780     1.3302640
  H       -1.7030210     1.3537690    -0.5225160
  H       -0.8245660     0.1340620    -1.4434830
  H        1.9943120    -2.2039600    -0.2694910
  H        0.5025080    -1.7807990    -1.1082240
  H        1.8904320    -0.6904920    -1.1924240
  H        1.7396730     1.8267360     0.3337390
  H        0.4376740     2.4833400    -0.3885230
  H       -1.6829760    -1.5021330     0.0801800
  H       -2.9543020    -0.5584070    -0.2807090
units angstrom
no_reorient  #important for SAPT in psi4, default
symmetry c1  #important for SAPT in psi4, default
}

set PROPERTIES_ORIGIN ["COM"]
properties('MP2/aug-cc-pvtz', properties = ['dipole'])
--------------------------------------------------------------------------

    Molecular point group: c1
  Charge       = 0
  Multiplicity = 1
  Basis Set: AUG-CC-PVTZ
    Blend: AUG-CC-PVTZ
  Basis Set: (AUG-CC-PVTZ AUX)
    Blend: AUG-CC-PVTZ-JKFIT

    Orbital Energies [Eh]
    ---------------------

    Doubly Occupied:

       1A    -15.541248     2A    -15.538699     3A    -11.245018
       4A    -11.243219     5A    -11.214652     6A    -11.205708
       7A     -1.197464     8A     -1.157815     9A     -1.029993
      10A     -0.941539    11A     -0.863010    12A     -0.749940
      13A     -0.670949    14A     -0.663090    15A     -0.643722
      16A     -0.589779    17A     -0.578815    18A     -0.553154
      19A     -0.528818    20A     -0.516971    21A     -0.491859
      22A     -0.469194    23A     -0.453657    24A     -0.393475
      25A     -0.389527

  @DF-RHF Final Energy:  -267.44452765456333

   => Energetics <=

    Nuclear Repulsion Energy =            264.9446297030868323
    One-Electron Energy =                -887.0356848739535280
    Two-Electron Energy =                 354.6465275163033084
    Total Energy =                       -267.4445276545633305
  Basis Set: (AUG-CC-PVTZ AUX)
    Blend: AUG-CC-PVTZ-RI
    Molecular point group: c1

    Geometry (in Angstrom), charge = 0, multiplicity = 1:

       Center              X                  Y                   Z               Mass
    ------------   -----------------  -----------------  -----------------  -----------------
         N            0.950610484171     1.586197621400    -0.269956934778    14.003074004430
         N           -2.047556515829    -0.581048378600     0.193564065222    14.003074004430
         C            0.083500484171     0.626827621400     0.429244065222    12.000000000000
         C            0.875032484171    -0.653215378600     0.705355065222    12.000000000000
         C           -1.130975215829     0.391399921400    -0.429010434778    12.000000000000
         C            1.350511484171    -1.386930378600    -0.546970934778    12.000000000000
         H           -0.281847515829     1.001509621400     1.400195065222     1.007825032230
         H            0.260313484171    -1.311674378600     1.329516065222     1.007825032230
         H            1.744774484171    -0.385824378600     1.320691065222     1.007825032230
         H           -1.692875515829     1.335522621400    -0.532088934778     1.007825032230
         H           -0.814420515829     0.115815621400    -1.453055934778     1.007825032230
         H            2.004457484171    -2.222206378600    -0.279063934778     1.007825032230
         H            0.512653484171    -1.799045378600    -1.117796934778     1.007825032230
         H            1.900577484171    -0.708738378600    -1.201996934778     1.007825032230
         H            1.749818484171     1.808489621400     0.324166065222     1.007825032230
         H            0.447819484171     2.465093621400    -0.398095934778     1.007825032230
         H           -1.672830515829    -1.520379378600     0.070607065222     1.007825032230
         H           -2.944156515829    -0.576653378600    -0.290281934778     1.007825032230

  Basis Set: AUG-CC-PVTZ
    Blend: AUG-CC-PVTZ
  Basis Set: (AUG-CC-PVTZ AUX)
    Blend: AUG-CC-PVTZ-JKFIT
	 Reference Energy          =    -267.4445276545633305 [Eh]
	 Singles Energy            =      -0.0000000000000000 [Eh]
	 Same-Spin Energy          =      -0.2838062449769610 [Eh]
	 Opposite-Spin Energy      =      -0.9911121057271254 [Eh]
	 Correlation Energy        =      -1.2749183507040864 [Eh]
	 Total Energy              =    -268.7194460052674003 [Eh]

	 ================> DF-SCS-MP2 Energies <==================
	-----------------------------------------------------------
	 SCS Same-Spin Scale       =       0.3333333333333333 [-]
	 SCS Opposite-Spin Scale   =       1.2000000000000000 [-]
	 SCS Same-Spin Energy      =      -0.0946020816589870 [Eh]
	 SCS Opposite-Spin Energy  =      -1.1893345268725504 [Eh]
	 SCS Correlation Energy    =      -1.2839366085315373 [Eh]
	 SCS Total Energy          =    -268.7284642630948497 [Eh]
	-----------------------------------------------------------

  Dipole Moment: [D]
     X:    -0.2000      Y:     0.2694      Z:    -0.1025     Total:     0.3508

*** Psi4 exiting successfully. Buy a developer a beer!
