                               Psi4 1.4a3.dev225

  ==> Input File <==

--------------------------------------------------------------------------
#psi4
#
memory 32 gb

molecule  {
0 1
  N        0.9404650     1.6044440    -0.2603840
  N       -2.0577020    -0.5628020     0.2031370
  C        0.0733550     0.6450740     0.4388170
  C        0.8648870    -0.6349690     0.7149280
  C       -1.1572530     0.4065190    -0.4308380
  C        1.3403660    -1.3686840    -0.5373980
  H       -0.2919930     1.0197560     1.4097680
  H        0.2375518    -1.2949253     1.3247910
  H        1.7346290    -0.3675780     1.3302640
  H       -1.7030210     1.3537690    -0.5225160
  H       -0.8245660     0.1340620    -1.4434830
  H        1.9943120    -2.2039600    -0.2694910
  H        0.5025080    -1.7807990    -1.1082240
  H        1.8904320    -0.6904920    -1.1924240
  H        1.7396730     1.8267360     0.3337390
  H        0.4376740     2.4833400    -0.3885230
  H       -1.6829760    -1.5021330     0.0801800
  H       -2.9543020    -0.5584070    -0.2807090
units angstrom
no_reorient  #important for SAPT in psi4, default
symmetry c1  #important for SAPT in psi4, default
}

set PROPERTIES_ORIGIN ["COM"]
properties('MP2/aug-cc-pvtz', properties = ['dipole'])
--------------------------------------------------------------------------

    Molecular point group: c1
  Charge       = 0
  Multiplicity = 1
  Basis Set: AUG-CC-PVTZ
    Blend: AUG-CC-PVTZ
  Basis Set: (AUG-CC-PVTZ AUX)
    Blend: AUG-CC-PVTZ-JKFIT

    Orbital Energies [Eh]
    ---------------------

    Doubly Occupied:

       1A    -15.541680     2A    -15.538283     3A    -11.245318
       4A    -11.242551     5A    -11.214371     6A    -11.205459
       7A     -1.196924     8A     -1.159250     9A     -1.029485
      10A     -0.938720    11A     -0.863161    12A     -0.749640
      13A     -0.671873    14A     -0.662407    15A     -0.643034
      16A     -0.590284    17A     -0.580145    18A     -0.553451
      19A     -0.531081    20A     -0.514923    21A     -0.491103
      22A     -0.468993    23A     -0.452697    24A     -0.394064
      25A     -0.388733

  @DF-RHF Final Energy:  -267.44499894047397

   => Energetics <=

    Nuclear Repulsion Energy =            264.7533087607403672
    One-Electron Energy =                -886.6613602428252534
    Two-Electron Energy =                 354.4630525416108640
    Total Energy =                       -267.4449989404739654
  Basis Set: (AUG-CC-PVTZ AUX)
    Blend: AUG-CC-PVTZ-RI
    Molecular point group: c1

    Geometry (in Angstrom), charge = 0, multiplicity = 1:

       Center              X                  Y                   Z               Mass
    ------------   -----------------  -----------------  -----------------  -----------------
         N            0.952952168720     1.586640715554    -0.268240523890    14.003074004430
         N           -2.045214831280    -0.580605284446     0.195280476110    14.003074004430
         C            0.085842168720     0.627270715554     0.430960476110    12.000000000000
         C            0.877374168720    -0.652772284446     0.707071476110    12.000000000000
         C           -1.144765831280     0.388715715554    -0.438694523890    12.000000000000
         C            1.352853168720    -1.386487284446    -0.545254523890    12.000000000000
         H           -0.279505831280     1.001952715554     1.401911476110     1.007825032230
         H            0.250038968720    -1.312728584446     1.316934476110     1.007825032230
         H            1.747116168720    -0.385381284446     1.322407476110     1.007825032230
         H           -1.690533831280     1.335965715554    -0.530372523890     1.007825032230
         H           -0.812078831280     0.116258715554    -1.451339523890     1.007825032230
         H            2.006799168720    -2.221763284446    -0.277347523890     1.007825032230
         H            0.514995168720    -1.798602284446    -1.116080523890     1.007825032230
         H            1.902919168720    -0.708295284446    -1.200280523890     1.007825032230
         H            1.752160168720     1.808932715554     0.325882476110     1.007825032230
         H            0.450161168720     2.465536715554    -0.396379523890     1.007825032230
         H           -1.670488831280    -1.519936284446     0.072323476110     1.007825032230
         H           -2.941814831280    -0.576210284446    -0.288565523890     1.007825032230

  Basis Set: AUG-CC-PVTZ
    Blend: AUG-CC-PVTZ
  Basis Set: (AUG-CC-PVTZ AUX)
    Blend: AUG-CC-PVTZ-JKFIT
	 Reference Energy          =    -267.4449989404739654 [Eh]
	 Singles Energy            =      -0.0000000000000000 [Eh]
	 Same-Spin Energy          =      -0.2837185268347832 [Eh]
	 Opposite-Spin Energy      =      -0.9910149901590763 [Eh]
	 Correlation Energy        =      -1.2747335169938596 [Eh]
	 Total Energy              =    -268.7197324574678419 [Eh]

	 ================> DF-SCS-MP2 Energies <==================
	-----------------------------------------------------------
	 SCS Same-Spin Scale       =       0.3333333333333333 [-]
	 SCS Opposite-Spin Scale   =       1.2000000000000000 [-]
	 SCS Same-Spin Energy      =      -0.0945728422782610 [Eh]
	 SCS Opposite-Spin Energy  =      -1.1892179881908915 [Eh]
	 SCS Correlation Energy    =      -1.2837908304691525 [Eh]
	 SCS Total Energy          =    -268.7287897709431377 [Eh]
	-----------------------------------------------------------

  Dipole Moment: [D]
     X:    -0.2290      Y:     0.2588      Z:    -0.1087     Total:     0.3622

*** Psi4 exiting successfully. Buy a developer a beer!
