                               Psi4 1.4a3.dev225

  ==> Input File <==

--------------------------------------------------------------------------
#psi4
#
memory 32 gb

molecule  {
0 1
  N        0.9404650     1.6044440    -0.2603840
  N       -2.0577020    -0.5628020     0.2031370
  C        0.0733550     0.6450740     0.4388170
  C        0.8430909    -0.6216233     0.8186259
  C       -1.1572530     0.4065190    -0.4308380
  C        1.3403660    -1.3686840    -0.5373980
  H       -0.2919930     1.0197560     1.4097680
  H        0.2501680    -1.2934280     1.3390890
  H        1.7346290    -0.3675780     1.3302640
  H       -1.7030210     1.3537690    -0.5225160
  H       -0.8245660     0.1340620    -1.4434830
  H        1.9943120    -2.2039600    -0.2694910
  H        0.5025080    -1.7807990    -1.1082240
  H        1.8904320    -0.6904920    -1.1924240
  H        1.7396730     1.8267360     0.3337390
  H        0.4376740     2.4833400    -0.3885230
  H       -1.6829760    -1.5021330     0.0801800
  H       -2.9543020    -0.5584070    -0.2807090
units angstrom
no_reorient  #important for SAPT in psi4, default
symmetry c1  #important for SAPT in psi4, default
}

set PROPERTIES_ORIGIN ["COM"]
properties('MP2/aug-cc-pvtz', properties = ['dipole'])
--------------------------------------------------------------------------

    Molecular point group: c1
  Charge       = 0
  Multiplicity = 1
  Basis Set: AUG-CC-PVTZ
    Blend: AUG-CC-PVTZ
  Basis Set: (AUG-CC-PVTZ AUX)
    Blend: AUG-CC-PVTZ-JKFIT

    Orbital Energies [Eh]
    ---------------------

    Doubly Occupied:

       1A    -15.541927     2A    -15.539313     3A    -11.245444
       4A    -11.243059     5A    -11.211832     6A    -11.207495
       7A     -1.196370     8A     -1.159323     9A     -1.020340
      10A     -0.934120    11A     -0.867580    12A     -0.756364
      13A     -0.672581    14A     -0.662111    15A     -0.643679
      16A     -0.593115    17A     -0.575918    18A     -0.554327
      19A     -0.529357    20A     -0.515533    21A     -0.492751
      22A     -0.466136    23A     -0.453871    24A     -0.394412
      25A     -0.383851

  @DF-RHF Final Energy:  -267.43570458566279

   => Energetics <=

    Nuclear Repulsion Energy =            263.8805503528991494
    One-Electron Energy =                -884.9108939378190826
    Two-Electron Energy =                 353.5946389992571426
    Total Energy =                       -267.4357045856627906
  Basis Set: (AUG-CC-PVTZ AUX)
    Blend: AUG-CC-PVTZ-RI
    Molecular point group: c1

    Geometry (in Angstrom), charge = 0, multiplicity = 1:

       Center              X                  Y                   Z               Mass
    ------------   -----------------  -----------------  -----------------  -----------------
         N            0.955776665215     1.584805785616    -0.282528650914    14.003074004430
         N           -2.042390334785    -0.582440214384     0.180992349086    14.003074004430
         C            0.088666665215     0.625435785616     0.416672349086    12.000000000000
         C            0.858402565215    -0.641261514384     0.796481249086    12.000000000000
         C           -1.141941334785     0.386880785616    -0.452982650914    12.000000000000
         C            1.355677665215    -1.388322214384    -0.559542650914    12.000000000000
         H           -0.276681334785     1.000117785616     1.387623349086     1.007825032230
         H            0.265479665215    -1.313066214384     1.316944349086     1.007825032230
         H            1.749940665215    -0.387216214384     1.308119349086     1.007825032230
         H           -1.687709334785     1.334130785616    -0.544660650914     1.007825032230
         H           -0.809254334785     0.114423785616    -1.465627650914     1.007825032230
         H            2.009623665215    -2.223598214384    -0.291635650914     1.007825032230
         H            0.517819665215    -1.800437214384    -1.130368650914     1.007825032230
         H            1.905743665215    -0.710130214384    -1.214568650914     1.007825032230
         H            1.754984665215     1.807097785616     0.311594349086     1.007825032230
         H            0.452985665215     2.463701785616    -0.410667650914     1.007825032230
         H           -1.667664334785    -1.521771214384     0.058035349086     1.007825032230
         H           -2.938990334785    -0.578045214384    -0.302853650914     1.007825032230

  Basis Set: AUG-CC-PVTZ
    Blend: AUG-CC-PVTZ
  Basis Set: (AUG-CC-PVTZ AUX)
    Blend: AUG-CC-PVTZ-JKFIT
	 Reference Energy          =    -267.4357045856627906 [Eh]
	 Singles Energy            =      -0.0000000000000000 [Eh]
	 Same-Spin Energy          =      -0.2833282443301915 [Eh]
	 Opposite-Spin Energy      =      -0.9909616043841816 [Eh]
	 Correlation Energy        =      -1.2742898487143730 [Eh]
	 Total Energy              =    -268.7099944343771654 [Eh]

	 ================> DF-SCS-MP2 Energies <==================
	-----------------------------------------------------------
	 SCS Same-Spin Scale       =       0.3333333333333333 [-]
	 SCS Opposite-Spin Scale   =       1.2000000000000000 [-]
	 SCS Same-Spin Energy      =      -0.0944427481100638 [Eh]
	 SCS Opposite-Spin Energy  =      -1.1891539252610179 [Eh]
	 SCS Correlation Energy    =      -1.2835966733710817 [Eh]
	 SCS Total Energy          =    -268.7193012590338981 [Eh]
	-----------------------------------------------------------

  Dipole Moment: [D]
     X:    -0.2374      Y:     0.2909      Z:    -0.0615     Total:     0.3805

*** Psi4 exiting successfully. Buy a developer a beer!
