                               Psi4 1.4a3.dev225

  ==> Input File <==

--------------------------------------------------------------------------
#psi4
#
memory 32 gb

molecule  {
0 1
  N        0.9404650     1.6044440    -0.2603840
  N       -2.0577020    -0.5628020     0.2031370
  C        0.0733550     0.6450740     0.4388170
  C        0.8648870    -0.6349690     0.7149280
  C       -1.1572530     0.4065190    -0.4308380
  C        1.3403660    -1.3686840    -0.5373980
  H       -0.2919930     1.0197560     1.4097680
  H        0.2501680    -1.2934280     1.3390890
  H        1.7346290    -0.3675780     1.3302640
  H       -1.8025171     1.5264571    -0.5392293
  H       -0.8245660     0.1340620    -1.4434830
  H        1.9943120    -2.2039600    -0.2694910
  H        0.5025080    -1.7807990    -1.1082240
  H        1.8904320    -0.6904920    -1.1924240
  H        1.7396730     1.8267360     0.3337390
  H        0.4376740     2.4833400    -0.3885230
  H       -1.6829760    -1.5021330     0.0801800
  H       -2.9543020    -0.5584070    -0.2807090
units angstrom
no_reorient  #important for SAPT in psi4, default
symmetry c1  #important for SAPT in psi4, default
}

set PROPERTIES_ORIGIN ["COM"]
properties('MP2/aug-cc-pvtz', properties = ['dipole'])
--------------------------------------------------------------------------

    Molecular point group: c1
  Charge       = 0
  Multiplicity = 1
  Basis Set: AUG-CC-PVTZ
    Blend: AUG-CC-PVTZ
  Basis Set: (AUG-CC-PVTZ AUX)
    Blend: AUG-CC-PVTZ-JKFIT

    Orbital Energies [Eh]
    ---------------------

    Doubly Occupied:

       1A    -15.544792     2A    -15.538274     3A    -11.266796
       4A    -11.247827     5A    -11.216717     6A    -11.207296
       7A     -1.197045     8A     -1.160553     9A     -1.031240
      10A     -0.934896    11A     -0.857942    12A     -0.745866
      13A     -0.665980    14A     -0.663762    15A     -0.644174
      16A     -0.591400    17A     -0.581278    18A     -0.554516
      19A     -0.523382    20A     -0.506365    21A     -0.492648
      22A     -0.470454    23A     -0.442612    24A     -0.395850
      25A     -0.389523

  @DF-RHF Final Energy:  -267.42539754134737

   => Energetics <=

    Nuclear Repulsion Energy =            263.8519454846933741
    One-Electron Energy =                -884.8123115888190569
    Two-Electron Energy =                 353.5349685627783174
    Total Energy =                       -267.4253975413473654
  Basis Set: (AUG-CC-PVTZ AUX)
    Blend: AUG-CC-PVTZ-RI
    Molecular point group: c1

    Geometry (in Angstrom), charge = 0, multiplicity = 1:

       Center              X                  Y                   Z               Mass
    ------------   -----------------  -----------------  -----------------  -----------------
         N            0.953946035802     1.584648112717    -0.268212893942    14.003074004430
         N           -2.044220964198    -0.582597887283     0.195308106058    14.003074004430
         C            0.086836035802     0.625278112717     0.430988106058    12.000000000000
         C            0.878368035802    -0.654764887283     0.707099106058    12.000000000000
         C           -1.143771964198     0.386723112717    -0.438666893942    12.000000000000
         C            1.353847035802    -1.388479887283    -0.545226893942    12.000000000000
         H           -0.278511964198     0.999960112717     1.401939106058     1.007825032230
         H            0.263649035802    -1.313223887283     1.331260106058     1.007825032230
         H            1.748110035802    -0.387373887283     1.322435106058     1.007825032230
         H           -1.789036064198     1.506661212717    -0.547058193942     1.007825032230
         H           -0.811084964198     0.114266112717    -1.451311893942     1.007825032230
         H            2.007793035802    -2.223755887283    -0.277319893942     1.007825032230
         H            0.515989035802    -1.800594887283    -1.116052893942     1.007825032230
         H            1.903913035802    -0.710287887283    -1.200252893942     1.007825032230
         H            1.753154035802     1.806940112717     0.325910106058     1.007825032230
         H            0.451155035802     2.463544112717    -0.396351893942     1.007825032230
         H           -1.669494964198    -1.521928887283     0.072351106058     1.007825032230
         H           -2.940820964198    -0.578202887283    -0.288537893942     1.007825032230

  Basis Set: AUG-CC-PVTZ
    Blend: AUG-CC-PVTZ
  Basis Set: (AUG-CC-PVTZ AUX)
    Blend: AUG-CC-PVTZ-JKFIT
	 Reference Energy          =    -267.4253975413473654 [Eh]
	 Singles Energy            =      -0.0000000000000000 [Eh]
	 Same-Spin Energy          =      -0.2837979294992394 [Eh]
	 Opposite-Spin Energy      =      -0.9926200356245721 [Eh]
	 Correlation Energy        =      -1.2764179651238114 [Eh]
	 Total Energy              =    -268.7018155064711777 [Eh]

	 ================> DF-SCS-MP2 Energies <==================
	-----------------------------------------------------------
	 SCS Same-Spin Scale       =       0.3333333333333333 [-]
	 SCS Opposite-Spin Scale   =       1.2000000000000000 [-]
	 SCS Same-Spin Energy      =      -0.0945993098330798 [Eh]
	 SCS Opposite-Spin Energy  =      -1.1911440427494866 [Eh]
	 SCS Correlation Energy    =      -1.2857433525825663 [Eh]
	 SCS Total Energy          =    -268.7111408939299508 [Eh]
	-----------------------------------------------------------

  Dipole Moment: [D]
     X:    -0.1263      Y:     0.0784      Z:    -0.0499     Total:     0.1569

*** Psi4 exiting successfully. Buy a developer a beer!
