                               Psi4 1.4a3.dev225

  ==> Input File <==

--------------------------------------------------------------------------
#psi4
#
memory 32 gb

molecule  {
0 1
  N        0.9736645     1.6014994    -0.2213692
  N       -2.0577020    -0.5628020     0.2031370
  C        0.0733550     0.6450740     0.4388170
  C        0.8648870    -0.6349690     0.7149280
  C       -1.1572530     0.4065190    -0.4308380
  C        1.3403660    -1.3686840    -0.5373980
  H       -0.2919930     1.0197560     1.4097680
  H        0.2501680    -1.2934280     1.3390890
  H        1.7346290    -0.3675780     1.3302640
  H       -1.7030210     1.3537690    -0.5225160
  H       -0.8245660     0.1340620    -1.4434830
  H        1.9943120    -2.2039600    -0.2694910
  H        0.5025080    -1.7807990    -1.1082240
  H        1.8904320    -0.6904920    -1.1924240
  H        1.7396730     1.8267360     0.3337390
  H        0.4376740     2.4833400    -0.3885230
  H       -1.6829760    -1.5021330     0.0801800
  H       -2.9543020    -0.5584070    -0.2807090
units angstrom
no_reorient  #important for SAPT in psi4, default
symmetry c1  #important for SAPT in psi4, default
}

set PROPERTIES_ORIGIN ["COM"]
properties('MP2/aug-cc-pvtz', properties = ['dipole'])
--------------------------------------------------------------------------

    Molecular point group: c1
  Charge       = 0
  Multiplicity = 1
  Basis Set: AUG-CC-PVTZ
    Blend: AUG-CC-PVTZ
  Basis Set: (AUG-CC-PVTZ AUX)
    Blend: AUG-CC-PVTZ-JKFIT

    Orbital Energies [Eh]
    ---------------------

    Doubly Occupied:

       1A    -15.542644     2A    -15.534565     3A    -11.245561
       4A    -11.243945     5A    -11.213458     6A    -11.205266
       7A     -1.197500     8A     -1.161013     9A     -1.029328
      10A     -0.940650    11A     -0.862905    12A     -0.751313
      13A     -0.671926    14A     -0.658763    15A     -0.652784
      16A     -0.590003    17A     -0.581610    18A     -0.548994
      19A     -0.534272    20A     -0.517893    21A     -0.490545
      22A     -0.468481    23A     -0.452258    24A     -0.394589
      25A     -0.385811

  @DF-RHF Final Energy:  -267.44314195455229

   => Energetics <=

    Nuclear Repulsion Energy =            264.7218844943598697
    One-Electron Energy =                -886.5778949310519010
    Two-Electron Energy =                 354.4128684821397428
    Total Energy =                       -267.4431419545522886
  Basis Set: (AUG-CC-PVTZ AUX)
    Blend: AUG-CC-PVTZ-RI
    Molecular point group: c1

    Geometry (in Angstrom), charge = 0, multiplicity = 1:

       Center              X                  Y                   Z               Mass
    ------------   -----------------  -----------------  -----------------  -----------------
         N            0.980730446073     1.584147016956    -0.235590499213    14.003074004430
         N           -2.050636053927    -0.580154383044     0.188915700787    14.003074004430
         C            0.080420946073     0.627721616956     0.424595700787    12.000000000000
         C            0.871952946073    -0.652321383044     0.700706700787    12.000000000000
         C           -1.150187053927     0.389166616956    -0.445059299213    12.000000000000
         C            1.347431946073    -1.386036383044    -0.551619299213    12.000000000000
         H           -0.284927053927     1.002403616956     1.395546700787     1.007825032230
         H            0.257233946073    -1.310780383044     1.324867700787     1.007825032230
         H            1.741694946073    -0.384930383044     1.316042700787     1.007825032230
         H           -1.695955053927     1.336416616956    -0.536737299213     1.007825032230
         H           -0.817500053927     0.116709616956    -1.457704299213     1.007825032230
         H            2.001377946073    -2.221312383044    -0.283712299213     1.007825032230
         H            0.509573946073    -1.798151383044    -1.122445299213     1.007825032230
         H            1.897497946073    -0.707844383044    -1.206645299213     1.007825032230
         H            1.746738946073     1.809383616956     0.319517700787     1.007825032230
         H            0.444739946073     2.465987616956    -0.402744299213     1.007825032230
         H           -1.675910053927    -1.519485383044     0.065958700787     1.007825032230
         H           -2.947236053927    -0.575759383044    -0.294930299213     1.007825032230

  Basis Set: AUG-CC-PVTZ
    Blend: AUG-CC-PVTZ
  Basis Set: (AUG-CC-PVTZ AUX)
    Blend: AUG-CC-PVTZ-JKFIT
	 Reference Energy          =    -267.4431419545522886 [Eh]
	 Singles Energy            =      -0.0000000000000000 [Eh]
	 Same-Spin Energy          =      -0.2835275540984281 [Eh]
	 Opposite-Spin Energy      =      -0.9904888915100374 [Eh]
	 Correlation Energy        =      -1.2740164456084655 [Eh]
	 Total Energy              =    -268.7171584001607698 [Eh]

	 ================> DF-SCS-MP2 Energies <==================
	-----------------------------------------------------------
	 SCS Same-Spin Scale       =       0.3333333333333333 [-]
	 SCS Opposite-Spin Scale   =       1.2000000000000000 [-]
	 SCS Same-Spin Energy      =      -0.0945091846994760 [Eh]
	 SCS Opposite-Spin Energy  =      -1.1885866698120449 [Eh]
	 SCS Correlation Energy    =      -1.2830958545115210 [Eh]
	 SCS Total Energy          =    -268.7262378090638322 [Eh]
	-----------------------------------------------------------

  Dipole Moment: [D]
     X:    -0.2742      Y:     0.2543      Z:    -0.1664     Total:     0.4094

*** Psi4 exiting successfully. Buy a developer a beer!
