                               Psi4 1.4a3.dev225

  ==> Input File <==

--------------------------------------------------------------------------
#psi4
#
memory 32 gb

molecule  {
0 1
  N        0.9404650     1.6044440    -0.2603840
  N       -2.0577020    -0.5628020     0.2031370
  C        0.0143714     0.5798145     0.4863789
  C        0.8648870    -0.6349690     0.7149280
  C       -1.1572530     0.4065190    -0.4308380
  C        1.3403660    -1.3686840    -0.5373980
  H       -0.2919930     1.0197560     1.4097680
  H        0.2501680    -1.2934280     1.3390890
  H        1.7346290    -0.3675780     1.3302640
  H       -1.7030210     1.3537690    -0.5225160
  H       -0.8245660     0.1340620    -1.4434830
  H        1.9943120    -2.2039600    -0.2694910
  H        0.5025080    -1.7807990    -1.1082240
  H        1.8904320    -0.6904920    -1.1924240
  H        1.7396730     1.8267360     0.3337390
  H        0.4376740     2.4833400    -0.3885230
  H       -1.6829760    -1.5021330     0.0801800
  H       -2.9543020    -0.5584070    -0.2807090
units angstrom
no_reorient  #important for SAPT in psi4, default
symmetry c1  #important for SAPT in psi4, default
}

set PROPERTIES_ORIGIN ["COM"]
properties('MP2/aug-cc-pvtz', properties = ['dipole'])
--------------------------------------------------------------------------

    Molecular point group: c1
  Charge       = 0
  Multiplicity = 1
  Basis Set: AUG-CC-PVTZ
    Blend: AUG-CC-PVTZ
  Basis Set: (AUG-CC-PVTZ AUX)
    Blend: AUG-CC-PVTZ-JKFIT

    Orbital Energies [Eh]
    ---------------------

    Doubly Occupied:

       1A    -15.541673     2A    -15.532749     3A    -11.246439
       4A    -11.243655     5A    -11.215523     6A    -11.207217
       7A     -1.191699     8A     -1.143338     9A     -1.032437
      10A     -0.944761    11A     -0.869255    12A     -0.752085
      13A     -0.676991    14A     -0.655738    15A     -0.632420
      16A     -0.593682    17A     -0.583634    18A     -0.549817
      19A     -0.530573    20A     -0.507314    21A     -0.491870
      22A     -0.468331    23A     -0.457215    24A     -0.396834
      25A     -0.389017

  @DF-RHF Final Energy:  -267.43582708017823

   => Energetics <=

    Nuclear Repulsion Energy =            264.6088246943373861
    One-Electron Energy =                -886.3807672987728665
    Two-Electron Energy =                 354.3361155242572522
    Total Energy =                       -267.4358270801782282
  Basis Set: (AUG-CC-PVTZ AUX)
    Blend: AUG-CC-PVTZ-RI
    Molecular point group: c1

    Geometry (in Angstrom), charge = 0, multiplicity = 1:

       Center              X                  Y                   Z               Mass
    ------------   -----------------  -----------------  -----------------  -----------------
         N            0.960841929174     1.595512503911    -0.274882434910    14.003074004430
         N           -2.037325070826    -0.571733496089     0.188638565090    14.003074004430
         C            0.034748329174     0.570883003911     0.471880465090    12.000000000000
         C            0.885263929174    -0.643900496089     0.700429565090    12.000000000000
         C           -1.136876070826     0.397587503911    -0.445336434910    12.000000000000
         C            1.360742929174    -1.377615496089    -0.551896434910    12.000000000000
         H           -0.271616070826     1.010824503911     1.395269565090     1.007825032230
         H            0.270544929174    -1.302359496089     1.324590565090     1.007825032230
         H            1.755005929174    -0.376509496089     1.315765565090     1.007825032230
         H           -1.682644070826     1.344837503911    -0.537014434910     1.007825032230
         H           -0.804189070826     0.125130503911    -1.457981434910     1.007825032230
         H            2.014688929174    -2.212891496089    -0.283989434910     1.007825032230
         H            0.522884929174    -1.789730496089    -1.122722434910     1.007825032230
         H            1.910808929174    -0.699423496089    -1.206922434910     1.007825032230
         H            1.760049929174     1.817804503911     0.319240565090     1.007825032230
         H            0.458050929174     2.474408503911    -0.403021434910     1.007825032230
         H           -1.662599070826    -1.511064496089     0.065681565090     1.007825032230
         H           -2.933925070826    -0.567338496089    -0.295207434910     1.007825032230

  Basis Set: AUG-CC-PVTZ
    Blend: AUG-CC-PVTZ
  Basis Set: (AUG-CC-PVTZ AUX)
    Blend: AUG-CC-PVTZ-JKFIT
	 Reference Energy          =    -267.4358270801782282 [Eh]
	 Singles Energy            =      -0.0000000000000000 [Eh]
	 Same-Spin Energy          =      -0.2839899339197309 [Eh]
	 Opposite-Spin Energy      =      -0.9921233728842361 [Eh]
	 Correlation Energy        =      -1.2761133068039670 [Eh]
	 Total Energy              =    -268.7119403869821781 [Eh]

	 ================> DF-SCS-MP2 Energies <==================
	-----------------------------------------------------------
	 SCS Same-Spin Scale       =       0.3333333333333333 [-]
	 SCS Opposite-Spin Scale   =       1.2000000000000000 [-]
	 SCS Same-Spin Energy      =      -0.0946633113065770 [Eh]
	 SCS Opposite-Spin Energy  =      -1.1905480474610832 [Eh]
	 SCS Correlation Energy    =      -1.2852113587676601 [Eh]
	 SCS Total Energy          =    -268.7210384389458682 [Eh]
	-----------------------------------------------------------

  Dipole Moment: [D]
     X:    -0.3697      Y:     0.0719      Z:    -0.0230     Total:     0.3773

*** Psi4 exiting successfully. Buy a developer a beer!
