                               Psi4 1.4a3.dev225

  ==> Input File <==

--------------------------------------------------------------------------
#psi4
#
memory 32 gb

molecule  {
0 1
  N        0.9404650     1.6044440    -0.2603840
  N       -2.0577020    -0.5628020     0.2031370
  C        0.0733550     0.6450740     0.4388170
  C        0.8648870    -0.6349690     0.7149280
  C       -1.1265645     0.4395548    -0.4524447
  C        1.3403660    -1.3686840    -0.5373980
  H       -0.2919930     1.0197560     1.4097680
  H        0.2501680    -1.2934280     1.3390890
  H        1.7346290    -0.3675780     1.3302640
  H       -1.7030210     1.3537690    -0.5225160
  H       -0.8245660     0.1340620    -1.4434830
  H        1.9943120    -2.2039600    -0.2694910
  H        0.5025080    -1.7807990    -1.1082240
  H        1.8904320    -0.6904920    -1.1924240
  H        1.7396730     1.8267360     0.3337390
  H        0.4376740     2.4833400    -0.3885230
  H       -1.6829760    -1.5021330     0.0801800
  H       -2.9543020    -0.5584070    -0.2807090
units angstrom
no_reorient  #important for SAPT in psi4, default
symmetry c1  #important for SAPT in psi4, default
}

set PROPERTIES_ORIGIN ["COM"]
properties('MP2/aug-cc-pvtz', properties = ['dipole'])
--------------------------------------------------------------------------

    Molecular point group: c1
  Charge       = 0
  Multiplicity = 1
  Basis Set: AUG-CC-PVTZ
    Blend: AUG-CC-PVTZ
  Basis Set: (AUG-CC-PVTZ AUX)
    Blend: AUG-CC-PVTZ-JKFIT

    Orbital Energies [Eh]
    ---------------------

    Doubly Occupied:

       1A    -15.539857     2A    -15.538203     3A    -11.245652
       4A    -11.241874     5A    -11.215170     6A    -11.206125
       7A     -1.194585     8A     -1.149240     9A     -1.029762
      10A     -0.942612    11A     -0.865869    12A     -0.752057
      13A     -0.669656    14A     -0.662866    15A     -0.639653
      16A     -0.588953    17A     -0.576473    18A     -0.555088
      19A     -0.529991    20A     -0.512180    21A     -0.492169
      22A     -0.467840    23A     -0.457747    24A     -0.394458
      25A     -0.390993

  @DF-RHF Final Energy:  -267.44277106429371

   => Energetics <=

    Nuclear Repulsion Energy =            264.5992271678888983
    One-Electron Energy =                -886.3658503623049683
    Two-Electron Energy =                 354.3238521301223614
    Total Energy =                       -267.4427710642937086
  Basis Set: (AUG-CC-PVTZ AUX)
    Blend: AUG-CC-PVTZ-RI
    Molecular point group: c1

    Geometry (in Angstrom), charge = 0, multiplicity = 1:

       Center              X                  Y                   Z               Mass
    ------------   -----------------  -----------------  -----------------  -----------------
         N            0.948627801945     1.582123821141    -0.265461064376    14.003074004430
         N           -2.049539198055    -0.585122178859     0.198059935624    14.003074004430
         C            0.081517801945     0.622753821141     0.433739935624    12.000000000000
         C            0.873049801945    -0.657289178859     0.709850935624    12.000000000000
         C           -1.118401698055     0.417234621141    -0.457521764376    12.000000000000
         C            1.348528801945    -1.391004178859    -0.542475064376    12.000000000000
         H           -0.283830198055     0.997435821141     1.404690935624     1.007825032230
         H            0.258330801945    -1.315748178859     1.334011935624     1.007825032230
         H            1.742791801945    -0.389898178859     1.325186935624     1.007825032230
         H           -1.694858198055     1.331448821141    -0.527593064376     1.007825032230
         H           -0.816403198055     0.111741821141    -1.448560064376     1.007825032230
         H            2.002474801945    -2.226280178859    -0.274568064376     1.007825032230
         H            0.510670801945    -1.803119178859    -1.113301064376     1.007825032230
         H            1.898594801945    -0.712812178859    -1.197501064376     1.007825032230
         H            1.747835801945     1.804415821141     0.328661935624     1.007825032230
         H            0.445836801945     2.461019821141    -0.393600064376     1.007825032230
         H           -1.674813198055    -1.524453178859     0.075102935624     1.007825032230
         H           -2.946139198055    -0.580727178859    -0.285786064376     1.007825032230

  Basis Set: AUG-CC-PVTZ
    Blend: AUG-CC-PVTZ
  Basis Set: (AUG-CC-PVTZ AUX)
    Blend: AUG-CC-PVTZ-JKFIT
	 Reference Energy          =    -267.4427710642937086 [Eh]
	 Singles Energy            =      -0.0000000000000000 [Eh]
	 Same-Spin Energy          =      -0.2836617633273797 [Eh]
	 Opposite-Spin Energy      =      -0.9913394360948666 [Eh]
	 Correlation Energy        =      -1.2750011994222463 [Eh]
	 Total Energy              =    -268.7177722637159718 [Eh]

	 ================> DF-SCS-MP2 Energies <==================
	-----------------------------------------------------------
	 SCS Same-Spin Scale       =       0.3333333333333333 [-]
	 SCS Opposite-Spin Scale   =       1.2000000000000000 [-]
	 SCS Same-Spin Energy      =      -0.0945539211091266 [Eh]
	 SCS Opposite-Spin Energy  =      -1.1896073233138400 [Eh]
	 SCS Correlation Energy    =      -1.2841612444229666 [Eh]
	 SCS Total Energy          =    -268.7269323087166981 [Eh]
	-----------------------------------------------------------

  Dipole Moment: [D]
     X:    -0.1345      Y:     0.3215      Z:    -0.1441     Total:     0.3772

*** Psi4 exiting successfully. Buy a developer a beer!
