                               Psi4 1.4a3.dev225

  ==> Input File <==

--------------------------------------------------------------------------
#psi4
#
memory 32 gb

molecule  {
0 1
  N        0.9404650     1.6044440    -0.2603840
  N       -2.0577020    -0.5628020     0.2031370
  C        0.0733550     0.6450740     0.4388170
  C        0.8902353    -0.6293788     0.7209932
  C       -1.1572530     0.4065190    -0.4308380
  C        1.3403660    -1.3686840    -0.5373980
  H       -0.2919930     1.0197560     1.4097680
  H        0.2501680    -1.2934280     1.3390890
  H        1.7346290    -0.3675780     1.3302640
  H       -1.7030210     1.3537690    -0.5225160
  H       -0.8245660     0.1340620    -1.4434830
  H        1.9943120    -2.2039600    -0.2694910
  H        0.5025080    -1.7807990    -1.1082240
  H        1.8904320    -0.6904920    -1.1924240
  H        1.7396730     1.8267360     0.3337390
  H        0.4376740     2.4833400    -0.3885230
  H       -1.6829760    -1.5021330     0.0801800
  H       -2.9543020    -0.5584070    -0.2807090
units angstrom
no_reorient  #important for SAPT in psi4, default
symmetry c1  #important for SAPT in psi4, default
}

set PROPERTIES_ORIGIN ["COM"]
properties('MP2/aug-cc-pvtz', properties = ['dipole'])
--------------------------------------------------------------------------

    Molecular point group: c1
  Charge       = 0
  Multiplicity = 1
  Basis Set: AUG-CC-PVTZ
    Blend: AUG-CC-PVTZ
  Basis Set: (AUG-CC-PVTZ AUX)
    Blend: AUG-CC-PVTZ-JKFIT

    Orbital Energies [Eh]
    ---------------------

    Doubly Occupied:

       1A    -15.541516     2A    -15.537937     3A    -11.245673
       4A    -11.242839     5A    -11.213873     6A    -11.205510
       7A     -1.196406     8A     -1.159095     9A     -1.028620
      10A     -0.938383    11A     -0.863152    12A     -0.750907
      13A     -0.671402    14A     -0.661202    15A     -0.642874
      16A     -0.591756    17A     -0.579741    18A     -0.552831
      19A     -0.531193    20A     -0.515385    21A     -0.489702
      22A     -0.470672    23A     -0.451698    24A     -0.393967
      25A     -0.388295

  @DF-RHF Final Energy:  -267.44440330528209

   => Energetics <=

    Nuclear Repulsion Energy =            264.5380690915810078
    One-Electron Energy =                -886.2356901712247463
    Two-Electron Energy =                 354.2532177743617012
    Total Energy =                       -267.4444033052820942
  Basis Set: (AUG-CC-PVTZ AUX)
    Blend: AUG-CC-PVTZ-RI
    Molecular point group: c1

    Geometry (in Angstrom), charge = 0, multiplicity = 1:

       Center              X                  Y                   Z               Mass
    ------------   -----------------  -----------------  -----------------  -----------------
         N            0.949355184066     1.585862152799    -0.269230220081    14.003074004430
         N           -2.048811815934    -0.581383847201     0.194290779919    14.003074004430
         C            0.082245184066     0.626492152799     0.429970779919    12.000000000000
         C            0.899125484066    -0.647960647201     0.712146979919    12.000000000000
         C           -1.148362815934     0.387937152799    -0.439684220081    12.000000000000
         C            1.349256184066    -1.387265847201    -0.546244220081    12.000000000000
         H           -0.283102815934     1.001174152799     1.400921779919     1.007825032230
         H            0.259058184066    -1.312009847201     1.330242779919     1.007825032230
         H            1.743519184066    -0.386159847201     1.321417779919     1.007825032230
         H           -1.694130815934     1.335187152799    -0.531362220081     1.007825032230
         H           -0.815675815934     0.115480152799    -1.452329220081     1.007825032230
         H            2.003202184066    -2.222541847201    -0.278337220081     1.007825032230
         H            0.511398184066    -1.799380847201    -1.117070220081     1.007825032230
         H            1.899322184066    -0.709073847201    -1.201270220081     1.007825032230
         H            1.748563184066     1.808154152799     0.324892779919     1.007825032230
         H            0.446564184066     2.464758152799    -0.397369220081     1.007825032230
         H           -1.674085815934    -1.520714847201     0.071333779919     1.007825032230
         H           -2.945411815934    -0.576988847201    -0.289555220081     1.007825032230

  Basis Set: AUG-CC-PVTZ
    Blend: AUG-CC-PVTZ
  Basis Set: (AUG-CC-PVTZ AUX)
    Blend: AUG-CC-PVTZ-JKFIT
	 Reference Energy          =    -267.4444033052820942 [Eh]
	 Singles Energy            =      -0.0000000000000000 [Eh]
	 Same-Spin Energy          =      -0.2836360239101402 [Eh]
	 Opposite-Spin Energy      =      -0.9909447251048840 [Eh]
	 Correlation Energy        =      -1.2745807490150241 [Eh]
	 Total Energy              =    -268.7189840542970956 [Eh]

	 ================> DF-SCS-MP2 Energies <==================
	-----------------------------------------------------------
	 SCS Same-Spin Scale       =       0.3333333333333333 [-]
	 SCS Opposite-Spin Scale   =       1.2000000000000000 [-]
	 SCS Same-Spin Energy      =      -0.0945453413033801 [Eh]
	 SCS Opposite-Spin Energy  =      -1.1891336701258608 [Eh]
	 SCS Correlation Energy    =      -1.2836790114292409 [Eh]
	 SCS Total Energy          =    -268.7280823167113226 [Eh]
	-----------------------------------------------------------

  Dipole Moment: [D]
     X:    -0.2161      Y:     0.2626      Z:    -0.1037     Total:     0.3556

*** Psi4 exiting successfully. Buy a developer a beer!
