                               Psi4 1.4a3.dev225

  ==> Input File <==

--------------------------------------------------------------------------
#psi4
#
memory 32 gb

molecule  {
0 1
  N        0.9404650     1.6044440    -0.2603840
  N       -2.0577020    -0.5628020     0.2031370
  C        0.0733550     0.6450740     0.4388170
  C        0.8648870    -0.6349690     0.7149280
  C       -1.0567120     0.3587532    -0.5453442
  C        1.3403660    -1.3686840    -0.5373980
  H       -0.2919930     1.0197560     1.4097680
  H        0.2501680    -1.2934280     1.3390890
  H        1.7346290    -0.3675780     1.3302640
  H       -1.7030210     1.3537690    -0.5225160
  H       -0.8245660     0.1340620    -1.4434830
  H        1.9943120    -2.2039600    -0.2694910
  H        0.5025080    -1.7807990    -1.1082240
  H        1.8904320    -0.6904920    -1.1924240
  H        1.7396730     1.8267360     0.3337390
  H        0.4376740     2.4833400    -0.3885230
  H       -1.6829760    -1.5021330     0.0801800
  H       -2.9543020    -0.5584070    -0.2807090
units angstrom
no_reorient  #important for SAPT in psi4, default
symmetry c1  #important for SAPT in psi4, default
}

set PROPERTIES_ORIGIN ["COM"]
properties('MP2/aug-cc-pvtz', properties = ['dipole'])
--------------------------------------------------------------------------

    Molecular point group: c1
  Charge       = 0
  Multiplicity = 1
  Basis Set: AUG-CC-PVTZ
    Blend: AUG-CC-PVTZ
  Basis Set: (AUG-CC-PVTZ AUX)
    Blend: AUG-CC-PVTZ-JKFIT

    Orbital Energies [Eh]
    ---------------------

    Doubly Occupied:

       1A    -15.542826     2A    -15.537588     3A    -11.248369
       4A    -11.243157     5A    -11.214016     6A    -11.207264
       7A     -1.193158     8A     -1.145087     9A     -1.030707
      10A     -0.941568    11A     -0.871185    12A     -0.759261
      13A     -0.671072    14A     -0.659618    15A     -0.637351
      16A     -0.595894    17A     -0.589346    18A     -0.558963
      19A     -0.511364    20A     -0.501082    21A     -0.493504
      22A     -0.467749    23A     -0.440650    24A     -0.408596
      25A     -0.392431

  @DF-RHF Final Energy:  -267.41209390208957

   => Energetics <=

    Nuclear Repulsion Energy =            264.6873564374043895
    One-Electron Energy =                -886.4752891946573072
    Two-Electron Energy =                 354.3758388551634084
    Total Energy =                       -267.4120939020895662
  Basis Set: (AUG-CC-PVTZ AUX)
    Blend: AUG-CC-PVTZ-RI
    Molecular point group: c1

    Geometry (in Angstrom), charge = 0, multiplicity = 1:

       Center              X                  Y                   Z               Mass
    ------------   -----------------  -----------------  -----------------  -----------------
         N            0.939113278227     1.593129708398    -0.252807336935    14.003074004430
         N           -2.059053721773    -0.574116291602     0.210713663065    14.003074004430
         C            0.072003278227     0.633759708398     0.446393663065    12.000000000000
         C            0.863535278227    -0.646283291602     0.722504663065    12.000000000000
         C           -1.058063721773     0.347438908398    -0.537767536935    12.000000000000
         C            1.339014278227    -1.379998291602    -0.529821336935    12.000000000000
         H           -0.293344721773     1.008441708398     1.417344663065     1.007825032230
         H            0.248816278227    -1.304742291602     1.346665663065     1.007825032230
         H            1.733277278227    -0.378892291602     1.337840663065     1.007825032230
         H           -1.704372721773     1.342454708398    -0.514939336935     1.007825032230
         H           -0.825917721773     0.122747708398    -1.435906336935     1.007825032230
         H            1.992960278227    -2.215274291602    -0.261914336935     1.007825032230
         H            0.501156278227    -1.792113291602    -1.100647336935     1.007825032230
         H            1.889080278227    -0.701806291602    -1.184847336935     1.007825032230
         H            1.738321278227     1.815421708398     0.341315663065     1.007825032230
         H            0.436322278227     2.472025708398    -0.380946336935     1.007825032230
         H           -1.684327721773    -1.513447291602     0.087756663065     1.007825032230
         H           -2.955653721773    -0.569721291602    -0.273132336935     1.007825032230

  Basis Set: AUG-CC-PVTZ
    Blend: AUG-CC-PVTZ
  Basis Set: (AUG-CC-PVTZ AUX)
    Blend: AUG-CC-PVTZ-JKFIT
	 Reference Energy          =    -267.4120939020895662 [Eh]
	 Singles Energy            =      -0.0000000000000000 [Eh]
	 Same-Spin Energy          =      -0.2842602291866209 [Eh]
	 Opposite-Spin Energy      =      -0.9935616457654701 [Eh]
	 Correlation Energy        =      -1.2778218749520911 [Eh]
	 Total Energy              =    -268.6899157770416764 [Eh]

	 ================> DF-SCS-MP2 Energies <==================
	-----------------------------------------------------------
	 SCS Same-Spin Scale       =       0.3333333333333333 [-]
	 SCS Opposite-Spin Scale   =       1.2000000000000000 [-]
	 SCS Same-Spin Energy      =      -0.0947534097288736 [Eh]
	 SCS Opposite-Spin Energy  =      -1.1922739749185640 [Eh]
	 SCS Correlation Energy    =      -1.2870273846474376 [Eh]
	 SCS Total Energy          =    -268.6991212867370109 [Eh]
	-----------------------------------------------------------

  Dipole Moment: [D]
     X:    -0.0702      Y:     0.2231      Z:    -0.1688     Total:     0.2884

*** Psi4 exiting successfully. Buy a developer a beer!
