                               Psi4 1.4a3.dev225

  ==> Input File <==

--------------------------------------------------------------------------
#psi4
#
memory 32 gb

molecule  {
0 1
  N        0.9404650     1.6044440    -0.2603840
  N       -2.0577020    -0.5628020     0.2031370
  C        0.0733550     0.6450740     0.4388170
  C        0.8648870    -0.6349690     0.7149280
  C       -1.1572530     0.4065190    -0.4308380
  C        1.3403660    -1.3686840    -0.5373980
  H       -0.2919930     1.0197560     1.4097680
  H        0.2501680    -1.2934280     1.3390890
  H        1.7346290    -0.3675780     1.3302640
  H       -1.7030210     1.3537690    -0.5225160
  H       -0.8245660     0.1340620    -1.4434830
  H        1.9943120    -2.2039600    -0.2694910
  H        0.5025080    -1.7807990    -1.1082240
  H        1.8904320    -0.6904920    -1.1924240
  H        1.7396730     1.8267360     0.3337390
  H        0.4376740     2.4833400    -0.3885230
  H       -1.7415070    -1.5179265     0.0430164
  H       -2.9543020    -0.5584070    -0.2807090
units angstrom
no_reorient  #important for SAPT in psi4, default
symmetry c1  #important for SAPT in psi4, default
}

set PROPERTIES_ORIGIN ["COM"]
properties('MP2/aug-cc-pvtz', properties = ['dipole'])
--------------------------------------------------------------------------

    Molecular point group: c1
  Charge       = 0
  Multiplicity = 1
  Basis Set: AUG-CC-PVTZ
    Blend: AUG-CC-PVTZ
  Basis Set: (AUG-CC-PVTZ AUX)
    Blend: AUG-CC-PVTZ-JKFIT

    Orbital Energies [Eh]
    ---------------------

    Doubly Occupied:

       1A    -15.542118     2A    -15.538220     3A    -11.245214
       4A    -11.243205     5A    -11.213633     6A    -11.205090
       7A     -1.196900     8A     -1.159772     9A     -1.028967
      10A     -0.939599    11A     -0.863272    12A     -0.750055
      13A     -0.668020    14A     -0.661609    15A     -0.643556
      16A     -0.587329    17A     -0.582096    18A     -0.553187
      19A     -0.531408    20A     -0.513958    21A     -0.491252
      22A     -0.467774    23A     -0.452741    24A     -0.395748
      25A     -0.388899

  @DF-RHF Final Energy:  -267.44458789578334

   => Energetics <=

    Nuclear Repulsion Energy =            264.6220157479070849
    One-Electron Energy =                -886.4059635614277113
    Two-Electron Energy =                 354.3393599177372835
    Total Energy =                       -267.4445878957833429
  Basis Set: (AUG-CC-PVTZ AUX)
    Blend: AUG-CC-PVTZ-RI
    Molecular point group: c1

    Geometry (in Angstrom), charge = 0, multiplicity = 1:

       Center              X                  Y                   Z               Mass
    ------------   -----------------  -----------------  -----------------  -----------------
         N            0.953477413435     1.586804257669    -0.267978951684    14.003074004430
         N           -2.044689586565    -0.580441742331     0.195542048316    14.003074004430
         C            0.086367413435     0.627434257669     0.431222048316    12.000000000000
         C            0.877899413435    -0.652608742331     0.707333048316    12.000000000000
         C           -1.144240586565     0.388879257669    -0.438432951684    12.000000000000
         C            1.353378413435    -1.386323742331    -0.544992951684    12.000000000000
         H           -0.278980586565     1.002116257669     1.402173048316     1.007825032230
         H            0.263180413435    -1.311067742331     1.331494048316     1.007825032230
         H            1.747641413435    -0.385217742331     1.322669048316     1.007825032230
         H           -1.690008586565     1.336129257669    -0.530110951684     1.007825032230
         H           -0.811553586565     0.116422257669    -1.451077951684     1.007825032230
         H            2.007324413435    -2.221599742331    -0.277085951684     1.007825032230
         H            0.515520413435    -1.798438742331    -1.115818951684     1.007825032230
         H            1.903444413435    -0.708131742331    -1.200018951684     1.007825032230
         H            1.752685413435     1.809096257669     0.326144048316     1.007825032230
         H            0.450686413435     2.465700257669    -0.396117951684     1.007825032230
         H           -1.728494586565    -1.535566242331     0.035421448316     1.007825032230
         H           -2.941289586565    -0.576046742331    -0.288303951684     1.007825032230

  Basis Set: AUG-CC-PVTZ
    Blend: AUG-CC-PVTZ
  Basis Set: (AUG-CC-PVTZ AUX)
    Blend: AUG-CC-PVTZ-JKFIT
	 Reference Energy          =    -267.4445878957833429 [Eh]
	 Singles Energy            =      -0.0000000000000000 [Eh]
	 Same-Spin Energy          =      -0.2836742821055324 [Eh]
	 Opposite-Spin Energy      =      -0.9909928423997988 [Eh]
	 Correlation Energy        =      -1.2746671245053312 [Eh]
	 Total Energy              =    -268.7192550202886991 [Eh]

	 ================> DF-SCS-MP2 Energies <==================
	-----------------------------------------------------------
	 SCS Same-Spin Scale       =       0.3333333333333333 [-]
	 SCS Opposite-Spin Scale   =       1.2000000000000000 [-]
	 SCS Same-Spin Energy      =      -0.0945580940351775 [Eh]
	 SCS Opposite-Spin Energy  =      -1.1891914108797585 [Eh]
	 SCS Correlation Energy    =      -1.2837495049149361 [Eh]
	 SCS Total Energy          =    -268.7283374006982513 [Eh]
	-----------------------------------------------------------

  Dipole Moment: [D]
     X:    -0.2730      Y:     0.2523      Z:    -0.1443     Total:     0.3987

*** Psi4 exiting successfully. Buy a developer a beer!
