                               Psi4 1.4a3.dev225

  ==> Input File <==

--------------------------------------------------------------------------
#psi4
#
memory 32 gb

molecule  {
0 1
  N        0.9404650     1.6044440    -0.2603840
  N       -2.0577020    -0.5628020     0.2031370
  C        0.0733550     0.6450740     0.4388170
  C        0.8648870    -0.6349690     0.7149280
  C       -1.1733853     0.4033917    -0.4422385
  C        1.3403660    -1.3686840    -0.5373980
  H       -0.2919930     1.0197560     1.4097680
  H        0.2501680    -1.2934280     1.3390890
  H        1.7346290    -0.3675780     1.3302640
  H       -1.7030210     1.3537690    -0.5225160
  H       -0.8245660     0.1340620    -1.4434830
  H        1.9943120    -2.2039600    -0.2694910
  H        0.5025080    -1.7807990    -1.1082240
  H        1.8904320    -0.6904920    -1.1924240
  H        1.7396730     1.8267360     0.3337390
  H        0.4376740     2.4833400    -0.3885230
  H       -1.6829760    -1.5021330     0.0801800
  H       -2.9543020    -0.5584070    -0.2807090
units angstrom
no_reorient  #important for SAPT in psi4, default
symmetry c1  #important for SAPT in psi4, default
}

set PROPERTIES_ORIGIN ["COM"]
properties('MP2/aug-cc-pvtz', properties = ['dipole'])
--------------------------------------------------------------------------

    Molecular point group: c1
  Charge       = 0
  Multiplicity = 1
  Basis Set: AUG-CC-PVTZ
    Blend: AUG-CC-PVTZ
  Basis Set: (AUG-CC-PVTZ AUX)
    Blend: AUG-CC-PVTZ-JKFIT

    Orbital Energies [Eh]
    ---------------------

    Doubly Occupied:

       1A    -15.541921     2A    -15.537945     3A    -11.245760
       4A    -11.241875     5A    -11.214101     6A    -11.205487
       7A     -1.196490     8A     -1.160449     9A     -1.028831
      10A     -0.935997    11A     -0.863554    12A     -0.749980
      13A     -0.672289    14A     -0.661693    15A     -0.642373
      16A     -0.589551    17A     -0.581763    18A     -0.553545
      19A     -0.533365    20A     -0.512820    21A     -0.491651
      22A     -0.467558    23A     -0.452158    24A     -0.394407
      25A     -0.387725

  @DF-RHF Final Energy:  -267.44478746433037

   => Energetics <=

    Nuclear Repulsion Energy =            264.5115689453014056
    One-Electron Energy =                -886.1861351675654532
    Two-Electron Energy =                 354.2297787579336728
    Total Energy =                       -267.4447874643303749
  Basis Set: (AUG-CC-PVTZ AUX)
    Blend: AUG-CC-PVTZ-RI
    Molecular point group: c1

    Geometry (in Angstrom), charge = 0, multiplicity = 1:

       Center              X                  Y                   Z               Mass
    ------------   -----------------  -----------------  -----------------  -----------------
         N            0.955005205934     1.587049552828    -0.266851238414    14.003074004430
         N           -2.043161794066    -0.580196447172     0.196669761586    14.003074004430
         C            0.087895205934     0.627679552828     0.432349761586    12.000000000000
         C            0.879427205934    -0.652363447172     0.708460761586    12.000000000000
         C           -1.158845094066     0.385997252828    -0.448705738414    12.000000000000
         C            1.354906205934    -1.386078447172    -0.543865238414    12.000000000000
         H           -0.277452794066     1.002361552828     1.403300761586     1.007825032230
         H            0.264708205934    -1.310822447172     1.332621761586     1.007825032230
         H            1.749169205934    -0.384972447172     1.323796761586     1.007825032230
         H           -1.688480794066     1.336374552828    -0.528983238414     1.007825032230
         H           -0.810025794066     0.116667552828    -1.449950238414     1.007825032230
         H            2.008852205934    -2.221354447172    -0.275958238414     1.007825032230
         H            0.517048205934    -1.798193447172    -1.114691238414     1.007825032230
         H            1.904972205934    -0.707886447172    -1.198891238414     1.007825032230
         H            1.754213205934     1.809341552828     0.327271761586     1.007825032230
         H            0.452214205934     2.465945552828    -0.394990238414     1.007825032230
         H           -1.668435794066    -1.519527447172     0.073712761586     1.007825032230
         H           -2.939761794066    -0.575801447172    -0.287176238414     1.007825032230

  Basis Set: AUG-CC-PVTZ
    Blend: AUG-CC-PVTZ
  Basis Set: (AUG-CC-PVTZ AUX)
    Blend: AUG-CC-PVTZ-JKFIT
	 Reference Energy          =    -267.4447874643303749 [Eh]
	 Singles Energy            =      -0.0000000000000000 [Eh]
	 Same-Spin Energy          =      -0.2836417809103812 [Eh]
	 Opposite-Spin Energy      =      -0.9909227902645611 [Eh]
	 Correlation Energy        =      -1.2745645711749423 [Eh]
	 Total Energy              =    -268.7193520355053238 [Eh]

	 ================> DF-SCS-MP2 Energies <==================
	-----------------------------------------------------------
	 SCS Same-Spin Scale       =       0.3333333333333333 [-]
	 SCS Opposite-Spin Scale   =       1.2000000000000000 [-]
	 SCS Same-Spin Energy      =      -0.0945472603034604 [Eh]
	 SCS Opposite-Spin Energy  =      -1.1891073483174732 [Eh]
	 SCS Correlation Energy    =      -1.2836546086209337 [Eh]
	 SCS Total Energy          =    -268.7284420729512817 [Eh]
	-----------------------------------------------------------

  Dipole Moment: [D]
     X:    -0.2464      Y:     0.2443      Z:    -0.1053     Total:     0.3626

*** Psi4 exiting successfully. Buy a developer a beer!
