                               Psi4 1.4a3.dev225

  ==> Input File <==

--------------------------------------------------------------------------
#psi4
#
memory 32 gb

molecule  {
0 1
  N        0.9404650     1.6044440    -0.2603840
  N       -2.0577020    -0.5628020     0.2031370
  C        0.0733550     0.6450740     0.4388170
  C        0.8544648    -0.6290723     0.7669769
  C       -1.1572530     0.4065190    -0.4308380
  C        1.3403660    -1.3686840    -0.5373980
  H       -0.2919930     1.0197560     1.4097680
  H        0.2501680    -1.2934280     1.3390890
  H        1.7346290    -0.3675780     1.3302640
  H       -1.7030210     1.3537690    -0.5225160
  H       -0.8245660     0.1340620    -1.4434830
  H        1.9943120    -2.2039600    -0.2694910
  H        0.5025080    -1.7807990    -1.1082240
  H        1.8904320    -0.6904920    -1.1924240
  H        1.7396730     1.8267360     0.3337390
  H        0.4376740     2.4833400    -0.3885230
  H       -1.6829760    -1.5021330     0.0801800
  H       -2.9543020    -0.5584070    -0.2807090
units angstrom
no_reorient  #important for SAPT in psi4, default
symmetry c1  #important for SAPT in psi4, default
}

set PROPERTIES_ORIGIN ["COM"]
properties('MP2/aug-cc-pvtz', properties = ['dipole'])
--------------------------------------------------------------------------

    Molecular point group: c1
  Charge       = 0
  Multiplicity = 1
  Basis Set: AUG-CC-PVTZ
    Blend: AUG-CC-PVTZ
  Basis Set: (AUG-CC-PVTZ AUX)
    Blend: AUG-CC-PVTZ-JKFIT

    Orbital Energies [Eh]
    ---------------------

    Doubly Occupied:

       1A    -15.541737     2A    -15.538760     3A    -11.245236
       4A    -11.242735     5A    -11.212649     6A    -11.206641
       7A     -1.196539     8A     -1.159214     9A     -1.024231
      10A     -0.936310    11A     -0.865508    12A     -0.753190
      13A     -0.671778    14A     -0.662177    15A     -0.643268
      16A     -0.590758    17A     -0.577970    18A     -0.553453
      19A     -0.529803    20A     -0.515234    21A     -0.488119
      22A     -0.470282    23A     -0.456262    24A     -0.394169
      25A     -0.386627

  @DF-RHF Final Energy:  -267.44299996317199

   => Energetics <=

    Nuclear Repulsion Energy =            264.2956217268686601
    One-Electron Energy =                -885.7519443158363401
    Two-Electron Energy =                 354.0133226257956380
    Total Energy =                       -267.4429999631719852
  Basis Set: (AUG-CC-PVTZ AUX)
    Blend: AUG-CC-PVTZ-RI
    Molecular point group: c1

    Geometry (in Angstrom), charge = 0, multiplicity = 1:

       Center              X                  Y                   Z               Mass
    ------------   -----------------  -----------------  -----------------  -----------------
         N            0.954227440186     1.585820404808    -0.275493603701    14.003074004430
         N           -2.043939559814    -0.581425595192     0.188027396299    14.003074004430
         C            0.087117440186     0.626450404808     0.423707396299    12.000000000000
         C            0.868227240186    -0.647695895192     0.751867296299    12.000000000000
         C           -1.143490559814     0.387895404808    -0.445947603701    12.000000000000
         C            1.354128440186    -1.387307595192    -0.552507603701    12.000000000000
         H           -0.278230559814     1.001132404808     1.394658396299     1.007825032230
         H            0.263930440186    -1.312051595192     1.323979396299     1.007825032230
         H            1.748391440186    -0.386201595192     1.315154396299     1.007825032230
         H           -1.689258559814     1.335145404808    -0.537625603701     1.007825032230
         H           -0.810803559814     0.115438404808    -1.458592603701     1.007825032230
         H            2.008074440186    -2.222583595192    -0.284600603701     1.007825032230
         H            0.516270440186    -1.799422595192    -1.123333603701     1.007825032230
         H            1.904194440186    -0.709115595192    -1.207533603701     1.007825032230
         H            1.753435440186     1.808112404808     0.318629396299     1.007825032230
         H            0.451436440186     2.464716404808    -0.403632603701     1.007825032230
         H           -1.669213559814    -1.520756595192     0.065070396299     1.007825032230
         H           -2.940539559814    -0.577030595192    -0.295818603701     1.007825032230

  Basis Set: AUG-CC-PVTZ
    Blend: AUG-CC-PVTZ
  Basis Set: (AUG-CC-PVTZ AUX)
    Blend: AUG-CC-PVTZ-JKFIT
	 Reference Energy          =    -267.4429999631719852 [Eh]
	 Singles Energy            =      -0.0000000000000000 [Eh]
	 Same-Spin Energy          =      -0.2834259856580138 [Eh]
	 Opposite-Spin Energy      =      -0.9907878477564552 [Eh]
	 Correlation Energy        =      -1.2742138334144690 [Eh]
	 Total Energy              =    -268.7172137965864636 [Eh]

	 ================> DF-SCS-MP2 Energies <==================
	-----------------------------------------------------------
	 SCS Same-Spin Scale       =       0.3333333333333333 [-]
	 SCS Opposite-Spin Scale   =       1.2000000000000000 [-]
	 SCS Same-Spin Energy      =      -0.0944753285526713 [Eh]
	 SCS Opposite-Spin Energy  =      -1.1889454173077463 [Eh]
	 SCS Correlation Energy    =      -1.2834207458604174 [Eh]
	 SCS Total Energy          =    -268.7264207090324248 [Eh]
	-----------------------------------------------------------

  Dipole Moment: [D]
     X:    -0.2298      Y:     0.2722      Z:    -0.0805     Total:     0.3653

*** Psi4 exiting successfully. Buy a developer a beer!
