                               Psi4 1.4a3.dev225

  ==> Input File <==

--------------------------------------------------------------------------
#psi4
#
memory 32 gb

molecule  {
0 1
  N        0.9404650     1.6044440    -0.2603840
  N       -2.0577020    -0.5628020     0.2031370
  C        0.0733550     0.6450740     0.4388170
  C        0.8648870    -0.6349690     0.7149280
  C       -1.1572530     0.4065190    -0.4308380
  C        1.3403660    -1.3686840    -0.5373980
  H       -0.2919930     1.0197560     1.4097680
  H        0.2501680    -1.2934280     1.3390890
  H        1.7346290    -0.3675780     1.3302640
  H       -1.6930714     1.3365002    -0.5208447
  H       -0.8245660     0.1340620    -1.4434830
  H        1.9943120    -2.2039600    -0.2694910
  H        0.5025080    -1.7807990    -1.1082240
  H        1.8904320    -0.6904920    -1.1924240
  H        1.7396730     1.8267360     0.3337390
  H        0.4376740     2.4833400    -0.3885230
  H       -1.6829760    -1.5021330     0.0801800
  H       -2.9543020    -0.5584070    -0.2807090
units angstrom
no_reorient  #important for SAPT in psi4, default
symmetry c1  #important for SAPT in psi4, default
}

set PROPERTIES_ORIGIN ["COM"]
properties('MP2/aug-cc-pvtz', properties = ['dipole'])
--------------------------------------------------------------------------

    Molecular point group: c1
  Charge       = 0
  Multiplicity = 1
  Basis Set: AUG-CC-PVTZ
    Blend: AUG-CC-PVTZ
  Basis Set: (AUG-CC-PVTZ AUX)
    Blend: AUG-CC-PVTZ-JKFIT

    Orbital Energies [Eh]
    ---------------------

    Doubly Occupied:

       1A    -15.541323     2A    -15.538334     3A    -11.245205
       4A    -11.239943     5A    -11.214189     6A    -11.205464
       7A     -1.196974     8A     -1.159137     9A     -1.029250
      10A     -0.939471    11A     -0.864118    12A     -0.750670
      13A     -0.672335    14A     -0.662266    15A     -0.642945
      16A     -0.589556    17A     -0.580303    18A     -0.553310
      19A     -0.532644    20A     -0.515082    21A     -0.491680
      22A     -0.468121    23A     -0.453765    24A     -0.393856
      25A     -0.388673

  @DF-RHF Final Energy:  -267.44511667014319

   => Energetics <=

    Nuclear Repulsion Energy =            264.8249348999719928
    One-Electron Energy =                -886.8028773067245538
    Two-Electron Energy =                 354.5328257366094249
    Total Energy =                       -267.4451166701431930
  Basis Set: (AUG-CC-PVTZ AUX)
    Blend: AUG-CC-PVTZ-RI
    Molecular point group: c1

    Geometry (in Angstrom), charge = 0, multiplicity = 1:

       Center              X                  Y                   Z               Mass
    ------------   -----------------  -----------------  -----------------  -----------------
         N            0.952694026091     1.586821134439    -0.268423205518    14.003074004430
         N           -2.045472973909    -0.580424865561     0.195097794482    14.003074004430
         C            0.085584026091     0.627451134439     0.430777794482    12.000000000000
         C            0.877116026091    -0.652591865561     0.706888794482    12.000000000000
         C           -1.145023973909     0.388896134439    -0.438877205518    12.000000000000
         C            1.352595026091    -1.386306865561    -0.545437205518    12.000000000000
         H           -0.279763973909     1.002133134439     1.401728794482     1.007825032230
         H            0.262397026091    -1.311050865561     1.331049794482     1.007825032230
         H            1.746858026091    -0.385200865561     1.322224794482     1.007825032230
         H           -1.680842373909     1.318877334439    -0.528883905518     1.007825032230
         H           -0.812336973909     0.116439134439    -1.451522205518     1.007825032230
         H            2.006541026091    -2.221582865561    -0.277530205518     1.007825032230
         H            0.514737026091    -1.798421865561    -1.116263205518     1.007825032230
         H            1.902661026091    -0.708114865561    -1.200463205518     1.007825032230
         H            1.751902026091     1.809113134439     0.325699794482     1.007825032230
         H            0.449903026091     2.465717134439    -0.396562205518     1.007825032230
         H           -1.670746973909    -1.519755865561     0.072140794482     1.007825032230
         H           -2.942072973909    -0.576029865561    -0.288748205518     1.007825032230

  Basis Set: AUG-CC-PVTZ
    Blend: AUG-CC-PVTZ
  Basis Set: (AUG-CC-PVTZ AUX)
    Blend: AUG-CC-PVTZ-JKFIT
	 Reference Energy          =    -267.4451166701431930 [Eh]
	 Singles Energy            =      -0.0000000000000000 [Eh]
	 Same-Spin Energy          =      -0.2836970593881269 [Eh]
	 Opposite-Spin Energy      =      -0.9908554481519137 [Eh]
	 Correlation Energy        =      -1.2745525075400406 [Eh]
	 Total Energy              =    -268.7196691776832154 [Eh]

	 ================> DF-SCS-MP2 Energies <==================
	-----------------------------------------------------------
	 SCS Same-Spin Scale       =       0.3333333333333333 [-]
	 SCS Opposite-Spin Scale   =       1.2000000000000000 [-]
	 SCS Same-Spin Energy      =      -0.0945656864627090 [Eh]
	 SCS Opposite-Spin Energy  =      -1.1890265377822964 [Eh]
	 SCS Correlation Energy    =      -1.2835922242450053 [Eh]
	 SCS Total Energy          =    -268.7287088943882054 [Eh]
	-----------------------------------------------------------

  Dipole Moment: [D]
     X:    -0.2308      Y:     0.2710      Z:    -0.1087     Total:     0.3721

*** Psi4 exiting successfully. Buy a developer a beer!
