                               Psi4 1.4a3.dev225

  ==> Input File <==

--------------------------------------------------------------------------
#psi4
#
memory 32 gb

molecule  {
0 1
  N        0.9404650     1.6044440    -0.2603840
  N       -2.0577020    -0.5628020     0.2031370
  C        0.0800182     0.6194472     0.4360102
  C        0.8648870    -0.6349690     0.7149280
  C       -1.1572530     0.4065190    -0.4308380
  C        1.3403660    -1.3686840    -0.5373980
  H       -0.2919930     1.0197560     1.4097680
  H        0.2501680    -1.2934280     1.3390890
  H        1.7346290    -0.3675780     1.3302640
  H       -1.7030210     1.3537690    -0.5225160
  H       -0.8245660     0.1340620    -1.4434830
  H        1.9943120    -2.2039600    -0.2694910
  H        0.5025080    -1.7807990    -1.1082240
  H        1.8904320    -0.6904920    -1.1924240
  H        1.7396730     1.8267360     0.3337390
  H        0.4376740     2.4833400    -0.3885230
  H       -1.6829760    -1.5021330     0.0801800
  H       -2.9543020    -0.5584070    -0.2807090
units angstrom
no_reorient  #important for SAPT in psi4, default
symmetry c1  #important for SAPT in psi4, default
}

set PROPERTIES_ORIGIN ["COM"]
properties('MP2/aug-cc-pvtz', properties = ['dipole'])
--------------------------------------------------------------------------

    Molecular point group: c1
  Charge       = 0
  Multiplicity = 1
  Basis Set: AUG-CC-PVTZ
    Blend: AUG-CC-PVTZ
  Basis Set: (AUG-CC-PVTZ AUX)
    Blend: AUG-CC-PVTZ-JKFIT

    Orbital Energies [Eh]
    ---------------------

    Doubly Occupied:

       1A    -15.541577     2A    -15.537351     3A    -11.246285
       4A    -11.242909     5A    -11.214267     6A    -11.205980
       7A     -1.195691     8A     -1.157589     9A     -1.032549
      10A     -0.938505    11A     -0.865899    12A     -0.748577
      13A     -0.672044    14A     -0.662065    15A     -0.640898
      16A     -0.591701    17A     -0.580383    18A     -0.552699
      19A     -0.530456    20A     -0.514832    21A     -0.490962
      22A     -0.467451    23A     -0.459951    24A     -0.393348
      25A     -0.386444

  @DF-RHF Final Energy:  -267.44419012370309

   => Energetics <=

    Nuclear Repulsion Energy =            264.9003610630493313
    One-Electron Energy =                -886.9482798314199954
    Two-Electron Energy =                 354.6037286446675694
    Total Energy =                       -267.4441901237030947
  Basis Set: (AUG-CC-PVTZ AUX)
    Blend: AUG-CC-PVTZ-RI
    Molecular point group: c1

    Geometry (in Angstrom), charge = 0, multiplicity = 1:

       Center              X                  Y                   Z               Mass
    ------------   -----------------  -----------------  -----------------  -----------------
         N            0.951900258717     1.590114182245    -0.268021775796    14.003074004430
         N           -2.046266741283    -0.577131817755     0.195499224204    14.003074004430
         C            0.091453458717     0.605117382245     0.428372424204    12.000000000000
         C            0.876322258717    -0.649298817755     0.707290224204    12.000000000000
         C           -1.145817741283     0.392189182245    -0.438475775796    12.000000000000
         C            1.351801258717    -1.383013817755    -0.545035775796    12.000000000000
         H           -0.280557741283     1.005426182245     1.402130224204     1.007825032230
         H            0.261603258717    -1.307757817755     1.331451224204     1.007825032230
         H            1.746064258717    -0.381907817755     1.322626224204     1.007825032230
         H           -1.691585741283     1.339439182245    -0.530153775796     1.007825032230
         H           -0.813130741283     0.119732182245    -1.451120775796     1.007825032230
         H            2.005747258717    -2.218289817755    -0.277128775796     1.007825032230
         H            0.513943258717    -1.795128817755    -1.115861775796     1.007825032230
         H            1.901867258717    -0.704821817755    -1.200061775796     1.007825032230
         H            1.751108258717     1.812406182245     0.326101224204     1.007825032230
         H            0.449109258717     2.469010182245    -0.396160775796     1.007825032230
         H           -1.671540741283    -1.516462817755     0.072542224204     1.007825032230
         H           -2.942866741283    -0.572736817755    -0.288346775796     1.007825032230

  Basis Set: AUG-CC-PVTZ
    Blend: AUG-CC-PVTZ
  Basis Set: (AUG-CC-PVTZ AUX)
    Blend: AUG-CC-PVTZ-JKFIT
	 Reference Energy          =    -267.4441901237030947 [Eh]
	 Singles Energy            =      -0.0000000000000000 [Eh]
	 Same-Spin Energy          =      -0.2837995035332792 [Eh]
	 Opposite-Spin Energy      =      -0.9911295102610198 [Eh]
	 Correlation Energy        =      -1.2749290137942990 [Eh]
	 Total Energy              =    -268.7191191374973869 [Eh]

	 ================> DF-SCS-MP2 Energies <==================
	-----------------------------------------------------------
	 SCS Same-Spin Scale       =       0.3333333333333333 [-]
	 SCS Opposite-Spin Scale   =       1.2000000000000000 [-]
	 SCS Same-Spin Energy      =      -0.0945998345110931 [Eh]
	 SCS Opposite-Spin Energy  =      -1.1893554123132237 [Eh]
	 SCS Correlation Energy    =      -1.2839552468243167 [Eh]
	 SCS Total Energy          =    -268.7281453705273861 [Eh]
	-----------------------------------------------------------

  Dipole Moment: [D]
     X:    -0.2327      Y:     0.2089      Z:    -0.0994     Total:     0.3281

*** Psi4 exiting successfully. Buy a developer a beer!
