                               Psi4 1.4a3.dev225

  ==> Input File <==

--------------------------------------------------------------------------
#psi4
#
memory 32 gb

molecule  {
0 1
  N        0.9404650     1.6044440    -0.2603840
  N       -2.0577020    -0.5628020     0.2031370
  C        0.0733550     0.6450740     0.4388170
  C        0.8648870    -0.6349690     0.7149280
  C       -1.0765917     0.4221553    -0.3738357
  C        1.3403660    -1.3686840    -0.5373980
  H       -0.2919930     1.0197560     1.4097680
  H        0.2501680    -1.2934280     1.3390890
  H        1.7346290    -0.3675780     1.3302640
  H       -1.7030210     1.3537690    -0.5225160
  H       -0.8245660     0.1340620    -1.4434830
  H        1.9943120    -2.2039600    -0.2694910
  H        0.5025080    -1.7807990    -1.1082240
  H        1.8904320    -0.6904920    -1.1924240
  H        1.7396730     1.8267360     0.3337390
  H        0.4376740     2.4833400    -0.3885230
  H       -1.6829760    -1.5021330     0.0801800
  H       -2.9543020    -0.5584070    -0.2807090
units angstrom
no_reorient  #important for SAPT in psi4, default
symmetry c1  #important for SAPT in psi4, default
}

set PROPERTIES_ORIGIN ["COM"]
properties('MP2/aug-cc-pvtz', properties = ['dipole'])
--------------------------------------------------------------------------

    Molecular point group: c1
  Charge       = 0
  Multiplicity = 1
  Basis Set: AUG-CC-PVTZ
    Blend: AUG-CC-PVTZ
  Basis Set: (AUG-CC-PVTZ AUX)
    Blend: AUG-CC-PVTZ-JKFIT

    Orbital Energies [Eh]
    ---------------------

    Doubly Occupied:

       1A    -15.540432     2A    -15.540146     3A    -11.247310
       4A    -11.242686     5A    -11.216007     6A    -11.206209
       7A     -1.201917     8A     -1.151449     9A     -1.032918
      10A     -0.954326    11A     -0.862077    12A     -0.749250
      13A     -0.669343    14A     -0.666272    15A     -0.646883
      16A     -0.590344    17A     -0.574342    18A     -0.553169
      19A     -0.527329    20A     -0.518641    21A     -0.492040
      22A     -0.473709    23A     -0.451731    24A     -0.393536
      25A     -0.388227

  @DF-RHF Final Energy:  -267.43328028460149

   => Energetics <=

    Nuclear Repulsion Energy =            265.8479708569755076
    One-Electron Energy =                -888.7819177108106032
    Two-Electron Energy =                 355.5006665692336014
    Total Energy =                       -267.4332802846014943
  Basis Set: (AUG-CC-PVTZ AUX)
    Blend: AUG-CC-PVTZ-RI
    Molecular point group: c1

    Geometry (in Angstrom), charge = 0, multiplicity = 1:

       Center              X                  Y                   Z               Mass
    ------------   -----------------  -----------------  -----------------  -----------------
         N            0.941821067886     1.584493785787    -0.276168300265    14.003074004430
         N           -2.056345932114    -0.582752214213     0.187352699735    14.003074004430
         C            0.074711067886     0.625123785787     0.423032699735    12.000000000000
         C            0.866243067886    -0.654919214213     0.699143699735    12.000000000000
         C           -1.075235632114     0.402205085787    -0.389620000265    12.000000000000
         C            1.341722067886    -1.388634214213    -0.553182300265    12.000000000000
         H           -0.290636932114     0.999805785787     1.393983699735     1.007825032230
         H            0.251524067886    -1.313378214213     1.323304699735     1.007825032230
         H            1.735985067886    -0.387528214213     1.314479699735     1.007825032230
         H           -1.701664932114     1.333818785787    -0.538300300265     1.007825032230
         H           -0.823209932114     0.114111785787    -1.459267300265     1.007825032230
         H            1.995668067886    -2.223910214213    -0.285275300265     1.007825032230
         H            0.503864067886    -1.800749214213    -1.124008300265     1.007825032230
         H            1.891788067886    -0.710442214213    -1.208208300265     1.007825032230
         H            1.741029067886     1.806785785787     0.317954699735     1.007825032230
         H            0.439030067886     2.463389785787    -0.404307300265     1.007825032230
         H           -1.681619932114    -1.522083214213     0.064395699735     1.007825032230
         H           -2.952945932114    -0.578357214213    -0.296493300265     1.007825032230

  Basis Set: AUG-CC-PVTZ
    Blend: AUG-CC-PVTZ
  Basis Set: (AUG-CC-PVTZ AUX)
    Blend: AUG-CC-PVTZ-JKFIT
	 Reference Energy          =    -267.4332802846014943 [Eh]
	 Singles Energy            =      -0.0000000000000000 [Eh]
	 Same-Spin Energy          =      -0.2846002543223771 [Eh]
	 Opposite-Spin Energy      =      -0.9922897551070369 [Eh]
	 Correlation Energy        =      -1.2768900094294140 [Eh]
	 Total Energy              =    -268.7101702940308883 [Eh]

	 ================> DF-SCS-MP2 Energies <==================
	-----------------------------------------------------------
	 SCS Same-Spin Scale       =       0.3333333333333333 [-]
	 SCS Opposite-Spin Scale   =       1.2000000000000000 [-]
	 SCS Same-Spin Energy      =      -0.0948667514407924 [Eh]
	 SCS Opposite-Spin Energy  =      -1.1907477061284442 [Eh]
	 SCS Correlation Energy    =      -1.2856144575692365 [Eh]
	 SCS Total Energy          =    -268.7188947421707326 [Eh]
	-----------------------------------------------------------

  Dipole Moment: [D]
     X:    -0.0958      Y:     0.3159      Z:    -0.0892     Total:     0.3420

*** Psi4 exiting successfully. Buy a developer a beer!
