                               Psi4 1.4a3.dev225

  ==> Input File <==

--------------------------------------------------------------------------
#psi4
#
memory 32 gb

molecule  {
0 1
  N        0.9404650     1.6044440    -0.2603840
  N       -2.0577020    -0.5628020     0.2031370
  C        0.0733550     0.6450740     0.4388170
  C        0.8648870    -0.6349690     0.7149280
  C       -1.1572530     0.4065190    -0.4308380
  C        1.3403660    -1.3686840    -0.5373980
  H       -0.2919930     1.0197560     1.4097680
  H        0.2501680    -1.2934280     1.3390890
  H        1.7346290    -0.3675780     1.3302640
  H       -1.7278950     1.3969410    -0.5266943
  H       -0.8245660     0.1340620    -1.4434830
  H        1.9943120    -2.2039600    -0.2694910
  H        0.5025080    -1.7807990    -1.1082240
  H        1.8904320    -0.6904920    -1.1924240
  H        1.7396730     1.8267360     0.3337390
  H        0.4376740     2.4833400    -0.3885230
  H       -1.6829760    -1.5021330     0.0801800
  H       -2.9543020    -0.5584070    -0.2807090
units angstrom
no_reorient  #important for SAPT in psi4, default
symmetry c1  #important for SAPT in psi4, default
}

set PROPERTIES_ORIGIN ["COM"]
properties('MP2/aug-cc-pvtz', properties = ['dipole'])
--------------------------------------------------------------------------

    Molecular point group: c1
  Charge       = 0
  Multiplicity = 1
  Basis Set: AUG-CC-PVTZ
    Blend: AUG-CC-PVTZ
  Basis Set: (AUG-CC-PVTZ AUX)
    Blend: AUG-CC-PVTZ-JKFIT

    Orbital Energies [Eh]
    ---------------------

    Doubly Occupied:

       1A    -15.542254     2A    -15.538275     3A    -11.248902
       4A    -11.245850     5A    -11.214857     6A    -11.205954
       7A     -1.196711     8A     -1.159394     9A     -1.029778
      10A     -0.937133    11A     -0.861429    12A     -0.748487
      13A     -0.669826    14A     -0.662669    15A     -0.643263
      16A     -0.589984    17A     -0.580277    18A     -0.553532
      19A     -0.527361    20A     -0.513972    21A     -0.491986
      22A     -0.468737    23A     -0.451195    24A     -0.394371
      25A     -0.388898

  @DF-RHF Final Energy:  -267.44294555402962

   => Energetics <=

    Nuclear Repulsion Energy =            264.4910022008924670
    One-Electron Energy =                -886.1377011703200424
    Two-Electron Energy =                 354.2037534153979550
    Total Energy =                       -267.4429455540296203
  Basis Set: (AUG-CC-PVTZ AUX)
    Blend: AUG-CC-PVTZ-RI
    Molecular point group: c1

    Geometry (in Angstrom), charge = 0, multiplicity = 1:

       Center              X                  Y                   Z               Mass
    ------------   -----------------  -----------------  -----------------  -----------------
         N            0.953092392454     1.586129718801    -0.268356288719    14.003074004430
         N           -2.045074607546    -0.581116281199     0.195164711281    14.003074004430
         C            0.085982392454     0.626759718801     0.430844711281    12.000000000000
         C            0.877514392454    -0.653283281199     0.706955711281    12.000000000000
         C           -1.144625607546     0.388204718801    -0.438810288719    12.000000000000
         C            1.352993392454    -1.386998281199    -0.545370288719    12.000000000000
         H           -0.279365607546     1.001441718801     1.401795711281     1.007825032230
         H            0.262795392454    -1.311742281199     1.331116711281     1.007825032230
         H            1.747256392454    -0.385892281199     1.322291711281     1.007825032230
         H           -1.715267607546     1.378626718801    -0.534666588719     1.007825032230
         H           -0.811938607546     0.115747718801    -1.451455288719     1.007825032230
         H            2.006939392454    -2.222274281199    -0.277463288719     1.007825032230
         H            0.515135392454    -1.799113281199    -1.116196288719     1.007825032230
         H            1.903059392454    -0.708806281199    -1.200396288719     1.007825032230
         H            1.752300392454     1.808421718801     0.325766711281     1.007825032230
         H            0.450301392454     2.465025718801    -0.396495288719     1.007825032230
         H           -1.670348607546    -1.520447281199     0.072207711281     1.007825032230
         H           -2.941674607546    -0.576721281199    -0.288681288719     1.007825032230

  Basis Set: AUG-CC-PVTZ
    Blend: AUG-CC-PVTZ
  Basis Set: (AUG-CC-PVTZ AUX)
    Blend: AUG-CC-PVTZ-JKFIT
	 Reference Energy          =    -267.4429455540296203 [Eh]
	 Singles Energy            =      -0.0000000000000000 [Eh]
	 Same-Spin Energy          =      -0.2837297834618957 [Eh]
	 Opposite-Spin Energy      =      -0.9913447746029570 [Eh]
	 Correlation Energy        =      -1.2750745580648526 [Eh]
	 Total Energy              =    -268.7180201120944503 [Eh]

	 ================> DF-SCS-MP2 Energies <==================
	-----------------------------------------------------------
	 SCS Same-Spin Scale       =       0.3333333333333333 [-]
	 SCS Opposite-Spin Scale   =       1.2000000000000000 [-]
	 SCS Same-Spin Energy      =      -0.0945765944872986 [Eh]
	 SCS Opposite-Spin Energy  =      -1.1896137295235483 [Eh]
	 SCS Correlation Energy    =      -1.2841903240108468 [Eh]
	 SCS Total Energy          =    -268.7271358780404853 [Eh]
	-----------------------------------------------------------

  Dipole Moment: [D]
     X:    -0.2036      Y:     0.2190      Z:    -0.0923     Total:     0.3129

*** Psi4 exiting successfully. Buy a developer a beer!
