                               Psi4 1.4a3.dev225

  ==> Input File <==

--------------------------------------------------------------------------
#psi4
#
memory 32 gb

molecule  {
0 1
  N        1.0367338     1.5921194    -0.1409752
  N       -2.0577020    -0.5628020     0.2031370
  C        0.0733550     0.6450740     0.4388170
  C        0.8648870    -0.6349690     0.7149280
  C       -1.1572530     0.4065190    -0.4308380
  C        1.3403660    -1.3686840    -0.5373980
  H       -0.2919930     1.0197560     1.4097680
  H        0.2501680    -1.2934280     1.3390890
  H        1.7346290    -0.3675780     1.3302640
  H       -1.7030210     1.3537690    -0.5225160
  H       -0.8245660     0.1340620    -1.4434830
  H        1.9943120    -2.2039600    -0.2694910
  H        0.5025080    -1.7807990    -1.1082240
  H        1.8904320    -0.6904920    -1.1924240
  H        1.7396730     1.8267360     0.3337390
  H        0.4376740     2.4833400    -0.3885230
  H       -1.6829760    -1.5021330     0.0801800
  H       -2.9543020    -0.5584070    -0.2807090
units angstrom
no_reorient  #important for SAPT in psi4, default
symmetry c1  #important for SAPT in psi4, default
}

set PROPERTIES_ORIGIN ["COM"]
properties('MP2/aug-cc-pvtz', properties = ['dipole'])
--------------------------------------------------------------------------

    Molecular point group: c1
  Charge       = 0
  Multiplicity = 1
  Basis Set: AUG-CC-PVTZ
    Blend: AUG-CC-PVTZ
  Basis Set: (AUG-CC-PVTZ AUX)
    Blend: AUG-CC-PVTZ-JKFIT

    Orbital Energies [Eh]
    ---------------------

    Doubly Occupied:

       1A    -15.545001     2A    -15.527743     3A    -11.247579
       4A    -11.246792     5A    -11.211930     6A    -11.204852
       7A     -1.200614     8A     -1.166249     9A     -1.030830
      10A     -0.945970    11A     -0.862603    12A     -0.758729
      13A     -0.673903    14A     -0.668858    15A     -0.650274
      16A     -0.591282    17A     -0.583552    18A     -0.542808
      19A     -0.539217    20A     -0.521659    21A     -0.488560
      22A     -0.468972    23A     -0.448758    24A     -0.396635
      25A     -0.380259

  @DF-RHF Final Energy:  -267.41710070964621

   => Energetics <=

    Nuclear Repulsion Energy =            264.7866877927887117
    One-Electron Energy =                -886.6003202590922001
    Two-Electron Energy =                 354.3965317566572821
    Total Energy =                       -267.4171007096462063
  Basis Set: (AUG-CC-PVTZ AUX)
    Blend: AUG-CC-PVTZ-RI
    Molecular point group: c1

    Geometry (in Angstrom), charge = 0, multiplicity = 1:

       Center              X                  Y                   Z               Mass
    ------------   -----------------  -----------------  -----------------  -----------------
         N            1.033775187729     1.576257922314    -0.167974734322    14.003074004430
         N           -2.060660612271    -0.578663477686     0.176137465678    14.003074004430
         C            0.070396387729     0.629212522314     0.411817465678    12.000000000000
         C            0.861928387729    -0.650830477686     0.687928465678    12.000000000000
         C           -1.160211612271     0.390657522314    -0.457837534322    12.000000000000
         C            1.337407387729    -1.384545477686    -0.564397534322    12.000000000000
         H           -0.294951612271     1.003894522314     1.382768465678     1.007825032230
         H            0.247209387729    -1.309289477686     1.312089465678     1.007825032230
         H            1.731670387729    -0.383439477686     1.303264465678     1.007825032230
         H           -1.705979612271     1.337907522314    -0.549515534322     1.007825032230
         H           -0.827524612271     0.118200522314    -1.470482534322     1.007825032230
         H            1.991353387729    -2.219821477686    -0.296490534322     1.007825032230
         H            0.499549387729    -1.796660477686    -1.135223534322     1.007825032230
         H            1.887473387729    -0.706353477686    -1.219423534322     1.007825032230
         H            1.736714387729     1.810874522314     0.306739465678     1.007825032230
         H            0.434715387729     2.467478522314    -0.415522534322     1.007825032230
         H           -1.685934612271    -1.517994477686     0.053180465678     1.007825032230
         H           -2.957260612271    -0.574268477686    -0.307708534322     1.007825032230

  Basis Set: AUG-CC-PVTZ
    Blend: AUG-CC-PVTZ
  Basis Set: (AUG-CC-PVTZ AUX)
    Blend: AUG-CC-PVTZ-JKFIT
	 Reference Energy          =    -267.4171007096462063 [Eh]
	 Singles Energy            =      -0.0000000000000000 [Eh]
	 Same-Spin Energy          =      -0.2834122933142177 [Eh]
	 Opposite-Spin Energy      =      -0.9903722982460246 [Eh]
	 Correlation Energy        =      -1.2737845915602424 [Eh]
	 Total Energy              =    -268.6908853012064355 [Eh]

	 ================> DF-SCS-MP2 Energies <==================
	-----------------------------------------------------------
	 SCS Same-Spin Scale       =       0.3333333333333333 [-]
	 SCS Opposite-Spin Scale   =       1.2000000000000000 [-]
	 SCS Same-Spin Energy      =      -0.0944707644380726 [Eh]
	 SCS Opposite-Spin Energy  =      -1.1884467578952294 [Eh]
	 SCS Correlation Energy    =      -1.2829175223333020 [Eh]
	 SCS Total Energy          =    -268.7000182319795272 [Eh]
	-----------------------------------------------------------

  Dipole Moment: [D]
     X:    -0.3971      Y:     0.2276      Z:    -0.2990     Total:     0.5467

*** Psi4 exiting successfully. Buy a developer a beer!
