                               Psi4 1.4a3.dev225

  ==> Input File <==

--------------------------------------------------------------------------
#psi4
#
memory 32 gb

molecule  {
0 1
  N        0.9404650     1.6044440    -0.2603840
  N       -2.0577020    -0.5628020     0.2031370
  C        0.0733550     0.6450740     0.4388170
  C        0.9656417    -0.5442535     0.8001960
  C       -1.1572530     0.4065190    -0.4308380
  C        1.3403660    -1.3686840    -0.5373980
  H       -0.2919930     1.0197560     1.4097680
  H        0.2501680    -1.2934280     1.3390890
  H        1.7346290    -0.3675780     1.3302640
  H       -1.7030210     1.3537690    -0.5225160
  H       -0.8245660     0.1340620    -1.4434830
  H        1.9943120    -2.2039600    -0.2694910
  H        0.5025080    -1.7807990    -1.1082240
  H        1.8904320    -0.6904920    -1.1924240
  H        1.7396730     1.8267360     0.3337390
  H        0.4376740     2.4833400    -0.3885230
  H       -1.6829760    -1.5021330     0.0801800
  H       -2.9543020    -0.5584070    -0.2807090
units angstrom
no_reorient  #important for SAPT in psi4, default
symmetry c1  #important for SAPT in psi4, default
}

set PROPERTIES_ORIGIN ["COM"]
properties('MP2/aug-cc-pvtz', properties = ['dipole'])
--------------------------------------------------------------------------

    Molecular point group: c1
  Charge       = 0
  Multiplicity = 1
  Basis Set: AUG-CC-PVTZ
    Blend: AUG-CC-PVTZ
  Basis Set: (AUG-CC-PVTZ AUX)
    Blend: AUG-CC-PVTZ-JKFIT

    Orbital Energies [Eh]
    ---------------------

    Doubly Occupied:

       1A    -15.542077     2A    -15.537098     3A    -11.246552
       4A    -11.245750     5A    -11.213476     6A    -11.208359
       7A     -1.196985     8A     -1.160103     9A     -1.019886
      10A     -0.935766    11A     -0.870704    12A     -0.762646
      13A     -0.671366    14A     -0.658648    15A     -0.643944
      16A     -0.602428    17A     -0.576820    18A     -0.548627
      19A     -0.532069    20A     -0.519743    21A     -0.491391
      22A     -0.457109    23A     -0.449907    24A     -0.395061
      25A     -0.383691

  @DF-RHF Final Energy:  -267.41407827970988

   => Energetics <=

    Nuclear Repulsion Energy =            263.7885210171180006
    One-Electron Energy =                -884.6647863753653382
    Two-Electron Energy =                 353.4621870785374540
    Total Energy =                       -267.4140782797098836
  Basis Set: (AUG-CC-PVTZ AUX)
    Blend: AUG-CC-PVTZ-RI
    Molecular point group: c1

    Geometry (in Angstrom), charge = 0, multiplicity = 1:

       Center              X                  Y                   Z               Mass
    ------------   -----------------  -----------------  -----------------  -----------------
         N            0.939084170411     1.574267339645    -0.280018336743    14.003074004430
         N           -2.059082829589    -0.592978660355     0.183502663257    14.003074004430
         C            0.071974170411     0.614897339645     0.419182663257    12.000000000000
         C            0.964260870411    -0.574430160355     0.780561663257    12.000000000000
         C           -1.158633829589     0.376342339645    -0.450472336743    12.000000000000
         C            1.338985170411    -1.398860660355    -0.557032336743    12.000000000000
         H           -0.293373829589     0.989579339645     1.390133663257     1.007825032230
         H            0.248787170411    -1.323604660355     1.319454663257     1.007825032230
         H            1.733248170411    -0.397754660355     1.310629663257     1.007825032230
         H           -1.704401829589     1.323592339645    -0.542150336743     1.007825032230
         H           -0.825946829589     0.103885339645    -1.463117336743     1.007825032230
         H            1.992931170411    -2.234136660355    -0.289125336743     1.007825032230
         H            0.501127170411    -1.810975660355    -1.127858336743     1.007825032230
         H            1.889051170411    -0.720668660355    -1.212058336743     1.007825032230
         H            1.738292170411     1.796559339645     0.314104663257     1.007825032230
         H            0.436293170411     2.453163339645    -0.408157336743     1.007825032230
         H           -1.684356829589    -1.532309660355     0.060545663257     1.007825032230
         H           -2.955682829589    -0.588583660355    -0.300343336743     1.007825032230

  Basis Set: AUG-CC-PVTZ
    Blend: AUG-CC-PVTZ
  Basis Set: (AUG-CC-PVTZ AUX)
    Blend: AUG-CC-PVTZ-JKFIT
	 Reference Energy          =    -267.4140782797098836 [Eh]
	 Singles Energy            =      -0.0000000000000000 [Eh]
	 Same-Spin Energy          =      -0.2836096081203468 [Eh]
	 Opposite-Spin Energy      =      -0.9919781411300984 [Eh]
	 Correlation Energy        =      -1.2755877492504453 [Eh]
	 Total Energy              =    -268.6896660289603460 [Eh]

	 ================> DF-SCS-MP2 Energies <==================
	-----------------------------------------------------------
	 SCS Same-Spin Scale       =       0.3333333333333333 [-]
	 SCS Opposite-Spin Scale   =       1.2000000000000000 [-]
	 SCS Same-Spin Energy      =      -0.0945365360401156 [Eh]
	 SCS Opposite-Spin Energy  =      -1.1903737693561180 [Eh]
	 SCS Correlation Energy    =      -1.2849103053962336 [Eh]
	 SCS Total Energy          =    -268.6989885851061217 [Eh]
	-----------------------------------------------------------

  Dipole Moment: [D]
     X:    -0.2330      Y:     0.3119      Z:    -0.1050     Total:     0.4032

*** Psi4 exiting successfully. Buy a developer a beer!
