                               Psi4 1.4a3.dev225

  ==> Input File <==

--------------------------------------------------------------------------
#psi4
#
memory 32 gb

molecule  {
0 1
  N        0.9404650     1.6044440    -0.2603840
  N       -2.0577020    -0.5628020     0.2031370
  C        0.0733550     0.6450740     0.4388170
  C        0.8648870    -0.6349690     0.7149280
  C       -1.1572530     0.4065190    -0.4308380
  C        1.3403660    -1.3686840    -0.5373980
  H       -0.2919930     1.0197560     1.4097680
  H        0.2501680    -1.2934280     1.3390890
  H        1.7346290    -0.3675780     1.3302640
  H       -1.7144308     1.3514249    -0.4468331
  H       -0.8245660     0.1340620    -1.4434830
  H        1.9943120    -2.2039600    -0.2694910
  H        0.5025080    -1.7807990    -1.1082240
  H        1.8904320    -0.6904920    -1.1924240
  H        1.7396730     1.8267360     0.3337390
  H        0.4376740     2.4833400    -0.3885230
  H       -1.6829760    -1.5021330     0.0801800
  H       -2.9543020    -0.5584070    -0.2807090
units angstrom
no_reorient  #important for SAPT in psi4, default
symmetry c1  #important for SAPT in psi4, default
}

set PROPERTIES_ORIGIN ["COM"]
properties('MP2/aug-cc-pvtz', properties = ['dipole'])
--------------------------------------------------------------------------

    Molecular point group: c1
  Charge       = 0
  Multiplicity = 1
  Basis Set: AUG-CC-PVTZ
    Blend: AUG-CC-PVTZ
  Basis Set: (AUG-CC-PVTZ AUX)
    Blend: AUG-CC-PVTZ-JKFIT

    Orbital Energies [Eh]
    ---------------------

    Doubly Occupied:

       1A    -15.541071     2A    -15.538373     3A    -11.245115
       4A    -11.242528     5A    -11.214097     6A    -11.205763
       7A     -1.197090     8A     -1.159246     9A     -1.029373
      10A     -0.938901    11A     -0.862767    12A     -0.748874
      13A     -0.673229    14A     -0.662622    15A     -0.642770
      16A     -0.589635    17A     -0.578916    18A     -0.554071
      19A     -0.531852    20A     -0.515125    21A     -0.491830
      22A     -0.468302    23A     -0.451579    24A     -0.394285
      25A     -0.389064

  @DF-RHF Final Energy:  -267.44439284940427

   => Energetics <=

    Nuclear Repulsion Energy =            264.7702454489360093
    One-Electron Energy =                -886.6963200559332563
    Two-Electron Energy =                 354.4816817575929235
    Total Energy =                       -267.4443928494042666
  Basis Set: (AUG-CC-PVTZ AUX)
    Blend: AUG-CC-PVTZ-RI
    Molecular point group: c1

    Geometry (in Angstrom), charge = 0, multiplicity = 1:

       Center              X                  Y                   Z               Mass
    ------------   -----------------  -----------------  -----------------  -----------------
         N            0.952938368046     1.586650402567    -0.269269865021    14.003074004430
         N           -2.045228631954    -0.580595597433     0.194251134979    14.003074004430
         C            0.085828368046     0.627280402567     0.429931134979    12.000000000000
         C            0.877360368046    -0.652762597433     0.706042134979    12.000000000000
         C           -1.144779631954     0.388725402567    -0.439723865021    12.000000000000
         C            1.352839368046    -1.386477597433    -0.546283865021    12.000000000000
         H           -0.279519631954     1.001962402567     1.400882134979     1.007825032230
         H            0.262641368046    -1.311221597433     1.330203134979     1.007825032230
         H            1.747102368046    -0.385371597433     1.321378134979     1.007825032230
         H           -1.701957431954     1.333631302567    -0.455718965021     1.007825032230
         H           -0.812092631954     0.116268402567    -1.452368865021     1.007825032230
         H            2.006785368046    -2.221753597433    -0.278376865021     1.007825032230
         H            0.514981368046    -1.798592597433    -1.117109865021     1.007825032230
         H            1.902905368046    -0.708285597433    -1.201309865021     1.007825032230
         H            1.752146368046     1.808942402567     0.324853134979     1.007825032230
         H            0.450147368046     2.465546402567    -0.397408865021     1.007825032230
         H           -1.670502631954    -1.519926597433     0.071294134979     1.007825032230
         H           -2.941828631954    -0.576200597433    -0.289594865021     1.007825032230

  Basis Set: AUG-CC-PVTZ
    Blend: AUG-CC-PVTZ
  Basis Set: (AUG-CC-PVTZ AUX)
    Blend: AUG-CC-PVTZ-JKFIT
	 Reference Energy          =    -267.4443928494042666 [Eh]
	 Singles Energy            =      -0.0000000000000000 [Eh]
	 Same-Spin Energy          =      -0.2837542596934639 [Eh]
	 Opposite-Spin Energy      =      -0.9911238323275746 [Eh]
	 Correlation Energy        =      -1.2748780920210385 [Eh]
	 Total Energy              =    -268.7192709414252931 [Eh]

	 ================> DF-SCS-MP2 Energies <==================
	-----------------------------------------------------------
	 SCS Same-Spin Scale       =       0.3333333333333333 [-]
	 SCS Opposite-Spin Scale   =       1.2000000000000000 [-]
	 SCS Same-Spin Energy      =      -0.0945847532311546 [Eh]
	 SCS Opposite-Spin Energy  =      -1.1893485987930894 [Eh]
	 SCS Correlation Energy    =      -1.2839333520242440 [Eh]
	 SCS Total Energy          =    -268.7283262014285015 [Eh]
	-----------------------------------------------------------

  Dipole Moment: [D]
     X:    -0.2175      Y:     0.2567      Z:    -0.0868     Total:     0.3475

*** Psi4 exiting successfully. Buy a developer a beer!
