                               Psi4 1.4a3.dev225

  ==> Input File <==

--------------------------------------------------------------------------
#psi4
#
memory 32 gb

molecule  {
0 1
  N        0.8709384     1.6068245    -0.3358115
  N       -2.0577020    -0.5628020     0.2031370
  C        0.0733550     0.6450740     0.4388170
  C        0.8648870    -0.6349690     0.7149280
  C       -1.1572530     0.4065190    -0.4308380
  C        1.3403660    -1.3686840    -0.5373980
  H       -0.2919930     1.0197560     1.4097680
  H        0.2501680    -1.2934280     1.3390890
  H        1.7346290    -0.3675780     1.3302640
  H       -1.7030210     1.3537690    -0.5225160
  H       -0.8245660     0.1340620    -1.4434830
  H        1.9943120    -2.2039600    -0.2694910
  H        0.5025080    -1.7807990    -1.1082240
  H        1.8904320    -0.6904920    -1.1924240
  H        1.7396730     1.8267360     0.3337390
  H        0.4376740     2.4833400    -0.3885230
  H       -1.6829760    -1.5021330     0.0801800
  H       -2.9543020    -0.5584070    -0.2807090
units angstrom
no_reorient  #important for SAPT in psi4, default
symmetry c1  #important for SAPT in psi4, default
}

set PROPERTIES_ORIGIN ["COM"]
properties('MP2/aug-cc-pvtz', properties = ['dipole'])
--------------------------------------------------------------------------

    Molecular point group: c1
  Charge       = 0
  Multiplicity = 1
  Basis Set: AUG-CC-PVTZ
    Blend: AUG-CC-PVTZ
  Basis Set: (AUG-CC-PVTZ AUX)
    Blend: AUG-CC-PVTZ-JKFIT

    Orbital Energies [Eh]
    ---------------------

    Doubly Occupied:

       1A    -15.546529     2A    -15.539656     3A    -11.246149
       4A    -11.240110     5A    -11.216376     6A    -11.206434
       7A     -1.197105     8A     -1.156978     9A     -1.030620
      10A     -0.936309    11A     -0.864165    12A     -0.750606
      13A     -0.671130    14A     -0.668787    15A     -0.624502
      16A     -0.589483    17A     -0.576345    18A     -0.561294
      19A     -0.526727    20A     -0.506129    21A     -0.494337
      22A     -0.468179    23A     -0.452385    24A     -0.397977
      25A     -0.390448

  @DF-RHF Final Energy:  -267.43259758001824

   => Energetics <=

    Nuclear Repulsion Energy =            264.8015504357912278
    One-Electron Energy =                -886.7507805306646560
    Two-Electron Energy =                 354.5166325148551891
    Total Energy =                       -267.4325975800182391
  Basis Set: (AUG-CC-PVTZ AUX)
    Blend: AUG-CC-PVTZ-RI
    Molecular point group: c1

    Geometry (in Angstrom), charge = 0, multiplicity = 1:

       Center              X                  Y                   Z               Mass
    ------------   -----------------  -----------------  -----------------  -----------------
         N            0.894332159811     1.588625718222    -0.331842752496    14.003074004430
         N           -2.034308240189    -0.581000781778     0.207105747504    14.003074004430
         C            0.096748759811     0.626875218222     0.442785747504    12.000000000000
         C            0.888280759811    -0.653167781778     0.718896747504    12.000000000000
         C           -1.133859240189     0.388320218222    -0.426869252496    12.000000000000
         C            1.363759759811    -1.386882781778    -0.533429252496    12.000000000000
         H           -0.268599240189     1.001557218222     1.413736747504     1.007825032230
         H            0.273561759811    -1.311626781778     1.343057747504     1.007825032230
         H            1.758022759811    -0.385776781778     1.334232747504     1.007825032230
         H           -1.679627240189     1.335570218222    -0.518547252496     1.007825032230
         H           -0.801172240189     0.115863218222    -1.439514252496     1.007825032230
         H            2.017705759811    -2.222158781778    -0.265522252496     1.007825032230
         H            0.525901759811    -1.798997781778    -1.104255252496     1.007825032230
         H            1.913825759811    -0.708690781778    -1.188455252496     1.007825032230
         H            1.763066759811     1.808537218222     0.337707747504     1.007825032230
         H            0.461067759811     2.465141218222    -0.384554252496     1.007825032230
         H           -1.659582240189    -1.520331781778     0.084148747504     1.007825032230
         H           -2.930908240189    -0.576605781778    -0.276740252496     1.007825032230

  Basis Set: AUG-CC-PVTZ
    Blend: AUG-CC-PVTZ
  Basis Set: (AUG-CC-PVTZ AUX)
    Blend: AUG-CC-PVTZ-JKFIT
	 Reference Energy          =    -267.4325975800182391 [Eh]
	 Singles Energy            =      -0.0000000000000000 [Eh]
	 Same-Spin Energy          =      -0.2842806216400705 [Eh]
	 Opposite-Spin Energy      =      -0.9927818976710483 [Eh]
	 Correlation Energy        =      -1.2770625193111189 [Eh]
	 Total Energy              =    -268.7096600993293691 [Eh]

	 ================> DF-SCS-MP2 Energies <==================
	-----------------------------------------------------------
	 SCS Same-Spin Scale       =       0.3333333333333333 [-]
	 SCS Opposite-Spin Scale   =       1.2000000000000000 [-]
	 SCS Same-Spin Energy      =      -0.0947602072133568 [Eh]
	 SCS Opposite-Spin Energy  =      -1.1913382772052579 [Eh]
	 SCS Correlation Energy    =      -1.2860984844186147 [Eh]
	 SCS Total Energy          =    -268.7186960644368696 [Eh]
	-----------------------------------------------------------

  Dipole Moment: [D]
     X:    -0.1461      Y:     0.2461      Z:     0.0094     Total:     0.2864

*** Psi4 exiting successfully. Buy a developer a beer!
