                               Psi4 1.4a3.dev225

  ==> Input File <==

--------------------------------------------------------------------------
#psi4
#
memory 32 gb

molecule  {
0 1
  N        0.9404650     1.6044440    -0.2603840
  N       -2.0577020    -0.5628020     0.2031370
  C        0.0733550     0.6450740     0.4388170
  C        0.8648870    -0.6349690     0.7149280
  C       -1.1572530     0.4065190    -0.4308380
  C        1.3403660    -1.3686840    -0.5373980
  H       -0.2919930     1.0197560     1.4097680
  H        0.2501680    -1.2934280     1.3390890
  H        1.7346290    -0.3675780     1.3302640
  H       -1.6809417     1.3486348    -0.6350882
  H       -0.8245660     0.1340620    -1.4434830
  H        1.9943120    -2.2039600    -0.2694910
  H        0.5025080    -1.7807990    -1.1082240
  H        1.8904320    -0.6904920    -1.1924240
  H        1.7396730     1.8267360     0.3337390
  H        0.4376740     2.4833400    -0.3885230
  H       -1.6829760    -1.5021330     0.0801800
  H       -2.9543020    -0.5584070    -0.2807090
units angstrom
no_reorient  #important for SAPT in psi4, default
symmetry c1  #important for SAPT in psi4, default
}

set PROPERTIES_ORIGIN ["COM"]
properties('MP2/aug-cc-pvtz', properties = ['dipole'])
--------------------------------------------------------------------------

    Molecular point group: c1
  Charge       = 0
  Multiplicity = 1
  Basis Set: AUG-CC-PVTZ
    Blend: AUG-CC-PVTZ
  Basis Set: (AUG-CC-PVTZ AUX)
    Blend: AUG-CC-PVTZ-JKFIT

    Orbital Energies [Eh]
    ---------------------

    Doubly Occupied:

       1A    -15.542370     2A    -15.538252     3A    -11.245932
       4A    -11.242404     5A    -11.214709     6A    -11.205321
       7A     -1.196626     8A     -1.159170     9A     -1.029397
      10A     -0.938551    11A     -0.864164    12A     -0.751787
      13A     -0.669996    14A     -0.661561    15A     -0.643478
      16A     -0.589722    17A     -0.583005    18A     -0.552843
      19A     -0.528201    20A     -0.514001    21A     -0.491613
      22A     -0.468287    23A     -0.454533    24A     -0.393530
      25A     -0.388102

  @DF-RHF Final Energy:  -267.44372352247035

   => Energetics <=

    Nuclear Repulsion Energy =            264.6742128151328188
    One-Electron Energy =                -886.5007608557865524
    Two-Electron Energy =                 354.3828245181833836
    Total Energy =                       -267.4437235224703500
  Basis Set: (AUG-CC-PVTZ AUX)
    Blend: AUG-CC-PVTZ-RI
    Molecular point group: c1

    Geometry (in Angstrom), charge = 0, multiplicity = 1:

       Center              X                  Y                   Z               Mass
    ------------   -----------------  -----------------  -----------------  -----------------
         N            0.952555267765     1.586682320059    -0.267116311128    14.003074004430
         N           -2.045611732235    -0.580563679941     0.196404688872    14.003074004430
         C            0.085445267765     0.627312320059     0.432084688872    12.000000000000
         C            0.876977267765    -0.652730679941     0.708195688872    12.000000000000
         C           -1.145162732235     0.388757320059    -0.437570311128    12.000000000000
         C            1.352456267765    -1.386445679941    -0.544130311128    12.000000000000
         H           -0.279902732235     1.001994320059     1.403035688872     1.007825032230
         H            0.262258267765    -1.311189679941     1.332356688872     1.007825032230
         H            1.746719267765    -0.385339679941     1.323531688872     1.007825032230
         H           -1.668851432235     1.330873120059    -0.641820511128     1.007825032230
         H           -0.812475732235     0.116300320059    -1.450215311128     1.007825032230
         H            2.006402267765    -2.221721679941    -0.276223311128     1.007825032230
         H            0.514598267765    -1.798560679941    -1.114956311128     1.007825032230
         H            1.902522267765    -0.708253679941    -1.199156311128     1.007825032230
         H            1.751763267765     1.808974320059     0.327006688872     1.007825032230
         H            0.449764267765     2.465578320059    -0.395255311128     1.007825032230
         H           -1.670885732235    -1.519894679941     0.073447688872     1.007825032230
         H           -2.942211732235    -0.576168679941    -0.287441311128     1.007825032230

  Basis Set: AUG-CC-PVTZ
    Blend: AUG-CC-PVTZ
  Basis Set: (AUG-CC-PVTZ AUX)
    Blend: AUG-CC-PVTZ-JKFIT
	 Reference Energy          =    -267.4437235224703500 [Eh]
	 Singles Energy            =      -0.0000000000000000 [Eh]
	 Same-Spin Energy          =      -0.2837444765556328 [Eh]
	 Opposite-Spin Energy      =      -0.9909599276263178 [Eh]
	 Correlation Energy        =      -1.2747044041819506 [Eh]
	 Total Energy              =    -268.7184279266522822 [Eh]

	 ================> DF-SCS-MP2 Energies <==================
	-----------------------------------------------------------
	 SCS Same-Spin Scale       =       0.3333333333333333 [-]
	 SCS Opposite-Spin Scale   =       1.2000000000000000 [-]
	 SCS Same-Spin Energy      =      -0.0945814921852109 [Eh]
	 SCS Opposite-Spin Energy  =      -1.1891519131515813 [Eh]
	 SCS Correlation Energy    =      -1.2837334053367921 [Eh]
	 SCS Total Energy          =    -268.7274569278071681 [Eh]
	-----------------------------------------------------------

  Dipole Moment: [D]
     X:    -0.2306      Y:     0.2547      Z:    -0.1341     Total:     0.3688

*** Psi4 exiting successfully. Buy a developer a beer!
