                               Psi4 1.4a3.dev225

  ==> Input File <==

--------------------------------------------------------------------------
#psi4
#
memory 32 gb

molecule  {
0 1
  N        0.9404650     1.6044440    -0.2603840
  N       -2.0577020    -0.5628020     0.2031370
  C        0.0733550     0.6450740     0.4388170
  C        0.7554601    -0.7116601     0.6266349
  C       -1.1572530     0.4065190    -0.4308380
  C        1.3403660    -1.3686840    -0.5373980
  H       -0.2919930     1.0197560     1.4097680
  H        0.2501680    -1.2934280     1.3390890
  H        1.7346290    -0.3675780     1.3302640
  H       -1.7030210     1.3537690    -0.5225160
  H       -0.8245660     0.1340620    -1.4434830
  H        1.9943120    -2.2039600    -0.2694910
  H        0.5025080    -1.7807990    -1.1082240
  H        1.8904320    -0.6904920    -1.1924240
  H        1.7396730     1.8267360     0.3337390
  H        0.4376740     2.4833400    -0.3885230
  H       -1.6829760    -1.5021330     0.0801800
  H       -2.9543020    -0.5584070    -0.2807090
units angstrom
no_reorient  #important for SAPT in psi4, default
symmetry c1  #important for SAPT in psi4, default
}

set PROPERTIES_ORIGIN ["COM"]
properties('MP2/aug-cc-pvtz', properties = ['dipole'])
--------------------------------------------------------------------------

    Molecular point group: c1
  Charge       = 0
  Multiplicity = 1
  Basis Set: AUG-CC-PVTZ
    Blend: AUG-CC-PVTZ
  Basis Set: (AUG-CC-PVTZ AUX)
    Blend: AUG-CC-PVTZ-JKFIT

    Orbital Energies [Eh]
    ---------------------

    Doubly Occupied:

       1A    -15.542292     2A    -15.540295     3A    -11.248275
       4A    -11.241045     5A    -11.222595     6A    -11.205869
       7A     -1.198669     8A     -1.159682     9A     -1.042755
      10A     -0.944123    11A     -0.859776    12A     -0.748672
      13A     -0.672851    14A     -0.666630    15A     -0.644301
      16A     -0.587535    17A     -0.582420    18A     -0.558315
      19A     -0.535963    20A     -0.521012    21A     -0.512328
      22A     -0.463515    23A     -0.418467    24A     -0.394762
      25A     -0.390280

  @DF-RHF Final Energy:  -267.41994883601257

   => Energetics <=

    Nuclear Repulsion Energy =            265.7208161463793772
    One-Electron Energy =                -888.4766765430765645
    Two-Electron Energy =                 355.3359115606846785
    Total Energy =                       -267.4199488360125656
  Basis Set: (AUG-CC-PVTZ AUX)
    Blend: AUG-CC-PVTZ-RI
    Molecular point group: c1

    Geometry (in Angstrom), charge = 0, multiplicity = 1:

       Center              X                  Y                   Z               Mass
    ------------   -----------------  -----------------  -----------------  -----------------
         N            0.967712749464     1.597069588186    -0.256377791273    14.003074004430
         N           -2.030454250536    -0.570176411814     0.207143208727    14.003074004430
         C            0.100602749464     0.637699588186     0.442823208727    12.000000000000
         C            0.782707849464    -0.719034511814     0.630641108727    12.000000000000
         C           -1.130005250536     0.399144588186    -0.426831791273    12.000000000000
         C            1.367613749464    -1.376058411814    -0.533391791273    12.000000000000
         H           -0.264745250536     1.012381588186     1.413774208727     1.007825032230
         H            0.277415749464    -1.300802411814     1.343095208727     1.007825032230
         H            1.761876749464    -0.374952411814     1.334270208727     1.007825032230
         H           -1.675773250536     1.346394588186    -0.518509791273     1.007825032230
         H           -0.797318250536     0.126687588186    -1.439476791273     1.007825032230
         H            2.021559749464    -2.211334411814    -0.265484791273     1.007825032230
         H            0.529755749464    -1.788173411814    -1.104217791273     1.007825032230
         H            1.917679749464    -0.697866411814    -1.188417791273     1.007825032230
         H            1.766920749464     1.819361588186     0.337745208727     1.007825032230
         H            0.464921749464     2.475965588186    -0.384516791273     1.007825032230
         H           -1.655728250536    -1.509507411814     0.084186208727     1.007825032230
         H           -2.927054250536    -0.565781411814    -0.276702791273     1.007825032230

  Basis Set: AUG-CC-PVTZ
    Blend: AUG-CC-PVTZ
  Basis Set: (AUG-CC-PVTZ AUX)
    Blend: AUG-CC-PVTZ-JKFIT
	 Reference Energy          =    -267.4199488360125656 [Eh]
	 Singles Energy            =      -0.0000000000000000 [Eh]
	 Same-Spin Energy          =      -0.2849440962233210 [Eh]
	 Opposite-Spin Energy      =      -0.9931467121110010 [Eh]
	 Correlation Energy        =      -1.2780908083343219 [Eh]
	 Total Energy              =    -268.6980396443468635 [Eh]

	 ================> DF-SCS-MP2 Energies <==================
	-----------------------------------------------------------
	 SCS Same-Spin Scale       =       0.3333333333333333 [-]
	 SCS Opposite-Spin Scale   =       1.2000000000000000 [-]
	 SCS Same-Spin Energy      =      -0.0949813654077736 [Eh]
	 SCS Opposite-Spin Energy  =      -1.1917760545332012 [Eh]
	 SCS Correlation Energy    =      -1.2867574199409748 [Eh]
	 SCS Total Energy          =    -268.7067062559535202 [Eh]
	-----------------------------------------------------------

  Dipole Moment: [D]
     X:    -0.2917      Y:     0.2127      Z:    -0.1903     Total:     0.4081

*** Psi4 exiting successfully. Buy a developer a beer!
