                               Psi4 1.4a3.dev225

  ==> Input File <==

--------------------------------------------------------------------------
#psi4
#
memory 32 gb

molecule  {
0 1
  N        0.9404650     1.6044440    -0.2603840
  N       -2.0577020    -0.5628020     0.2031370
  C        0.0733550     0.6450740     0.4388170
  C        0.8648870    -0.6349690     0.7149280
  C       -1.1572530     0.4065190    -0.4308380
  C        1.3403660    -1.3686840    -0.5373980
  H       -0.2919930     1.0197560     1.4097680
  H        0.2629715    -1.2917301     1.3531969
  H        1.7346290    -0.3675780     1.3302640
  H       -1.7030210     1.3537690    -0.5225160
  H       -0.8245660     0.1340620    -1.4434830
  H        1.9943120    -2.2039600    -0.2694910
  H        0.5025080    -1.7807990    -1.1082240
  H        1.8904320    -0.6904920    -1.1924240
  H        1.7396730     1.8267360     0.3337390
  H        0.4376740     2.4833400    -0.3885230
  H       -1.6829760    -1.5021330     0.0801800
  H       -2.9543020    -0.5584070    -0.2807090
units angstrom
no_reorient  #important for SAPT in psi4, default
symmetry c1  #important for SAPT in psi4, default
}

set PROPERTIES_ORIGIN ["COM"]
properties('MP2/aug-cc-pvtz', properties = ['dipole'])
--------------------------------------------------------------------------

    Molecular point group: c1
  Charge       = 0
  Multiplicity = 1
  Basis Set: AUG-CC-PVTZ
    Blend: AUG-CC-PVTZ
  Basis Set: (AUG-CC-PVTZ AUX)
    Blend: AUG-CC-PVTZ-JKFIT

    Orbital Energies [Eh]
    ---------------------

    Doubly Occupied:

       1A    -15.541467     2A    -15.538343     3A    -11.245496
       4A    -11.242455     5A    -11.214363     6A    -11.205733
       7A     -1.196815     8A     -1.159133     9A     -1.029304
      10A     -0.938673    11A     -0.863399    12A     -0.750328
      13A     -0.671323    14A     -0.662320    15A     -0.643024
      16A     -0.589057    17A     -0.580373    18A     -0.553253
      19A     -0.530921    20A     -0.514871    21A     -0.492418
      22A     -0.467558    23A     -0.453470    24A     -0.393918
      25A     -0.388731

  @DF-RHF Final Energy:  -267.44504232543898

   => Energetics <=

    Nuclear Repulsion Energy =            264.7009423312263721
    One-Electron Energy =                -886.5584751949760403
    Two-Electron Energy =                 354.4124905383106352
    Total Energy =                       -267.4450423254389761
  Basis Set: (AUG-CC-PVTZ AUX)
    Blend: AUG-CC-PVTZ-RI
    Molecular point group: c1

    Geometry (in Angstrom), charge = 0, multiplicity = 1:

       Center              X                  Y                   Z               Mass
    ------------   -----------------  -----------------  -----------------  -----------------
         N            0.952661378756     1.586604163900    -0.268565474643    14.003074004430
         N           -2.045505621244    -0.580641836100     0.194955525357    14.003074004430
         C            0.085551378756     0.627234163900     0.430635525357    12.000000000000
         C            0.877083378756    -0.652808836100     0.706746525357    12.000000000000
         C           -1.145056621244     0.388679163900    -0.439019474643    12.000000000000
         C            1.352562378756    -1.386523836100    -0.545579474643    12.000000000000
         H           -0.279796621244     1.001916163900     1.401586525357     1.007825032230
         H            0.275167878756    -1.309569936100     1.345015425357     1.007825032230
         H            1.746825378756    -0.385417836100     1.322082525357     1.007825032230
         H           -1.690824621244     1.335929163900    -0.530697474643     1.007825032230
         H           -0.812369621244     0.116222163900    -1.451664474643     1.007825032230
         H            2.006508378756    -2.221799836100    -0.277672474643     1.007825032230
         H            0.514704378756    -1.798638836100    -1.116405474643     1.007825032230
         H            1.902628378756    -0.708331836100    -1.200605474643     1.007825032230
         H            1.751869378756     1.808896163900     0.325557525357     1.007825032230
         H            0.449870378756     2.465500163900    -0.396704474643     1.007825032230
         H           -1.670779621244    -1.519972836100     0.071998525357     1.007825032230
         H           -2.942105621244    -0.576246836100    -0.288890474643     1.007825032230

  Basis Set: AUG-CC-PVTZ
    Blend: AUG-CC-PVTZ
  Basis Set: (AUG-CC-PVTZ AUX)
    Blend: AUG-CC-PVTZ-JKFIT
	 Reference Energy          =    -267.4450423254389761 [Eh]
	 Singles Energy            =      -0.0000000000000000 [Eh]
	 Same-Spin Energy          =      -0.2836966599509292 [Eh]
	 Opposite-Spin Energy      =      -0.9909617354051641 [Eh]
	 Correlation Energy        =      -1.2746583953560933 [Eh]
	 Total Energy              =    -268.7197007207950605 [Eh]

	 ================> DF-SCS-MP2 Energies <==================
	-----------------------------------------------------------
	 SCS Same-Spin Scale       =       0.3333333333333333 [-]
	 SCS Opposite-Spin Scale   =       1.2000000000000000 [-]
	 SCS Same-Spin Energy      =      -0.0945655533169764 [Eh]
	 SCS Opposite-Spin Energy  =      -1.1891540824861968 [Eh]
	 SCS Correlation Energy    =      -1.2837196358031733 [Eh]
	 SCS Total Energy          =    -268.7287619612421281 [Eh]
	-----------------------------------------------------------

  Dipole Moment: [D]
     X:    -0.2182      Y:     0.2554      Z:    -0.0997     Total:     0.3504

*** Psi4 exiting successfully. Buy a developer a beer!
