                               Psi4 1.4a3.dev225

  ==> Input File <==

--------------------------------------------------------------------------
#psi4
#
memory 32 gb

molecule  {
0 1
  N        0.9404650     1.6044440    -0.2603840
  N       -2.0577020    -0.5628020     0.2031370
  C        0.0733550     0.6450740     0.4388170
  C        0.8648870    -0.6349690     0.7149280
  C       -1.1572530     0.4065190    -0.4308380
  C        1.3403660    -1.3686840    -0.5373980
  H       -0.2919930     1.0197560     1.4097680
  H        0.2501680    -1.2934280     1.3390890
  H        1.7346290    -0.3675780     1.3302640
  H       -1.6889523     1.3514982    -0.5977522
  H       -0.8245660     0.1340620    -1.4434830
  H        1.9943120    -2.2039600    -0.2694910
  H        0.5025080    -1.7807990    -1.1082240
  H        1.8904320    -0.6904920    -1.1924240
  H        1.7396730     1.8267360     0.3337390
  H        0.4376740     2.4833400    -0.3885230
  H       -1.6829760    -1.5021330     0.0801800
  H       -2.9543020    -0.5584070    -0.2807090
units angstrom
no_reorient  #important for SAPT in psi4, default
symmetry c1  #important for SAPT in psi4, default
}

set PROPERTIES_ORIGIN ["COM"]
properties('MP2/aug-cc-pvtz', properties = ['dipole'])
--------------------------------------------------------------------------

    Molecular point group: c1
  Charge       = 0
  Multiplicity = 1
  Basis Set: AUG-CC-PVTZ
    Blend: AUG-CC-PVTZ
  Basis Set: (AUG-CC-PVTZ AUX)
    Blend: AUG-CC-PVTZ-JKFIT

    Orbital Energies [Eh]
    ---------------------

    Doubly Occupied:

       1A    -15.542099     2A    -15.538270     3A    -11.245746
       4A    -11.242444     5A    -11.214604     6A    -11.205416
       7A     -1.196696     8A     -1.159170     9A     -1.029398
      10A     -0.938577    11A     -0.863851    12A     -0.751165
      13A     -0.670405    14A     -0.661892    15A     -0.643322
      16A     -0.589697    17A     -0.582014    18A     -0.552941
      19A     -0.529288    20A     -0.514393    21A     -0.491671
      22A     -0.468282    23A     -0.454169    24A     -0.393686
      25A     -0.388336

  @DF-RHF Final Energy:  -267.44447833528295

   => Energetics <=

    Nuclear Repulsion Energy =            264.6901094065050302
    One-Electron Energy =                -886.5341111026914405
    Two-Electron Energy =                 354.3995233609034585
    Total Energy =                       -267.4444783352829518
  Basis Set: (AUG-CC-PVTZ AUX)
    Blend: AUG-CC-PVTZ-RI
    Molecular point group: c1

    Geometry (in Angstrom), charge = 0, multiplicity = 1:

       Center              X                  Y                   Z               Mass
    ------------   -----------------  -----------------  -----------------  -----------------
         N            0.952646905435     1.586649564047    -0.267543418219    14.003074004430
         N           -2.045520094565    -0.580596435953     0.195977581781    14.003074004430
         C            0.085536905435     0.627279564047     0.431657581781    12.000000000000
         C            0.877068905435    -0.652763435953     0.707768581781    12.000000000000
         C           -1.145071094565     0.388724564047    -0.437997418219    12.000000000000
         C            1.352547905435    -1.386478435953    -0.544557418219    12.000000000000
         H           -0.279811094565     1.001961564047     1.402608581781     1.007825032230
         H            0.262349905435    -1.311222435953     1.331929581781     1.007825032230
         H            1.746810905435    -0.385372435953     1.323104581781     1.007825032230
         H           -1.676770394565     1.333703764047    -0.604911618219     1.007825032230
         H           -0.812384094565     0.116267564047    -1.450642418219     1.007825032230
         H            2.006493905435    -2.221754435953    -0.276650418219     1.007825032230
         H            0.514689905435    -1.798593435953    -1.115383418219     1.007825032230
         H            1.902613905435    -0.708286435953    -1.199583418219     1.007825032230
         H            1.751854905435     1.808941564047     0.326579581781     1.007825032230
         H            0.449855905435     2.465545564047    -0.395682418219     1.007825032230
         H           -1.670794094565    -1.519927435953     0.073020581781     1.007825032230
         H           -2.942120094565    -0.576201435953    -0.287868418219     1.007825032230

  Basis Set: AUG-CC-PVTZ
    Blend: AUG-CC-PVTZ
  Basis Set: (AUG-CC-PVTZ AUX)
    Blend: AUG-CC-PVTZ-JKFIT
	 Reference Energy          =    -267.4444783352829518 [Eh]
	 Singles Energy            =      -0.0000000000000000 [Eh]
	 Same-Spin Energy          =      -0.2837164818647932 [Eh]
	 Opposite-Spin Energy      =      -0.9909429278405495 [Eh]
	 Correlation Energy        =      -1.2746594097053427 [Eh]
	 Total Energy              =    -268.7191377449883021 [Eh]

	 ================> DF-SCS-MP2 Energies <==================
	-----------------------------------------------------------
	 SCS Same-Spin Scale       =       0.3333333333333333 [-]
	 SCS Opposite-Spin Scale   =       1.2000000000000000 [-]
	 SCS Same-Spin Energy      =      -0.0945721606215977 [Eh]
	 SCS Opposite-Spin Energy  =      -1.1891315134086593 [Eh]
	 SCS Correlation Energy    =      -1.2837036740302570 [Eh]
	 SCS Total Energy          =    -268.7281820093132296 [Eh]
	-----------------------------------------------------------

  Dipole Moment: [D]
     X:    -0.2286      Y:     0.2558      Z:    -0.1236     Total:     0.3647

*** Psi4 exiting successfully. Buy a developer a beer!
