                               Psi4 1.4a3.dev225

  ==> Input File <==

--------------------------------------------------------------------------
#psi4
#
memory 32 gb

molecule  {
0 1
  N        0.9404650     1.6044440    -0.2603840
  N       -2.0577020    -0.5628020     0.2031370
  C        0.0733550     0.6450740     0.4388170
  C        0.7161057    -0.6731395     0.6705984
  C       -1.1572530     0.4065190    -0.4308380
  C        1.3403660    -1.3686840    -0.5373980
  H       -0.2919930     1.0197560     1.4097680
  H        0.2501680    -1.2934280     1.3390890
  H        1.7346290    -0.3675780     1.3302640
  H       -1.7030210     1.3537690    -0.5225160
  H       -0.8245660     0.1340620    -1.4434830
  H        1.9943120    -2.2039600    -0.2694910
  H        0.5025080    -1.7807990    -1.1082240
  H        1.8904320    -0.6904920    -1.1924240
  H        1.7396730     1.8267360     0.3337390
  H        0.4376740     2.4833400    -0.3885230
  H       -1.6829760    -1.5021330     0.0801800
  H       -2.9543020    -0.5584070    -0.2807090
units angstrom
no_reorient  #important for SAPT in psi4, default
symmetry c1  #important for SAPT in psi4, default
}

set PROPERTIES_ORIGIN ["COM"]
properties('MP2/aug-cc-pvtz', properties = ['dipole'])
--------------------------------------------------------------------------

    Molecular point group: c1
  Charge       = 0
  Multiplicity = 1
  Basis Set: AUG-CC-PVTZ
    Blend: AUG-CC-PVTZ
  Basis Set: (AUG-CC-PVTZ AUX)
    Blend: AUG-CC-PVTZ-JKFIT

    Orbital Energies [Eh]
    ---------------------

    Doubly Occupied:

       1A    -15.542598     2A    -15.541075     3A    -11.246131
       4A    -11.241388     5A    -11.221631     6A    -11.208397
       7A     -1.200460     8A     -1.160356     9A     -1.035978
      10A     -0.941985    11A     -0.865548    12A     -0.751448
      13A     -0.673330    14A     -0.668873    15A     -0.644817
      16A     -0.586968    17A     -0.577811    18A     -0.557663
      19A     -0.531985    20A     -0.518146    21A     -0.508816
      22A     -0.472269    23A     -0.422161    24A     -0.395013
      25A     -0.389231

  @DF-RHF Final Energy:  -267.41974556505915

   => Energetics <=

    Nuclear Repulsion Energy =            265.7998976597612000
    One-Electron Energy =                -888.6311294721352851
    Two-Electron Energy =                 355.4114862473149401
    Total Energy =                       -267.4197455650591451
  Basis Set: (AUG-CC-PVTZ AUX)
    Blend: AUG-CC-PVTZ-RI
    Molecular point group: c1

    Geometry (in Angstrom), charge = 0, multiplicity = 1:

       Center              X                  Y                   Z               Mass
    ------------   -----------------  -----------------  -----------------  -----------------
         N            0.973073164226     1.591822744303    -0.262366005918    14.003074004430
         N           -2.025093835774    -0.575423255697     0.201154994082    14.003074004430
         C            0.105963164226     0.632452744303     0.436834994082    12.000000000000
         C            0.748713864226    -0.685760755697     0.668616394082    12.000000000000
         C           -1.124644835774     0.393897744303    -0.432820005918    12.000000000000
         C            1.372974164226    -1.381305255697    -0.539380005918    12.000000000000
         H           -0.259384835774     1.007134744303     1.407785994082     1.007825032230
         H            0.282776164226    -1.306049255697     1.337106994082     1.007825032230
         H            1.767237164226    -0.380199255697     1.328281994082     1.007825032230
         H           -1.670412835774     1.341147744303    -0.524498005918     1.007825032230
         H           -0.791957835774     0.121440744303    -1.445465005918     1.007825032230
         H            2.026920164226    -2.216581255697    -0.271473005918     1.007825032230
         H            0.535116164226    -1.793420255697    -1.110206005918     1.007825032230
         H            1.923040164226    -0.703113255697    -1.194406005918     1.007825032230
         H            1.772281164226     1.814114744303     0.331756994082     1.007825032230
         H            0.470282164226     2.470718744303    -0.390505005918     1.007825032230
         H           -1.650367835774    -1.514754255697     0.078197994082     1.007825032230
         H           -2.921693835774    -0.571028255697    -0.282691005918     1.007825032230

  Basis Set: AUG-CC-PVTZ
    Blend: AUG-CC-PVTZ
  Basis Set: (AUG-CC-PVTZ AUX)
    Blend: AUG-CC-PVTZ-JKFIT
	 Reference Energy          =    -267.4197455650591451 [Eh]
	 Singles Energy            =      -0.0000000000000000 [Eh]
	 Same-Spin Energy          =      -0.2847438117037219 [Eh]
	 Opposite-Spin Energy      =      -0.9929613653227993 [Eh]
	 Correlation Energy        =      -1.2777051770265211 [Eh]
	 Total Energy              =    -268.6974507420856639 [Eh]

	 ================> DF-SCS-MP2 Energies <==================
	-----------------------------------------------------------
	 SCS Same-Spin Scale       =       0.3333333333333333 [-]
	 SCS Opposite-Spin Scale   =       1.2000000000000000 [-]
	 SCS Same-Spin Energy      =      -0.0949146039012406 [Eh]
	 SCS Opposite-Spin Energy  =      -1.1915536383873591 [Eh]
	 SCS Correlation Energy    =      -1.2864682422885996 [Eh]
	 SCS Total Energy          =    -268.7062138073477513 [Eh]
	-----------------------------------------------------------

  Dipole Moment: [D]
     X:    -0.3064      Y:     0.2315      Z:    -0.1642     Total:     0.4176

*** Psi4 exiting successfully. Buy a developer a beer!
