                               Psi4 1.4a3.dev225

  ==> Input File <==

--------------------------------------------------------------------------
#psi4
#
memory 32 gb

molecule  {
0 1
  N        0.9404650     1.6044440    -0.2603840
  N       -2.0577020    -0.5628020     0.2031370
  C        0.0733550     0.6450740     0.4388170
  C        0.8648870    -0.6349690     0.7149280
  C       -1.0916587     0.3743517    -0.5083139
  C        1.3403660    -1.3686840    -0.5373980
  H       -0.2919930     1.0197560     1.4097680
  H        0.2501680    -1.2934280     1.3390890
  H        1.7346290    -0.3675780     1.3302640
  H       -1.7030210     1.3537690    -0.5225160
  H       -0.8245660     0.1340620    -1.4434830
  H        1.9943120    -2.2039600    -0.2694910
  H        0.5025080    -1.7807990    -1.1082240
  H        1.8904320    -0.6904920    -1.1924240
  H        1.7396730     1.8267360     0.3337390
  H        0.4376740     2.4833400    -0.3885230
  H       -1.6829760    -1.5021330     0.0801800
  H       -2.9543020    -0.5584070    -0.2807090
units angstrom
no_reorient  #important for SAPT in psi4, default
symmetry c1  #important for SAPT in psi4, default
}

set PROPERTIES_ORIGIN ["COM"]
properties('MP2/aug-cc-pvtz', properties = ['dipole'])
--------------------------------------------------------------------------

    Molecular point group: c1
  Charge       = 0
  Multiplicity = 1
  Basis Set: AUG-CC-PVTZ
    Blend: AUG-CC-PVTZ
  Basis Set: (AUG-CC-PVTZ AUX)
    Blend: AUG-CC-PVTZ-JKFIT

    Orbital Energies [Eh]
    ---------------------

    Doubly Occupied:

       1A    -15.542211     2A    -15.537730     3A    -11.246884
       4A    -11.242143     5A    -11.214010     6A    -11.206673
       7A     -1.193747     8A     -1.150035     9A     -1.030144
      10A     -0.939924    11A     -0.867576    12A     -0.754489
      13A     -0.670040    14A     -0.662409    15A     -0.638860
      16A     -0.589372    17A     -0.588678    18A     -0.557800
      19A     -0.513790    20A     -0.510324    21A     -0.492851
      22A     -0.468370    23A     -0.445523    24A     -0.404306
      25A     -0.391829

  @DF-RHF Final Energy:  -267.43077330399160

   => Energetics <=

    Nuclear Repulsion Energy =            264.6915206967437939
    One-Electron Energy =                -886.5251568329895235
    Two-Electron Energy =                 354.4028628322541863
    Total Energy =                       -267.4307733039916002
  Basis Set: (AUG-CC-PVTZ AUX)
    Blend: AUG-CC-PVTZ-RI
    Molecular point group: c1

    Geometry (in Angstrom), charge = 0, multiplicity = 1:

       Center              X                  Y                   Z               Mass
    ------------   -----------------  -----------------  -----------------  -----------------
         N            0.943873325556     1.591005055763    -0.257851188874    14.003074004430
         N           -2.054293674444    -0.576240944237     0.205669811126    14.003074004430
         C            0.076763325556     0.631635055763     0.441349811126    12.000000000000
         C            0.868295325556    -0.648407944237     0.717460811126    12.000000000000
         C           -1.088250374444     0.360912755763    -0.505781088874    12.000000000000
         C            1.343774325556    -1.382122944237    -0.534865188874    12.000000000000
         H           -0.288584674444     1.006317055763     1.412300811126     1.007825032230
         H            0.253576325556    -1.306866944237     1.341621811126     1.007825032230
         H            1.738037325556    -0.381016944237     1.332796811126     1.007825032230
         H           -1.699612674444     1.340330055763    -0.519983188874     1.007825032230
         H           -0.821157674444     0.120623055763    -1.440950188874     1.007825032230
         H            1.997720325556    -2.217398944237    -0.266958188874     1.007825032230
         H            0.505916325556    -1.794237944237    -1.105691188874     1.007825032230
         H            1.893840325556    -0.703930944237    -1.189891188874     1.007825032230
         H            1.743081325556     1.813297055763     0.336271811126     1.007825032230
         H            0.441082325556     2.469901055763    -0.385990188874     1.007825032230
         H           -1.679567674444    -1.515571944237     0.082712811126     1.007825032230
         H           -2.950893674444    -0.571845944237    -0.278176188874     1.007825032230

  Basis Set: AUG-CC-PVTZ
    Blend: AUG-CC-PVTZ
  Basis Set: (AUG-CC-PVTZ AUX)
    Blend: AUG-CC-PVTZ-JKFIT
	 Reference Energy          =    -267.4307733039916002 [Eh]
	 Singles Energy            =      -0.0000000000000000 [Eh]
	 Same-Spin Energy          =      -0.2839372197667390 [Eh]
	 Opposite-Spin Energy      =      -0.9923166095496285 [Eh]
	 Correlation Energy        =      -1.2762538293163677 [Eh]
	 Total Energy              =    -268.7070271333079745 [Eh]

	 ================> DF-SCS-MP2 Energies <==================
	-----------------------------------------------------------
	 SCS Same-Spin Scale       =       0.3333333333333333 [-]
	 SCS Opposite-Spin Scale   =       1.2000000000000000 [-]
	 SCS Same-Spin Energy      =      -0.0946457399222463 [Eh]
	 SCS Opposite-Spin Energy  =      -1.1907799314595542 [Eh]
	 SCS Correlation Energy    =      -1.2854256713818004 [Eh]
	 SCS Total Energy          =    -268.7161989753734019 [Eh]
	-----------------------------------------------------------

  Dipole Moment: [D]
     X:    -0.1213      Y:     0.2371      Z:    -0.1628     Total:     0.3121

*** Psi4 exiting successfully. Buy a developer a beer!
