                               Psi4 1.4a3.dev225

  ==> Input File <==

--------------------------------------------------------------------------
#psi4
#
memory 32 gb

molecule  {
0 1
  N        0.9404650     1.6044440    -0.2603840
  N       -2.0577020    -0.5628020     0.2031370
  C        0.0733550     0.6450740     0.4388170
  C        0.8648870    -0.6349690     0.7149280
  C       -1.1572530     0.4065190    -0.4308380
  C        1.3403660    -1.3686840    -0.5373980
  H       -0.2919930     1.0197560     1.4097680
  H        0.2501680    -1.2934280     1.3390890
  H        1.7346290    -0.3675780     1.3302640
  H       -1.7030210     1.3537690    -0.5225160
  H       -0.8245660     0.1340620    -1.4434830
  H        1.9943120    -2.2039600    -0.2694910
  H        0.5025080    -1.7807990    -1.1082240
  H        1.8904320    -0.6904920    -1.1924240
  H        1.7396730     1.8267360     0.3337390
  H        0.4376740     2.4833400    -0.3885230
  H       -1.6686175    -1.4974661     0.0895716
  H       -2.9543020    -0.5584070    -0.2807090
units angstrom
no_reorient  #important for SAPT in psi4, default
symmetry c1  #important for SAPT in psi4, default
}

set PROPERTIES_ORIGIN ["COM"]
properties('MP2/aug-cc-pvtz', properties = ['dipole'])
--------------------------------------------------------------------------

    Molecular point group: c1
  Charge       = 0
  Multiplicity = 1
  Basis Set: AUG-CC-PVTZ
    Blend: AUG-CC-PVTZ
  Basis Set: (AUG-CC-PVTZ AUX)
    Blend: AUG-CC-PVTZ-JKFIT

    Orbital Energies [Eh]
    ---------------------

    Doubly Occupied:

       1A    -15.541424     2A    -15.538342     3A    -11.245463
       4A    -11.242326     5A    -11.214560     6A    -11.205721
       7A     -1.196876     8A     -1.159062     9A     -1.029505
      10A     -0.938479    11A     -0.863284    12A     -0.749966
      13A     -0.672646    14A     -0.662461    15A     -0.642903
      16A     -0.590197    17A     -0.579791    18A     -0.553392
      19A     -0.530874    20A     -0.515097    21A     -0.491896
      22A     -0.468416    23A     -0.453187    24A     -0.393579
      25A     -0.388658

  @DF-RHF Final Energy:  -267.44501062971051

   => Energetics <=

    Nuclear Repulsion Energy =            264.7540132669435025
    One-Electron Energy =                -886.6618369226638379
    Two-Electron Energy =                 354.4628130260098260
    Total Energy =                       -267.4450106297105094
  Basis Set: (AUG-CC-PVTZ AUX)
    Blend: AUG-CC-PVTZ-RI
    Molecular point group: c1

    Geometry (in Angstrom), charge = 0, multiplicity = 1:

       Center              X                  Y                   Z               Mass
    ------------   -----------------  -----------------  -----------------  -----------------
         N            0.952643590253     1.586570199872    -0.268511522287    14.003074004430
         N           -2.045523409747    -0.580675800128     0.195009477713    14.003074004430
         C            0.085533590253     0.627200199872     0.430689477713    12.000000000000
         C            0.877065590253    -0.652842800128     0.706800477713    12.000000000000
         C           -1.145074409747     0.388645199872    -0.438965522287    12.000000000000
         C            1.352544590253    -1.386557800128    -0.545525522287    12.000000000000
         H           -0.279814409747     1.001882199872     1.401640477713     1.007825032230
         H            0.262346590253    -1.311301800128     1.330961477713     1.007825032230
         H            1.746807590253    -0.385451800128     1.322136477713     1.007825032230
         H           -1.690842409747     1.335895199872    -0.530643522287     1.007825032230
         H           -0.812387409747     0.116188199872    -1.451610522287     1.007825032230
         H            2.006490590253    -2.221833800128    -0.277618522287     1.007825032230
         H            0.514686590253    -1.798672800128    -1.116351522287     1.007825032230
         H            1.902610590253    -0.708365800128    -1.200551522287     1.007825032230
         H            1.751851590253     1.808862199872     0.325611477713     1.007825032230
         H            0.449852590253     2.465466199872    -0.396650522287     1.007825032230
         H           -1.656438909747    -1.515339900128     0.081444077713     1.007825032230
         H           -2.942123409747    -0.576280800128    -0.288836522287     1.007825032230

  Basis Set: AUG-CC-PVTZ
    Blend: AUG-CC-PVTZ
  Basis Set: (AUG-CC-PVTZ AUX)
    Blend: AUG-CC-PVTZ-JKFIT
	 Reference Energy          =    -267.4450106297105094 [Eh]
	 Singles Energy            =      -0.0000000000000000 [Eh]
	 Same-Spin Energy          =      -0.2837222324378399 [Eh]
	 Opposite-Spin Energy      =      -0.9909960571047733 [Eh]
	 Correlation Energy        =      -1.2747182895426132 [Eh]
	 Total Energy              =    -268.7197289192531002 [Eh]

	 ================> DF-SCS-MP2 Energies <==================
	-----------------------------------------------------------
	 SCS Same-Spin Scale       =       0.3333333333333333 [-]
	 SCS Opposite-Spin Scale   =       1.2000000000000000 [-]
	 SCS Same-Spin Energy      =      -0.0945740774792800 [Eh]
	 SCS Opposite-Spin Energy  =      -1.1891952685257279 [Eh]
	 SCS Correlation Energy    =      -1.2837693460050079 [Eh]
	 SCS Total Energy          =    -268.7287799757154971 [Eh]
	-----------------------------------------------------------

  Dipole Moment: [D]
     X:    -0.2113      Y:     0.2588      Z:    -0.0941     Total:     0.3471

*** Psi4 exiting successfully. Buy a developer a beer!
