                               Psi4 1.4a3.dev225

  ==> Input File <==

--------------------------------------------------------------------------
#psi4
#
memory 32 gb

molecule  {
0 1
  N        0.8613221     1.6697455    -0.2614035
  N       -2.0577020    -0.5628020     0.2031370
  C        0.0733550     0.6450740     0.4388170
  C        0.8648870    -0.6349690     0.7149280
  C       -1.1572530     0.4065190    -0.4308380
  C        1.3403660    -1.3686840    -0.5373980
  H       -0.2919930     1.0197560     1.4097680
  H        0.2501680    -1.2934280     1.3390890
  H        1.7346290    -0.3675780     1.3302640
  H       -1.7030210     1.3537690    -0.5225160
  H       -0.8245660     0.1340620    -1.4434830
  H        1.9943120    -2.2039600    -0.2694910
  H        0.5025080    -1.7807990    -1.1082240
  H        1.8904320    -0.6904920    -1.1924240
  H        1.7396730     1.8267360     0.3337390
  H        0.4376740     2.4833400    -0.3885230
  H       -1.6829760    -1.5021330     0.0801800
  H       -2.9543020    -0.5584070    -0.2807090
units angstrom
no_reorient  #important for SAPT in psi4, default
symmetry c1  #important for SAPT in psi4, default
}

set PROPERTIES_ORIGIN ["COM"]
properties('MP2/aug-cc-pvtz', properties = ['dipole'])
--------------------------------------------------------------------------

    Molecular point group: c1
  Charge       = 0
  Multiplicity = 1
  Basis Set: AUG-CC-PVTZ
    Blend: AUG-CC-PVTZ
  Basis Set: (AUG-CC-PVTZ AUX)
    Blend: AUG-CC-PVTZ-JKFIT

    Orbital Energies [Eh]
    ---------------------

    Doubly Occupied:

       1A    -15.540129     2A    -15.531057     3A    -11.245921
       4A    -11.240781     5A    -11.217428     6A    -11.207519
       7A     -1.198430     8A     -1.160006     9A     -1.034206
      10A     -0.939126    11A     -0.864858    12A     -0.754496
      13A     -0.677572    14A     -0.669332    15A     -0.634233
      16A     -0.590979    17A     -0.582587    18A     -0.562503
      19A     -0.528326    20A     -0.511595    21A     -0.492929
      22A     -0.471945    23A     -0.454422    24A     -0.391768
      25A     -0.383224

  @DF-RHF Final Energy:  -267.43442798681860

   => Energetics <=

    Nuclear Repulsion Energy =            264.6459505312309943
    One-Electron Energy =                -886.3900161898218357
    Two-Electron Energy =                 354.3096376717722933
    Total Energy =                       -267.4344279868186049
  Basis Set: (AUG-CC-PVTZ AUX)
    Blend: AUG-CC-PVTZ-RI
    Molecular point group: c1

    Geometry (in Angstrom), charge = 0, multiplicity = 1:

       Center              X                  Y                   Z               Mass
    ------------   -----------------  -----------------  -----------------  -----------------
         N            0.886244323904     1.641545731441    -0.269261542032    14.003074004430
         N           -2.032779776096    -0.591001768559     0.195278957968    14.003074004430
         C            0.098277223904     0.616874231441     0.430958957968    12.000000000000
         C            0.889809223904    -0.663168768559     0.707069957968    12.000000000000
         C           -1.132330776096     0.378319231441    -0.438696042032    12.000000000000
         C            1.365288223904    -1.396883768559    -0.545256042032    12.000000000000
         H           -0.267070776096     0.991556231441     1.401909957968     1.007825032230
         H            0.275090223904    -1.321627768559     1.331230957968     1.007825032230
         H            1.759551223904    -0.395777768559     1.322405957968     1.007825032230
         H           -1.678098776096     1.325569231441    -0.530374042032     1.007825032230
         H           -0.799643776096     0.105862231441    -1.451341042032     1.007825032230
         H            2.019234223904    -2.232159768559    -0.277349042032     1.007825032230
         H            0.527430223904    -1.808998768559    -1.116082042032     1.007825032230
         H            1.915354223904    -0.718691768559    -1.200282042032     1.007825032230
         H            1.764595223904     1.798536231441     0.325880957968     1.007825032230
         H            0.462596223904     2.455140231441    -0.396381042032     1.007825032230
         H           -1.658053776096    -1.530332768559     0.072321957968     1.007825032230
         H           -2.929379776096    -0.586606768559    -0.288567042032     1.007825032230

  Basis Set: AUG-CC-PVTZ
    Blend: AUG-CC-PVTZ
  Basis Set: (AUG-CC-PVTZ AUX)
    Blend: AUG-CC-PVTZ-JKFIT
	 Reference Energy          =    -267.4344279868186049 [Eh]
	 Singles Energy            =      -0.0000000000000000 [Eh]
	 Same-Spin Energy          =      -0.2833811186003296 [Eh]
	 Opposite-Spin Energy      =      -0.9902476115509610 [Eh]
	 Correlation Energy        =      -1.2736287301512905 [Eh]
	 Total Energy              =    -268.7080567169699066 [Eh]

	 ================> DF-SCS-MP2 Energies <==================
	-----------------------------------------------------------
	 SCS Same-Spin Scale       =       0.3333333333333333 [-]
	 SCS Opposite-Spin Scale   =       1.2000000000000000 [-]
	 SCS Same-Spin Energy      =      -0.0944603728667765 [Eh]
	 SCS Opposite-Spin Energy  =      -1.1882971338611532 [Eh]
	 SCS Correlation Energy    =      -1.2827575067279298 [Eh]
	 SCS Total Energy          =    -268.7171854935465376 [Eh]
	-----------------------------------------------------------

  Dipole Moment: [D]
     X:    -0.0973      Y:     0.1290      Z:    -0.1171     Total:     0.1996

*** Psi4 exiting successfully. Buy a developer a beer!
