                               Psi4 1.4a3.dev225

  ==> Input File <==

--------------------------------------------------------------------------
#psi4
#
memory 32 gb

molecule  {
0 1
  N        0.9404650     1.6044440    -0.2603840
  N       -2.0577020    -0.5628020     0.2031370
  C        0.0733550     0.6450740     0.4388170
  C        0.9670718    -0.6139657     0.7368823
  C       -1.1572530     0.4065190    -0.4308380
  C        1.3403660    -1.3686840    -0.5373980
  H       -0.2919930     1.0197560     1.4097680
  H        0.2501680    -1.2934280     1.3390890
  H        1.7346290    -0.3675780     1.3302640
  H       -1.7030210     1.3537690    -0.5225160
  H       -0.8245660     0.1340620    -1.4434830
  H        1.9943120    -2.2039600    -0.2694910
  H        0.5025080    -1.7807990    -1.1082240
  H        1.8904320    -0.6904920    -1.1924240
  H        1.7396730     1.8267360     0.3337390
  H        0.4376740     2.4833400    -0.3885230
  H       -1.6829760    -1.5021330     0.0801800
  H       -2.9543020    -0.5584070    -0.2807090
units angstrom
no_reorient  #important for SAPT in psi4, default
symmetry c1  #important for SAPT in psi4, default
}

set PROPERTIES_ORIGIN ["COM"]
properties('MP2/aug-cc-pvtz', properties = ['dipole'])
--------------------------------------------------------------------------

    Molecular point group: c1
  Charge       = 0
  Multiplicity = 1
  Basis Set: AUG-CC-PVTZ
    Blend: AUG-CC-PVTZ
  Basis Set: (AUG-CC-PVTZ AUX)
    Blend: AUG-CC-PVTZ-JKFIT

    Orbital Energies [Eh]
    ---------------------

    Doubly Occupied:

       1A    -15.541504     2A    -15.536980     3A    -11.247081
       4A    -11.244047     5A    -11.213572     6A    -11.205959
       7A     -1.195242     8A     -1.158946     9A     -1.027058
      10A     -0.937816    11A     -0.863682    12A     -0.755881
      13A     -0.670840    14A     -0.657875    15A     -0.642662
      16A     -0.597803    17A     -0.579021    18A     -0.551922
      19A     -0.532788    20A     -0.518574    21A     -0.491526
      22A     -0.471192    23A     -0.440285    24A     -0.394018
      25A     -0.386861

  @DF-RHF Final Energy:  -267.43195451254593

   => Energetics <=

    Nuclear Repulsion Energy =            263.9650424792255876
    One-Electron Energy =                -885.0677259932198240
    Two-Electron Energy =                 353.6707290014482510
    Total Energy =                       -267.4319545125459285
  Basis Set: (AUG-CC-PVTZ AUX)
    Blend: AUG-CC-PVTZ-RI
    Molecular point group: c1

    Geometry (in Angstrom), charge = 0, multiplicity = 1:

       Center              X                  Y                   Z               Mass
    ------------   -----------------  -----------------  -----------------  -----------------
         N            0.938889378237     1.583762753271    -0.271394454988    14.003074004430
         N           -2.059277621763    -0.583483246729     0.192126545012    14.003074004430
         C            0.071779378237     0.624392753271     0.427806545012    12.000000000000
         C            0.965496178237    -0.634646946729     0.725871845012    12.000000000000
         C           -1.158828621763     0.385837753271    -0.441848454988    12.000000000000
         C            1.338790378237    -1.389365246729    -0.548408454988    12.000000000000
         H           -0.293568621763     0.999074753271     1.398757545012     1.007825032230
         H            0.248592378237    -1.314109246729     1.328078545012     1.007825032230
         H            1.733053378237    -0.388259246729     1.319253545012     1.007825032230
         H           -1.704596621763     1.333087753271    -0.533526454988     1.007825032230
         H           -0.826141621763     0.113380753271    -1.454493454988     1.007825032230
         H            1.992736378237    -2.224641246729    -0.280501454988     1.007825032230
         H            0.500932378237    -1.801480246729    -1.119234454988     1.007825032230
         H            1.888856378237    -0.711173246729    -1.203434454988     1.007825032230
         H            1.738097378237     1.806054753271     0.322728545012     1.007825032230
         H            0.436098378237     2.462658753271    -0.399533454988     1.007825032230
         H           -1.684551621763    -1.522814246729     0.069169545012     1.007825032230
         H           -2.955877621763    -0.579088246729    -0.291719454988     1.007825032230

  Basis Set: AUG-CC-PVTZ
    Blend: AUG-CC-PVTZ
  Basis Set: (AUG-CC-PVTZ AUX)
    Blend: AUG-CC-PVTZ-JKFIT
	 Reference Energy          =    -267.4319545125459285 [Eh]
	 Singles Energy            =      -0.0000000000000000 [Eh]
	 Same-Spin Energy          =      -0.2836177830698054 [Eh]
	 Opposite-Spin Energy      =      -0.9913758619950426 [Eh]
	 Correlation Energy        =      -1.2749936450648480 [Eh]
	 Total Energy              =    -268.7069481576107819 [Eh]

	 ================> DF-SCS-MP2 Energies <==================
	-----------------------------------------------------------
	 SCS Same-Spin Scale       =       0.3333333333333333 [-]
	 SCS Opposite-Spin Scale   =       1.2000000000000000 [-]
	 SCS Same-Spin Energy      =      -0.0945392610232685 [Eh]
	 SCS Opposite-Spin Energy  =      -1.1896510343940510 [Eh]
	 SCS Correlation Energy    =      -1.2841902954173194 [Eh]
	 SCS Total Energy          =    -268.7161448079632464 [Eh]
	-----------------------------------------------------------

  Dipole Moment: [D]
     X:    -0.2035      Y:     0.2817      Z:    -0.1195     Total:     0.3675

*** Psi4 exiting successfully. Buy a developer a beer!
