                               Psi4 1.4a3.dev225

  ==> Input File <==

--------------------------------------------------------------------------
#psi4
#
memory 32 gb

molecule  {
0 1
  N        0.9404650     1.6044440    -0.2603840
  N       -2.0577020    -0.5628020     0.2031370
  C        0.0733550     0.6450740     0.4388170
  C        0.8648870    -0.6349690     0.7149280
  C       -1.1572530     0.4065190    -0.4308380
  C        1.3403660    -1.3686840    -0.5373980
  H       -0.2919930     1.0197560     1.4097680
  H        0.2008648    -1.2982095     1.2808001
  H        1.7346290    -0.3675780     1.3302640
  H       -1.7030210     1.3537690    -0.5225160
  H       -0.8245660     0.1340620    -1.4434830
  H        1.9943120    -2.2039600    -0.2694910
  H        0.5025080    -1.7807990    -1.1082240
  H        1.8904320    -0.6904920    -1.1924240
  H        1.7396730     1.8267360     0.3337390
  H        0.4376740     2.4833400    -0.3885230
  H       -1.6829760    -1.5021330     0.0801800
  H       -2.9543020    -0.5584070    -0.2807090
units angstrom
no_reorient  #important for SAPT in psi4, default
symmetry c1  #important for SAPT in psi4, default
}

set PROPERTIES_ORIGIN ["COM"]
properties('MP2/aug-cc-pvtz', properties = ['dipole'])
--------------------------------------------------------------------------

    Molecular point group: c1
  Charge       = 0
  Multiplicity = 1
  Basis Set: AUG-CC-PVTZ
    Blend: AUG-CC-PVTZ
  Basis Set: (AUG-CC-PVTZ AUX)
    Blend: AUG-CC-PVTZ-JKFIT

    Orbital Energies [Eh]
    ---------------------

    Doubly Occupied:

       1A    -15.542017     2A    -15.538177     3A    -11.245070
       4A    -11.242703     5A    -11.214377     6A    -11.205062
       7A     -1.197105     8A     -1.159435     9A     -1.029810
      10A     -0.938802    11A     -0.862841    12A     -0.748659
      13A     -0.672915    14A     -0.662419    15A     -0.643046
      16A     -0.592241    17A     -0.579797    18A     -0.553723
      19A     -0.531341    20A     -0.515038    21A     -0.489099
      22A     -0.470989    23A     -0.451260    24A     -0.394292
      25A     -0.388732

  @DF-RHF Final Energy:  -267.44435589340327

   => Energetics <=

    Nuclear Repulsion Energy =            264.8359053681493265
    One-Electron Energy =                -886.8226190541543019
    Two-Electron Energy =                 354.5423577926017629
    Total Energy =                       -267.4443558934032694
  Basis Set: (AUG-CC-PVTZ AUX)
    Blend: AUG-CC-PVTZ-RI
    Molecular point group: c1

    Geometry (in Angstrom), charge = 0, multiplicity = 1:

       Center              X                  Y                   Z               Mass
    ------------   -----------------  -----------------  -----------------  -----------------
         N            0.953371851543     1.586678285329    -0.267737287728    14.003074004430
         N           -2.044795148457    -0.580567714671     0.195783712272    14.003074004430
         C            0.086261851543     0.627308285329     0.431463712272    12.000000000000
         C            0.877793851543    -0.652734714671     0.707574712272    12.000000000000
         C           -1.144346148457     0.388753285329    -0.438191287728    12.000000000000
         C            1.353272851543    -1.386449714671    -0.544751287728    12.000000000000
         H           -0.279086148457     1.001990285329     1.402414712272     1.007825032230
         H            0.213771651543    -1.315975214671     1.273446812272     1.007825032230
         H            1.747535851543    -0.385343714671     1.322910712272     1.007825032230
         H           -1.690114148457     1.336003285329    -0.529869287728     1.007825032230
         H           -0.811659148457     0.116296285329    -1.450836287728     1.007825032230
         H            2.007218851543    -2.221725714671    -0.276844287728     1.007825032230
         H            0.515414851543    -1.798564714671    -1.115577287728     1.007825032230
         H            1.903338851543    -0.708257714671    -1.199777287728     1.007825032230
         H            1.752579851543     1.808970285329     0.326385712272     1.007825032230
         H            0.450580851543     2.465574285329    -0.395876287728     1.007825032230
         H           -1.670069148457    -1.519898714671     0.072826712272     1.007825032230
         H           -2.941395148457    -0.576172714671    -0.288062287728     1.007825032230

  Basis Set: AUG-CC-PVTZ
    Blend: AUG-CC-PVTZ
  Basis Set: (AUG-CC-PVTZ AUX)
    Blend: AUG-CC-PVTZ-JKFIT
	 Reference Energy          =    -267.4443558934032694 [Eh]
	 Singles Energy            =      -0.0000000000000000 [Eh]
	 Same-Spin Energy          =      -0.2837817144600956 [Eh]
	 Opposite-Spin Energy      =      -0.9911406206874530 [Eh]
	 Correlation Energy        =      -1.2749223351475485 [Eh]
	 Total Energy              =    -268.7192782285508201 [Eh]

	 ================> DF-SCS-MP2 Energies <==================
	-----------------------------------------------------------
	 SCS Same-Spin Scale       =       0.3333333333333333 [-]
	 SCS Opposite-Spin Scale   =       1.2000000000000000 [-]
	 SCS Same-Spin Energy      =      -0.0945939048200319 [Eh]
	 SCS Opposite-Spin Energy  =      -1.1893687448249435 [Eh]
	 SCS Correlation Energy    =      -1.2839626496449754 [Eh]
	 SCS Total Energy          =    -268.7283185430482604 [Eh]
	-----------------------------------------------------------

  Dipole Moment: [D]
     X:    -0.2445      Y:     0.2647      Z:    -0.1218     Total:     0.3803

*** Psi4 exiting successfully. Buy a developer a beer!
