                               Psi4 1.4a3.dev225

  ==> Input File <==

--------------------------------------------------------------------------
#psi4
#
memory 32 gb

molecule  {
0 1
  N        0.9404650     1.6044440    -0.2603840
  N       -2.0577020    -0.5628020     0.2031370
  C        0.0733550     0.6450740     0.4388170
  C        0.7650187    -0.6595469     0.6868725
  C       -1.1572530     0.4065190    -0.4308380
  C        1.3403660    -1.3686840    -0.5373980
  H       -0.2919930     1.0197560     1.4097680
  H        0.2501680    -1.2934280     1.3390890
  H        1.7346290    -0.3675780     1.3302640
  H       -1.7030210     1.3537690    -0.5225160
  H       -0.8245660     0.1340620    -1.4434830
  H        1.9943120    -2.2039600    -0.2694910
  H        0.5025080    -1.7807990    -1.1082240
  H        1.8904320    -0.6904920    -1.1924240
  H        1.7396730     1.8267360     0.3337390
  H        0.4376740     2.4833400    -0.3885230
  H       -1.6829760    -1.5021330     0.0801800
  H       -2.9543020    -0.5584070    -0.2807090
units angstrom
no_reorient  #important for SAPT in psi4, default
symmetry c1  #important for SAPT in psi4, default
}

set PROPERTIES_ORIGIN ["COM"]
properties('MP2/aug-cc-pvtz', properties = ['dipole'])
--------------------------------------------------------------------------

    Molecular point group: c1
  Charge       = 0
  Multiplicity = 1
  Basis Set: AUG-CC-PVTZ
    Blend: AUG-CC-PVTZ
  Basis Set: (AUG-CC-PVTZ AUX)
    Blend: AUG-CC-PVTZ-JKFIT

    Orbital Energies [Eh]
    ---------------------

    Doubly Occupied:

       1A    -15.542114     2A    -15.540074     3A    -11.245439
       4A    -11.241568     5A    -11.218380     6A    -11.207049
       7A     -1.199108     8A     -1.159847     9A     -1.033477
      10A     -0.940616    11A     -0.864611    12A     -0.749813
      13A     -0.672441    14A     -0.666985    15A     -0.644060
      16A     -0.584419    17A     -0.581093    18A     -0.556083
      19A     -0.531295    20A     -0.515970    21A     -0.503341
      22A     -0.470437    23A     -0.435297    24A     -0.394439
      25A     -0.389850

  @DF-RHF Final Energy:  -267.43303168944203

   => Energetics <=

    Nuclear Repulsion Energy =            265.4571882767054376
    One-Electron Energy =                -888.0048281180897902
    Two-Electron Energy =                 355.1146081519423205
    Total Energy =                       -267.4330316894420321
  Basis Set: (AUG-CC-PVTZ AUX)
    Blend: AUG-CC-PVTZ-RI
    Molecular point group: c1

    Geometry (in Angstrom), charge = 0, multiplicity = 1:

       Center              X                  Y                   Z               Mass
    ------------   -----------------  -----------------  -----------------  -----------------
         N            0.966410784231     1.589971312857    -0.264582681204    14.003074004430
         N           -2.031756215769    -0.577274687143     0.198938318796    14.003074004430
         C            0.099300784231     0.630601312857     0.434618318796    12.000000000000
         C            0.790964484231    -0.674019587143     0.682673818796    12.000000000000
         C           -1.131307215769     0.392046312857    -0.435036681204    12.000000000000
         C            1.366311784231    -1.383156687143    -0.541596681204    12.000000000000
         H           -0.266047215769     1.005283312857     1.405569318796     1.007825032230
         H            0.276113784231    -1.307900687143     1.334890318796     1.007825032230
         H            1.760574784231    -0.382050687143     1.326065318796     1.007825032230
         H           -1.677075215769     1.339296312857    -0.526714681204     1.007825032230
         H           -0.798620215769     0.119589312857    -1.447681681204     1.007825032230
         H            2.020257784231    -2.218432687143    -0.273689681204     1.007825032230
         H            0.528453784231    -1.795271687143    -1.112422681204     1.007825032230
         H            1.916377784231    -0.704964687143    -1.196622681204     1.007825032230
         H            1.765618784231     1.812263312857     0.329540318796     1.007825032230
         H            0.463619784231     2.468867312857    -0.392721681204     1.007825032230
         H           -1.657030215769    -1.516605687143     0.075981318796     1.007825032230
         H           -2.928356215769    -0.572879687143    -0.284907681204     1.007825032230

  Basis Set: AUG-CC-PVTZ
    Blend: AUG-CC-PVTZ
  Basis Set: (AUG-CC-PVTZ AUX)
    Blend: AUG-CC-PVTZ-JKFIT
	 Reference Energy          =    -267.4330316894420321 [Eh]
	 Singles Energy            =      -0.0000000000000000 [Eh]
	 Same-Spin Energy          =      -0.2842829939831573 [Eh]
	 Opposite-Spin Energy      =      -0.9919903944230570 [Eh]
	 Correlation Energy        =      -1.2762733884062143 [Eh]
	 Total Energy              =    -268.7093050778482279 [Eh]

	 ================> DF-SCS-MP2 Energies <==================
	-----------------------------------------------------------
	 SCS Same-Spin Scale       =       0.3333333333333333 [-]
	 SCS Opposite-Spin Scale   =       1.2000000000000000 [-]
	 SCS Same-Spin Energy      =      -0.0947609979943858 [Eh]
	 SCS Opposite-Spin Energy  =      -1.1903884733076684 [Eh]
	 SCS Correlation Energy    =      -1.2851494713020541 [Eh]
	 SCS Total Energy          =    -268.7181811607441091 [Eh]
	-----------------------------------------------------------

  Dipole Moment: [D]
     X:    -0.2718      Y:     0.2385      Z:    -0.1340     Total:     0.3856

*** Psi4 exiting successfully. Buy a developer a beer!
