                               Psi4 1.4a3.dev225

  ==> Input File <==

--------------------------------------------------------------------------
#psi4
#
memory 32 gb

molecule  {
0 1
  N        0.9404650     1.6044440    -0.2603840
  N       -2.0577020    -0.5628020     0.2031370
  C        0.0733550     0.6450740     0.4388170
  C        0.8994921    -0.6062428     0.7437337
  C       -1.1572530     0.4065190    -0.4308380
  C        1.3403660    -1.3686840    -0.5373980
  H       -0.2919930     1.0197560     1.4097680
  H        0.2501680    -1.2934280     1.3390890
  H        1.7346290    -0.3675780     1.3302640
  H       -1.7030210     1.3537690    -0.5225160
  H       -0.8245660     0.1340620    -1.4434830
  H        1.9943120    -2.2039600    -0.2694910
  H        0.5025080    -1.7807990    -1.1082240
  H        1.8904320    -0.6904920    -1.1924240
  H        1.7396730     1.8267360     0.3337390
  H        0.4376740     2.4833400    -0.3885230
  H       -1.6829760    -1.5021330     0.0801800
  H       -2.9543020    -0.5584070    -0.2807090
units angstrom
no_reorient  #important for SAPT in psi4, default
symmetry c1  #important for SAPT in psi4, default
}

set PROPERTIES_ORIGIN ["COM"]
properties('MP2/aug-cc-pvtz', properties = ['dipole'])
--------------------------------------------------------------------------

    Molecular point group: c1
  Charge       = 0
  Multiplicity = 1
  Basis Set: AUG-CC-PVTZ
    Blend: AUG-CC-PVTZ
  Basis Set: (AUG-CC-PVTZ AUX)
    Blend: AUG-CC-PVTZ-JKFIT

    Orbital Energies [Eh]
    ---------------------

    Doubly Occupied:

       1A    -15.541618     2A    -15.537815     3A    -11.245308
       4A    -11.243410     5A    -11.213277     6A    -11.206234
       7A     -1.196705     8A     -1.159344     9A     -1.025661
      10A     -0.937391    11A     -0.865303    12A     -0.752623
      13A     -0.671510    14A     -0.660961    15A     -0.643015
      16A     -0.593538    17A     -0.578694    18A     -0.551878
      19A     -0.531005    20A     -0.516295    21A     -0.481196
      22A     -0.474523    23A     -0.455202    24A     -0.394250
      25A     -0.387225

  @DF-RHF Final Energy:  -267.44223796890901

   => Energetics <=

    Nuclear Repulsion Energy =            264.4022759877161661
    One-Electron Energy =                -885.9610671130604942
    Two-Electron Energy =                 354.1165531564353159
    Total Energy =                       -267.4422379689090121
  Basis Set: (AUG-CC-PVTZ AUX)
    Blend: AUG-CC-PVTZ-RI
    Molecular point group: c1

    Geometry (in Angstrom), charge = 0, multiplicity = 1:

       Center              X                  Y                   Z               Mass
    ------------   -----------------  -----------------  -----------------  -----------------
         N            0.948094326642     1.582710826494    -0.272327675814    14.003074004430
         N           -2.050072673358    -0.584535173506     0.191193324186    14.003074004430
         C            0.080984326642     0.623340826494     0.426873324186    12.000000000000
         C            0.907121426642    -0.627975973506     0.731790024186    12.000000000000
         C           -1.149623673358     0.384785826494    -0.442781675814    12.000000000000
         C            1.347995326642    -1.390417173506    -0.549341675814    12.000000000000
         H           -0.284363673358     0.998022826494     1.397824324186     1.007825032230
         H            0.257797326642    -1.315161173506     1.327145324186     1.007825032230
         H            1.742258326642    -0.389311173506     1.318320324186     1.007825032230
         H           -1.695391673358     1.332035826494    -0.534459675814     1.007825032230
         H           -0.816936673358     0.112328826494    -1.455426675814     1.007825032230
         H            2.001941326642    -2.225693173506    -0.281434675814     1.007825032230
         H            0.510137326642    -1.802532173506    -1.120167675814     1.007825032230
         H            1.898061326642    -0.712225173506    -1.204367675814     1.007825032230
         H            1.747302326642     1.805002826494     0.321795324186     1.007825032230
         H            0.445303326642     2.461606826494    -0.400466675814     1.007825032230
         H           -1.675346673358    -1.523866173506     0.068236324186     1.007825032230
         H           -2.946672673358    -0.580140173506    -0.292652675814     1.007825032230

  Basis Set: AUG-CC-PVTZ
    Blend: AUG-CC-PVTZ
  Basis Set: (AUG-CC-PVTZ AUX)
    Blend: AUG-CC-PVTZ-JKFIT
	 Reference Energy          =    -267.4422379689090121 [Eh]
	 Singles Energy            =      -0.0000000000000000 [Eh]
	 Same-Spin Energy          =      -0.2835375443952179 [Eh]
	 Opposite-Spin Energy      =      -0.9909289691548332 [Eh]
	 Correlation Energy        =      -1.2744665135500510 [Eh]
	 Total Energy              =    -268.7167044824590789 [Eh]

	 ================> DF-SCS-MP2 Energies <==================
	-----------------------------------------------------------
	 SCS Same-Spin Scale       =       0.3333333333333333 [-]
	 SCS Opposite-Spin Scale   =       1.2000000000000000 [-]
	 SCS Same-Spin Energy      =      -0.0945125147984060 [Eh]
	 SCS Opposite-Spin Energy  =      -1.1891147629857999 [Eh]
	 SCS Correlation Energy    =      -1.2836272777842059 [Eh]
	 SCS Total Energy          =    -268.7258652466932176 [Eh]
	-----------------------------------------------------------

  Dipole Moment: [D]
     X:    -0.2182      Y:     0.2737      Z:    -0.0947     Total:     0.3626

*** Psi4 exiting successfully. Buy a developer a beer!
