                               Psi4 1.4a3.dev225

  ==> Input File <==

--------------------------------------------------------------------------
#psi4
#
memory 32 gb

molecule  {
0 1
  N        0.9062090     1.6062198    -0.2985469
  N       -2.0577020    -0.5628020     0.2031370
  C        0.0733550     0.6450740     0.4388170
  C        0.8648870    -0.6349690     0.7149280
  C       -1.1572530     0.4065190    -0.4308380
  C        1.3403660    -1.3686840    -0.5373980
  H       -0.2919930     1.0197560     1.4097680
  H        0.2501680    -1.2934280     1.3390890
  H        1.7346290    -0.3675780     1.3302640
  H       -1.7030210     1.3537690    -0.5225160
  H       -0.8245660     0.1340620    -1.4434830
  H        1.9943120    -2.2039600    -0.2694910
  H        0.5025080    -1.7807990    -1.1082240
  H        1.8904320    -0.6904920    -1.1924240
  H        1.7396730     1.8267360     0.3337390
  H        0.4376740     2.4833400    -0.3885230
  H       -1.6829760    -1.5021330     0.0801800
  H       -2.9543020    -0.5584070    -0.2807090
units angstrom
no_reorient  #important for SAPT in psi4, default
symmetry c1  #important for SAPT in psi4, default
}

set PROPERTIES_ORIGIN ["COM"]
properties('MP2/aug-cc-pvtz', properties = ['dipole'])
--------------------------------------------------------------------------

    Molecular point group: c1
  Charge       = 0
  Multiplicity = 1
  Basis Set: AUG-CC-PVTZ
    Blend: AUG-CC-PVTZ
  Basis Set: (AUG-CC-PVTZ AUX)
    Blend: AUG-CC-PVTZ-JKFIT

    Orbital Energies [Eh]
    ---------------------

    Doubly Occupied:

       1A    -15.542293     2A    -15.540576     3A    -11.245619
       4A    -11.241217     5A    -11.215346     6A    -11.205989
       7A     -1.196754     8A     -1.157871     9A     -1.029858
      10A     -0.937257    11A     -0.863710    12A     -0.749869
      13A     -0.671296    14A     -0.665739    15A     -0.633318
      16A     -0.589490    17A     -0.578546    18A     -0.557485
      19A     -0.528493    20A     -0.510888    21A     -0.493066
      22A     -0.468165    23A     -0.453213    24A     -0.394860
      25A     -0.390550

  @DF-RHF Final Energy:  -267.44117304228303

   => Energetics <=

    Nuclear Repulsion Energy =            264.7541680593575961
    One-Electron Energy =                -886.6677480939292764
    Two-Electron Energy =                 354.4724069922885974
    Total Energy =                       -267.4411730422830260
  Basis Set: (AUG-CC-PVTZ AUX)
    Blend: AUG-CC-PVTZ-RI
    Molecular point group: c1

    Geometry (in Angstrom), charge = 0, multiplicity = 1:

       Center              X                  Y                   Z               Mass
    ------------   -----------------  -----------------  -----------------  -----------------
         N            0.923996669565     1.588117132345    -0.300501179339    14.003074004430
         N           -2.039914330435    -0.580904667655     0.201182720661    14.003074004430
         C            0.091142669565     0.626971332345     0.436862720661    12.000000000000
         C            0.882674669565    -0.653071667655     0.712973720661    12.000000000000
         C           -1.139465330435     0.388416332345    -0.432792279339    12.000000000000
         C            1.358153669565    -1.386786667655    -0.539352279339    12.000000000000
         H           -0.274205330435     1.001653332345     1.407813720661     1.007825032230
         H            0.267955669565    -1.311530667655     1.337134720661     1.007825032230
         H            1.752416669565    -0.385680667655     1.328309720661     1.007825032230
         H           -1.685233330435     1.335666332345    -0.524470279339     1.007825032230
         H           -0.806778330435     0.115959332345    -1.445437279339     1.007825032230
         H            2.012099669565    -2.222062667655    -0.271445279339     1.007825032230
         H            0.520295669565    -1.798901667655    -1.110178279339     1.007825032230
         H            1.908219669565    -0.708594667655    -1.194378279339     1.007825032230
         H            1.757460669565     1.808633332345     0.331784720661     1.007825032230
         H            0.455461669565     2.465237332345    -0.390477279339     1.007825032230
         H           -1.665188330435    -1.520235667655     0.078225720661     1.007825032230
         H           -2.936514330435    -0.576509667655    -0.282663279339     1.007825032230

  Basis Set: AUG-CC-PVTZ
    Blend: AUG-CC-PVTZ
  Basis Set: (AUG-CC-PVTZ AUX)
    Blend: AUG-CC-PVTZ-JKFIT
	 Reference Energy          =    -267.4411730422830260 [Eh]
	 Singles Energy            =      -0.0000000000000000 [Eh]
	 Same-Spin Energy          =      -0.2839577167166937 [Eh]
	 Opposite-Spin Energy      =      -0.9917542406949211 [Eh]
	 Correlation Energy        =      -1.2757119574116147 [Eh]
	 Total Energy              =    -268.7168849996946278 [Eh]

	 ================> DF-SCS-MP2 Energies <==================
	-----------------------------------------------------------
	 SCS Same-Spin Scale       =       0.3333333333333333 [-]
	 SCS Opposite-Spin Scale   =       1.2000000000000000 [-]
	 SCS Same-Spin Energy      =      -0.0946525722388979 [Eh]
	 SCS Opposite-Spin Energy  =      -1.1901050888339053 [Eh]
	 SCS Correlation Energy    =      -1.2847576610728031 [Eh]
	 SCS Total Energy          =    -268.7259307033558571 [Eh]
	-----------------------------------------------------------

  Dipole Moment: [D]
     X:    -0.1809      Y:     0.2539      Z:    -0.0454     Total:     0.3151

*** Psi4 exiting successfully. Buy a developer a beer!
