                               Psi4 1.4a3.dev225

  ==> Input File <==

--------------------------------------------------------------------------
#psi4
#
memory 32 gb

molecule  {
0 1
  N        0.9404650     1.6044440    -0.2603840
  N       -2.0577020    -0.5628020     0.2031370
  C        0.0733550     0.6450740     0.4388170
  C        0.8648870    -0.6349690     0.7149280
  C       -1.1572530     0.4065190    -0.4308380
  C        1.3403660    -1.3686840    -0.5373980
  H       -0.2919930     1.0197560     1.4097680
  H        0.3296591    -1.2802524     1.4207361
  H        1.7346290    -0.3675780     1.3302640
  H       -1.7030210     1.3537690    -0.5225160
  H       -0.8245660     0.1340620    -1.4434830
  H        1.9943120    -2.2039600    -0.2694910
  H        0.5025080    -1.7807990    -1.1082240
  H        1.8904320    -0.6904920    -1.1924240
  H        1.7396730     1.8267360     0.3337390
  H        0.4376740     2.4833400    -0.3885230
  H       -1.6829760    -1.5021330     0.0801800
  H       -2.9543020    -0.5584070    -0.2807090
units angstrom
no_reorient  #important for SAPT in psi4, default
symmetry c1  #important for SAPT in psi4, default
}

set PROPERTIES_ORIGIN ["COM"]
properties('MP2/aug-cc-pvtz', properties = ['dipole'])
--------------------------------------------------------------------------

    Molecular point group: c1
  Charge       = 0
  Multiplicity = 1
  Basis Set: AUG-CC-PVTZ
    Blend: AUG-CC-PVTZ
  Basis Set: (AUG-CC-PVTZ AUX)
    Blend: AUG-CC-PVTZ-JKFIT

    Orbital Energies [Eh]
    ---------------------

    Doubly Occupied:

       1A    -15.540977     2A    -15.538451     3A    -11.245981
       4A    -11.242238     5A    -11.214336     6A    -11.206445
       7A     -1.196576     8A     -1.158858     9A     -1.028979
      10A     -0.938584    11A     -0.864090    12A     -0.752172
      13A     -0.670442    14A     -0.661822    15A     -0.642997
      16A     -0.586432    17A     -0.580806    18A     -0.552708
      19A     -0.530587    20A     -0.514858    21A     -0.495524
      22A     -0.463851    23A     -0.454520    24A     -0.393566
      25A     -0.388716

  @DF-RHF Final Energy:  -267.44381659913620

   => Energetics <=

    Nuclear Repulsion Energy =            264.5795822595540585
    One-Electron Energy =                -886.3177628128182732
    Two-Electron Energy =                 354.2943639541280163
    Total Energy =                       -267.4438165991361984
  Basis Set: (AUG-CC-PVTZ AUX)
    Blend: AUG-CC-PVTZ-RI
    Molecular point group: c1

    Geometry (in Angstrom), charge = 0, multiplicity = 1:

       Center              X                  Y                   Z               Mass
    ------------   -----------------  -----------------  -----------------  -----------------
         N            0.951898502528     1.586472864161    -0.269338092794    14.003074004430
         N           -2.046268497472    -0.580773135839     0.194182907206    14.003074004430
         C            0.084788502528     0.627102864161     0.429862907206    12.000000000000
         C            0.876320502528    -0.652940135839     0.705973907206    12.000000000000
         C           -1.145819497472     0.388547864161    -0.439792092794    12.000000000000
         C            1.351799502528    -1.386655135839    -0.546352092794    12.000000000000
         H           -0.280559497472     1.001784864161     1.400813907206     1.007825032230
         H            0.341092602528    -1.298223535839     1.411782007206     1.007825032230
         H            1.746062502528    -0.385549135839     1.321309907206     1.007825032230
         H           -1.691587497472     1.335797864161    -0.531470092794     1.007825032230
         H           -0.813132497472     0.116090864161    -1.452437092794     1.007825032230
         H            2.005745502528    -2.221931135839    -0.278445092794     1.007825032230
         H            0.513941502528    -1.798770135839    -1.117178092794     1.007825032230
         H            1.901865502528    -0.708463135839    -1.201378092794     1.007825032230
         H            1.751106502528     1.808764864161     0.324784907206     1.007825032230
         H            0.449107502528     2.465368864161    -0.397477092794     1.007825032230
         H           -1.671542497472    -1.520104135839     0.071225907206     1.007825032230
         H           -2.942868497472    -0.576378135839    -0.289663092794     1.007825032230

  Basis Set: AUG-CC-PVTZ
    Blend: AUG-CC-PVTZ
  Basis Set: (AUG-CC-PVTZ AUX)
    Blend: AUG-CC-PVTZ-JKFIT
	 Reference Energy          =    -267.4438165991361984 [Eh]
	 Singles Energy            =      -0.0000000000000000 [Eh]
	 Same-Spin Energy          =      -0.2837127572895459 [Eh]
	 Opposite-Spin Energy      =      -0.9909392195588067 [Eh]
	 Correlation Energy        =      -1.2746519768483526 [Eh]
	 Total Energy              =    -268.7184685759845593 [Eh]

	 ================> DF-SCS-MP2 Energies <==================
	-----------------------------------------------------------
	 SCS Same-Spin Scale       =       0.3333333333333333 [-]
	 SCS Opposite-Spin Scale   =       1.2000000000000000 [-]
	 SCS Same-Spin Energy      =      -0.0945709190965153 [Eh]
	 SCS Opposite-Spin Energy  =      -1.1891270634705680 [Eh]
	 SCS Correlation Energy    =      -1.2836979825670833 [Eh]
	 SCS Total Energy          =    -268.7275145817033035 [Eh]
	-----------------------------------------------------------

  Dipole Moment: [D]
     X:    -0.1894      Y:     0.2488      Z:    -0.0765     Total:     0.3219

*** Psi4 exiting successfully. Buy a developer a beer!
