                               Psi4 1.4a3.dev225

  ==> Input File <==

--------------------------------------------------------------------------
#psi4
#
memory 32 gb

molecule  {
0 1
  N        0.9404650     1.6044440    -0.2603840
  N       -2.0546276    -0.5918253     0.1610601
  C        0.0733550     0.6450740     0.4388170
  C        0.8648870    -0.6349690     0.7149280
  C       -1.1572530     0.4065190    -0.4308380
  C        1.3403660    -1.3686840    -0.5373980
  H       -0.2919930     1.0197560     1.4097680
  H        0.2501680    -1.2934280     1.3390890
  H        1.7346290    -0.3675780     1.3302640
  H       -1.7030210     1.3537690    -0.5225160
  H       -0.8245660     0.1340620    -1.4434830
  H        1.9943120    -2.2039600    -0.2694910
  H        0.5025080    -1.7807990    -1.1082240
  H        1.8904320    -0.6904920    -1.1924240
  H        1.7396730     1.8267360     0.3337390
  H        0.4376740     2.4833400    -0.3885230
  H       -1.6829760    -1.5021330     0.0801800
  H       -2.9543020    -0.5584070    -0.2807090
units angstrom
no_reorient  #important for SAPT in psi4, default
symmetry c1  #important for SAPT in psi4, default
}

set PROPERTIES_ORIGIN ["COM"]
properties('MP2/aug-cc-pvtz', properties = ['dipole'])
--------------------------------------------------------------------------

    Molecular point group: c1
  Charge       = 0
  Multiplicity = 1
  Basis Set: AUG-CC-PVTZ
    Blend: AUG-CC-PVTZ
  Basis Set: (AUG-CC-PVTZ AUX)
    Blend: AUG-CC-PVTZ-JKFIT

    Orbital Energies [Eh]
    ---------------------

    Doubly Occupied:

       1A    -15.538586     2A    -15.533952     3A    -11.245775
       4A    -11.242508     5A    -11.214522     6A    -11.205388
       7A     -1.197479     8A     -1.161301     9A     -1.029634
      10A     -0.940335    11A     -0.863901    12A     -0.751053
      13A     -0.679568    14A     -0.661849    15A     -0.643592
      16A     -0.594099    17A     -0.579437    18A     -0.552829
      19A     -0.535526    20A     -0.515929    21A     -0.491746
      22A     -0.468617    23A     -0.453794    24A     -0.391486
      25A     -0.384568

  @DF-RHF Final Energy:  -267.44575579064406

   => Energetics <=

    Nuclear Repulsion Energy =            264.8458352975118260
    One-Electron Energy =                -886.8282330391648429
    Two-Electron Energy =                 354.5366419510089599
    Total Energy =                       -267.4457557906440570
  Basis Set: (AUG-CC-PVTZ AUX)
    Blend: AUG-CC-PVTZ-RI
    Molecular point group: c1

    Geometry (in Angstrom), charge = 0, multiplicity = 1:

       Center              X                  Y                   Z               Mass
    ------------   -----------------  -----------------  -----------------  -----------------
         N            0.952319184132     1.591236699424    -0.261716168084    14.003074004430
         N           -2.042773415868    -0.605032600576     0.159727931916    14.003074004430
         C            0.085209184132     0.631866699424     0.437484831916    12.000000000000
         C            0.876741184132    -0.648176300576     0.713595831916    12.000000000000
         C           -1.145398815868     0.393311699424    -0.432170168084    12.000000000000
         C            1.352220184132    -1.381891300576    -0.538730168084    12.000000000000
         H           -0.280138815868     1.006548699424     1.408435831916     1.007825032230
         H            0.262022184132    -1.306635300576     1.337756831916     1.007825032230
         H            1.746483184132    -0.380785300576     1.328931831916     1.007825032230
         H           -1.691166815868     1.340561699424    -0.523848168084     1.007825032230
         H           -0.812711815868     0.120854699424    -1.444815168084     1.007825032230
         H            2.006166184132    -2.217167300576    -0.270823168084     1.007825032230
         H            0.514362184132    -1.794006300576    -1.109556168084     1.007825032230
         H            1.902286184132    -0.703699300576    -1.193756168084     1.007825032230
         H            1.751527184132     1.813528699424     0.332406831916     1.007825032230
         H            0.449528184132     2.470132699424    -0.389855168084     1.007825032230
         H           -1.671121815868    -1.515340300576     0.078847831916     1.007825032230
         H           -2.942447815868    -0.571614300576    -0.282041168084     1.007825032230

  Basis Set: AUG-CC-PVTZ
    Blend: AUG-CC-PVTZ
  Basis Set: (AUG-CC-PVTZ AUX)
    Blend: AUG-CC-PVTZ-JKFIT
	 Reference Energy          =    -267.4457557906440570 [Eh]
	 Singles Energy            =      -0.0000000000000000 [Eh]
	 Same-Spin Energy          =      -0.2833809570911996 [Eh]
	 Opposite-Spin Energy      =      -0.9899469943656614 [Eh]
	 Correlation Energy        =      -1.2733279514568610 [Eh]
	 Total Energy              =    -268.7190837421009064 [Eh]

	 ================> DF-SCS-MP2 Energies <==================
	-----------------------------------------------------------
	 SCS Same-Spin Scale       =       0.3333333333333333 [-]
	 SCS Opposite-Spin Scale   =       1.2000000000000000 [-]
	 SCS Same-Spin Energy      =      -0.0944603190303999 [Eh]
	 SCS Opposite-Spin Energy  =      -1.1879363932387936 [Eh]
	 SCS Correlation Energy    =      -1.2823967122691935 [Eh]
	 SCS Total Energy          =    -268.7281525029132467 [Eh]
	-----------------------------------------------------------

  Dipole Moment: [D]
     X:    -0.2347      Y:     0.3026      Z:    -0.0162     Total:     0.3833

*** Psi4 exiting successfully. Buy a developer a beer!
