                               Psi4 1.4a3.dev225

  ==> Input File <==

--------------------------------------------------------------------------
#psi4
#
memory 32 gb

molecule  {
0 1
  N        0.9404650     1.6044440    -0.2603840
  N       -2.0577020    -0.5628020     0.2031370
  C        0.0733550     0.6450740     0.4388170
  C        0.8648870    -0.6349690     0.7149280
  C       -1.1572530     0.4065190    -0.4308380
  C        1.3403660    -1.3686840    -0.5373980
  H       -0.2919930     1.0197560     1.4097680
  H        0.2251267    -1.2962216     1.3103072
  H        1.7346290    -0.3675780     1.3302640
  H       -1.7030210     1.3537690    -0.5225160
  H       -0.8245660     0.1340620    -1.4434830
  H        1.9943120    -2.2039600    -0.2694910
  H        0.5025080    -1.7807990    -1.1082240
  H        1.8904320    -0.6904920    -1.1924240
  H        1.7396730     1.8267360     0.3337390
  H        0.4376740     2.4833400    -0.3885230
  H       -1.6829760    -1.5021330     0.0801800
  H       -2.9543020    -0.5584070    -0.2807090
units angstrom
no_reorient  #important for SAPT in psi4, default
symmetry c1  #important for SAPT in psi4, default
}

set PROPERTIES_ORIGIN ["COM"]
properties('MP2/aug-cc-pvtz', properties = ['dipole'])
--------------------------------------------------------------------------

    Molecular point group: c1
  Charge       = 0
  Multiplicity = 1
  Basis Set: AUG-CC-PVTZ
    Blend: AUG-CC-PVTZ
  Basis Set: (AUG-CC-PVTZ AUX)
    Blend: AUG-CC-PVTZ-JKFIT

    Orbital Energies [Eh]
    ---------------------

    Doubly Occupied:

       1A    -15.541790     2A    -15.538250     3A    -11.245233
       4A    -11.242600     5A    -11.214374     6A    -11.205324
       7A     -1.196982     8A     -1.159310     9A     -1.029586
      10A     -0.938745    11A     -0.863050    12A     -0.749307
      13A     -0.672192    14A     -0.662426    15A     -0.643038
      16A     -0.590923    17A     -0.580029    18A     -0.553545
      19A     -0.531165    20A     -0.514957    21A     -0.490437
      22A     -0.469681    23A     -0.452254    24A     -0.394139
      25A     -0.388733

  @DF-RHF Final Energy:  -267.44486191265912

   => Energetics <=

    Nuclear Repulsion Energy =            264.7803037689124608
    One-Electron Energy =                -886.7141954954206540
    Two-Electron Energy =                 354.4890298138490152
    Total Energy =                       -267.4448619126591211
  Basis Set: (AUG-CC-PVTZ AUX)
    Blend: AUG-CC-PVTZ-RI
    Molecular point group: c1

    Geometry (in Angstrom), charge = 0, multiplicity = 1:

       Center              X                  Y                   Z               Mass
    ------------   -----------------  -----------------  -----------------  -----------------
         N            0.953094306291     1.586655544645    -0.268074835716    14.003074004430
         N           -2.045072693709    -0.580590455355     0.195446164284    14.003074004430
         C            0.085984306291     0.627285544645     0.431126164284    12.000000000000
         C            0.877516306291    -0.652757455355     0.707237164284    12.000000000000
         C           -1.144623693709     0.388730544645    -0.438528835716    12.000000000000
         C            1.352995306291    -1.386472455355    -0.545088835716    12.000000000000
         H           -0.279363693709     1.001967544645     1.402077164284     1.007825032230
         H            0.237756006291    -1.314010055355     1.302616364284     1.007825032230
         H            1.747258306291    -0.385366455355     1.322573164284     1.007825032230
         H           -1.690391693709     1.335980544645    -0.530206835716     1.007825032230
         H           -0.811936693709     0.116273544645    -1.451173835716     1.007825032230
         H            2.006941306291    -2.221748455355    -0.277181835716     1.007825032230
         H            0.515137306291    -1.798587455355    -1.115914835716     1.007825032230
         H            1.903061306291    -0.708280455355    -1.200114835716     1.007825032230
         H            1.752302306291     1.808947544645     0.326048164284     1.007825032230
         H            0.450303306291     2.465551544645    -0.396213835716     1.007825032230
         H           -1.670346693709    -1.519921455355     0.072489164284     1.007825032230
         H           -2.941672693709    -0.576195455355    -0.288399835716     1.007825032230

  Basis Set: AUG-CC-PVTZ
    Blend: AUG-CC-PVTZ
  Basis Set: (AUG-CC-PVTZ AUX)
    Blend: AUG-CC-PVTZ-JKFIT
	 Reference Energy          =    -267.4448619126591211 [Eh]
	 Singles Energy            =      -0.0000000000000000 [Eh]
	 Same-Spin Energy          =      -0.2837355308760309 [Eh]
	 Opposite-Spin Energy      =      -0.9910508294954565 [Eh]
	 Correlation Energy        =      -1.2747863603714875 [Eh]
	 Total Energy              =    -268.7196482730306002 [Eh]

	 ================> DF-SCS-MP2 Energies <==================
	-----------------------------------------------------------
	 SCS Same-Spin Scale       =       0.3333333333333333 [-]
	 SCS Opposite-Spin Scale   =       1.2000000000000000 [-]
	 SCS Same-Spin Energy      =      -0.0945785102920103 [Eh]
	 SCS Opposite-Spin Energy  =      -1.1892609953945479 [Eh]
	 SCS Correlation Energy    =      -1.2838395056865581 [Eh]
	 SCS Total Energy          =    -268.7287014183456790 [Eh]
	-----------------------------------------------------------

  Dipole Moment: [D]
     X:    -0.2342      Y:     0.2606      Z:    -0.1131     Total:     0.3682

*** Psi4 exiting successfully. Buy a developer a beer!
