                               Psi4 1.4a3.dev225

  ==> Input File <==

--------------------------------------------------------------------------
#psi4
#
memory 32 gb

molecule  {
0 1
  N        0.9404650     1.6044440    -0.2603840
  N       -2.0577020    -0.5628020     0.2031370
  C        0.0733550     0.6450740     0.4388170
  C        0.8648870    -0.6349690     0.7149280
  C       -1.1572530     0.4065190    -0.4308380
  C        1.3403660    -1.3686840    -0.5373980
  H       -0.2919930     1.0197560     1.4097680
  H        0.2501680    -1.2934280     1.3390890
  H        1.7346290    -0.3675780     1.3302640
  H       -1.7030210     1.3537690    -0.5225160
  H       -0.8245660     0.1340620    -1.4434830
  H        1.9943120    -2.2039600    -0.2694910
  H        0.5025080    -1.7807990    -1.1082240
  H        1.8904320    -0.6904920    -1.1924240
  H        1.7396730     1.8267360     0.3337390
  H        0.4376740     2.4833400    -0.3885230
  H       -1.6543776    -1.4925144     0.0989979
  H       -2.9543020    -0.5584070    -0.2807090
units angstrom
no_reorient  #important for SAPT in psi4, default
symmetry c1  #important for SAPT in psi4, default
}

set PROPERTIES_ORIGIN ["COM"]
properties('MP2/aug-cc-pvtz', properties = ['dipole'])
--------------------------------------------------------------------------

    Molecular point group: c1
  Charge       = 0
  Multiplicity = 1
  Basis Set: AUG-CC-PVTZ
    Blend: AUG-CC-PVTZ
  Basis Set: (AUG-CC-PVTZ AUX)
    Blend: AUG-CC-PVTZ-JKFIT

    Orbital Energies [Eh]
    ---------------------

    Doubly Occupied:

       1A    -15.541271     2A    -15.538373     3A    -11.245524
       4A    -11.242150     5A    -11.214756     6A    -11.205846
       7A     -1.196890     8A     -1.158940     9A     -1.029623
      10A     -0.938265    11A     -0.863293    12A     -0.749954
      13A     -0.673754    14A     -0.662530    15A     -0.642780
      16A     -0.590715    17A     -0.579318    18A     -0.553429
      19A     -0.530738    20A     -0.515289    21A     -0.492030
      22A     -0.468550    23A     -0.453269    24A     -0.393185
      25A     -0.388562

  @DF-RHF Final Energy:  -267.44489639394521

   => Energetics <=

    Nuclear Repulsion Energy =            264.7815422003430399
    One-Electron Energy =                -886.7148099347650714
    Two-Electron Energy =                 354.4883713404768741
    Total Energy =                       -267.4448963939452142
  Basis Set: (AUG-CC-PVTZ AUX)
    Blend: AUG-CC-PVTZ-RI
    Molecular point group: c1

    Geometry (in Angstrom), charge = 0, multiplicity = 1:

       Center              X                  Y                   Z               Mass
    ------------   -----------------  -----------------  -----------------  -----------------
         N            0.952480692185     1.586513554645    -0.268619354931    14.003074004430
         N           -2.045686307815    -0.580732445355     0.194901645069    14.003074004430
         C            0.085370692185     0.627143554645     0.430581645069    12.000000000000
         C            0.876902692185    -0.652899445355     0.706692645069    12.000000000000
         C           -1.145237307815     0.388588554645    -0.439073354931    12.000000000000
         C            1.352381692185    -1.386614445355    -0.545633354931    12.000000000000
         H           -0.279977307815     1.001825554645     1.401532645069     1.007825032230
         H            0.262183692185    -1.311358445355     1.330853645069     1.007825032230
         H            1.746644692185    -0.385508445355     1.322028645069     1.007825032230
         H           -1.691005307815     1.335838554645    -0.530751354931     1.007825032230
         H           -0.812550307815     0.116131554645    -1.451718354931     1.007825032230
         H            2.006327692185    -2.221890445355    -0.277726354931     1.007825032230
         H            0.514523692185    -1.798729445355    -1.116459354931     1.007825032230
         H            1.902447692185    -0.708422445355    -1.200659354931     1.007825032230
         H            1.751688692185     1.808805554645     0.325503645069     1.007825032230
         H            0.449689692185     2.465409554645    -0.396758354931     1.007825032230
         H           -1.642361907815    -1.510444845355     0.090762545069     1.007825032230
         H           -2.942286307815    -0.576337445355    -0.288944354931     1.007825032230

  Basis Set: AUG-CC-PVTZ
    Blend: AUG-CC-PVTZ
  Basis Set: (AUG-CC-PVTZ AUX)
    Blend: AUG-CC-PVTZ-JKFIT
	 Reference Energy          =    -267.4448963939452142 [Eh]
	 Singles Energy            =      -0.0000000000000000 [Eh]
	 Same-Spin Energy          =      -0.2837424343479840 [Eh]
	 Opposite-Spin Energy      =      -0.9910118427350268 [Eh]
	 Correlation Energy        =      -1.2747542770830109 [Eh]
	 Total Energy              =    -268.7196506710282051 [Eh]

	 ================> DF-SCS-MP2 Energies <==================
	-----------------------------------------------------------
	 SCS Same-Spin Scale       =       0.3333333333333333 [-]
	 SCS Opposite-Spin Scale   =       1.2000000000000000 [-]
	 SCS Same-Spin Energy      =      -0.0945808114493280 [Eh]
	 SCS Opposite-Spin Energy  =      -1.1892142112820321 [Eh]
	 SCS Correlation Energy    =      -1.2837950227313601 [Eh]
	 SCS Total Energy          =    -268.7286914166765541 [Eh]
	-----------------------------------------------------------

  Dipole Moment: [D]
     X:    -0.1991      Y:     0.2608      Z:    -0.0840     Total:     0.3387

*** Psi4 exiting successfully. Buy a developer a beer!
