                               Psi4 1.4a3.dev225

  ==> Input File <==

--------------------------------------------------------------------------
#psi4
#
memory 32 gb

molecule  {
0 1
  N        0.9013980     1.6376994    -0.2613203
  N       -2.0577020    -0.5628020     0.2031370
  C        0.0733550     0.6450740     0.4388170
  C        0.8648870    -0.6349690     0.7149280
  C       -1.1572530     0.4065190    -0.4308380
  C        1.3403660    -1.3686840    -0.5373980
  H       -0.2919930     1.0197560     1.4097680
  H        0.2501680    -1.2934280     1.3390890
  H        1.7346290    -0.3675780     1.3302640
  H       -1.7030210     1.3537690    -0.5225160
  H       -0.8245660     0.1340620    -1.4434830
  H        1.9943120    -2.2039600    -0.2694910
  H        0.5025080    -1.7807990    -1.1082240
  H        1.8904320    -0.6904920    -1.1924240
  H        1.7396730     1.8267360     0.3337390
  H        0.4376740     2.4833400    -0.3885230
  H       -1.6829760    -1.5021330     0.0801800
  H       -2.9543020    -0.5584070    -0.2807090
units angstrom
no_reorient  #important for SAPT in psi4, default
symmetry c1  #important for SAPT in psi4, default
}

set PROPERTIES_ORIGIN ["COM"]
properties('MP2/aug-cc-pvtz', properties = ['dipole'])
--------------------------------------------------------------------------

    Molecular point group: c1
  Charge       = 0
  Multiplicity = 1
  Basis Set: AUG-CC-PVTZ
    Blend: AUG-CC-PVTZ
  Basis Set: (AUG-CC-PVTZ AUX)
    Blend: AUG-CC-PVTZ-JKFIT

    Orbital Energies [Eh]
    ---------------------

    Doubly Occupied:

       1A    -15.540831     2A    -15.534580     3A    -11.245467
       4A    -11.241595     5A    -11.215813     6A    -11.206519
       7A     -1.197335     8A     -1.159356     9A     -1.031599
      10A     -0.938570    11A     -0.864032    12A     -0.751449
      13A     -0.672592    14A     -0.667838    15A     -0.639186
      16A     -0.590209    17A     -0.580865    18A     -0.558687
      19A     -0.529556    20A     -0.513434    21A     -0.492311
      22A     -0.469937    23A     -0.454227    24A     -0.392720
      25A     -0.385972

  @DF-RHF Final Energy:  -267.44323881342240

   => Energetics <=

    Nuclear Repulsion Energy =            264.6724851040794420
    One-Electron Energy =                -886.4820896098236744
    Two-Electron Energy =                 354.3663656923218355
    Total Energy =                       -267.4432388134223970
  Basis Set: (AUG-CC-PVTZ AUX)
    Blend: AUG-CC-PVTZ-RI
    Molecular point group: c1

    Geometry (in Angstrom), charge = 0, multiplicity = 1:

       Center              X                  Y                   Z               Mass
    ------------   -----------------  -----------------  -----------------  -----------------
         N            0.919950354605     1.614593203102    -0.269191566267    14.003074004430
         N           -2.039149645395    -0.585908196898     0.195265733733    14.003074004430
         C            0.091907354605     0.621967803102     0.430945733733    12.000000000000
         C            0.883439354605    -0.658075196898     0.707056733733    12.000000000000
         C           -1.138700645395     0.383412803102    -0.438709266267    12.000000000000
         C            1.358918354605    -1.391790196898    -0.545269266267    12.000000000000
         H           -0.273440645395     0.996649803102     1.401896733733     1.007825032230
         H            0.268720354605    -1.316534196898     1.331217733733     1.007825032230
         H            1.753181354605    -0.390684196898     1.322392733733     1.007825032230
         H           -1.684468645395     1.330662803102    -0.530387266267     1.007825032230
         H           -0.806013645395     0.110955803102    -1.451354266267     1.007825032230
         H            2.012864354605    -2.227066196898    -0.277362266267     1.007825032230
         H            0.521060354605    -1.803905196898    -1.116095266267     1.007825032230
         H            1.908984354605    -0.713598196898    -1.200295266267     1.007825032230
         H            1.758225354605     1.803629803102     0.325867733733     1.007825032230
         H            0.456226354605     2.460233803102    -0.396394266267     1.007825032230
         H           -1.664423645395    -1.525239196898     0.072308733733     1.007825032230
         H           -2.935749645395    -0.581513196898    -0.288580266267     1.007825032230

  Basis Set: AUG-CC-PVTZ
    Blend: AUG-CC-PVTZ
  Basis Set: (AUG-CC-PVTZ AUX)
    Blend: AUG-CC-PVTZ-JKFIT
	 Reference Energy          =    -267.4432388134223970 [Eh]
	 Singles Energy            =      -0.0000000000000000 [Eh]
	 Same-Spin Energy          =      -0.2835017472683003 [Eh]
	 Opposite-Spin Energy      =      -0.9904704276200289 [Eh]
	 Correlation Energy        =      -1.2739721748883293 [Eh]
	 Total Energy              =    -268.7172109883107396 [Eh]

	 ================> DF-SCS-MP2 Energies <==================
	-----------------------------------------------------------
	 SCS Same-Spin Scale       =       0.3333333333333333 [-]
	 SCS Opposite-Spin Scale   =       1.2000000000000000 [-]
	 SCS Same-Spin Energy      =      -0.0945005824227668 [Eh]
	 SCS Opposite-Spin Energy  =      -1.1885645131440346 [Eh]
	 SCS Correlation Energy    =      -1.2830650955668013 [Eh]
	 SCS Total Energy          =    -268.7263039089892231 [Eh]
	-----------------------------------------------------------

  Dipole Moment: [D]
     X:    -0.1609      Y:     0.1984      Z:    -0.1113     Total:     0.2786

*** Psi4 exiting successfully. Buy a developer a beer!
