                               Psi4 1.4a3.dev225

  ==> Input File <==

--------------------------------------------------------------------------
#psi4
#
memory 32 gb

molecule  {
0 1
  N        1.0057671     1.5973895    -0.1815501
  N       -2.0577020    -0.5628020     0.2031370
  C        0.0733550     0.6450740     0.4388170
  C        0.8648870    -0.6349690     0.7149280
  C       -1.1572530     0.4065190    -0.4308380
  C        1.3403660    -1.3686840    -0.5373980
  H       -0.2919930     1.0197560     1.4097680
  H        0.2501680    -1.2934280     1.3390890
  H        1.7346290    -0.3675780     1.3302640
  H       -1.7030210     1.3537690    -0.5225160
  H       -0.8245660     0.1340620    -1.4434830
  H        1.9943120    -2.2039600    -0.2694910
  H        0.5025080    -1.7807990    -1.1082240
  H        1.8904320    -0.6904920    -1.1924240
  H        1.7396730     1.8267360     0.3337390
  H        0.4376740     2.4833400    -0.3885230
  H       -1.6829760    -1.5021330     0.0801800
  H       -2.9543020    -0.5584070    -0.2807090
units angstrom
no_reorient  #important for SAPT in psi4, default
symmetry c1  #important for SAPT in psi4, default
}

set PROPERTIES_ORIGIN ["COM"]
properties('MP2/aug-cc-pvtz', properties = ['dipole'])
--------------------------------------------------------------------------

    Molecular point group: c1
  Charge       = 0
  Multiplicity = 1
  Basis Set: AUG-CC-PVTZ
    Blend: AUG-CC-PVTZ
  Basis Set: (AUG-CC-PVTZ AUX)
    Blend: AUG-CC-PVTZ-JKFIT

    Orbital Energies [Eh]
    ---------------------

    Doubly Occupied:

       1A    -15.543788     2A    -15.531036     3A    -11.246190
       4A    -11.245463     5A    -11.212640     6A    -11.205014
       7A     -1.198716     8A     -1.163374     9A     -1.029775
      10A     -0.943099    11A     -0.862652    12A     -0.754188
      13A     -0.672439    14A     -0.661986    15A     -0.654591
      16A     -0.590536    17A     -0.582688    18A     -0.544555
      19A     -0.538009    20A     -0.520050    21A     -0.489464
      22A     -0.468716    23A     -0.450796    24A     -0.395545
      25A     -0.382912

  @DF-RHF Final Energy:  -267.43423398617688

   => Energetics <=

    Nuclear Repulsion Energy =            264.7412944404217683
    One-Electron Energy =                -886.5746107030878420
    Two-Electron Energy =                 354.3990822764892528
    Total Energy =                       -267.4342339861768778
  Basis Set: (AUG-CC-PVTZ AUX)
    Blend: AUG-CC-PVTZ-RI
    Molecular point group: c1

    Geometry (in Angstrom), charge = 0, multiplicity = 1:

       Center              X                  Y                   Z               Mass
    ------------   -----------------  -----------------  -----------------  -----------------
         N            1.007730494012     1.580690365562    -0.202100451401    14.003074004430
         N           -2.055738605988    -0.579501134438     0.182586648599    14.003074004430
         C            0.075318394012     0.628374865562     0.418266648599    12.000000000000
         C            0.866850394012    -0.651668134438     0.694377648599    12.000000000000
         C           -1.155289605988     0.389819865562    -0.451388351401    12.000000000000
         C            1.342329394012    -1.385383134438    -0.557948351401    12.000000000000
         H           -0.290029605988     1.003056865562     1.389217648599     1.007825032230
         H            0.252131394012    -1.310127134438     1.318538648599     1.007825032230
         H            1.736592394012    -0.384277134438     1.309713648599     1.007825032230
         H           -1.701057605988     1.337069865562    -0.543066351401     1.007825032230
         H           -0.822602605988     0.117362865562    -1.464033351401     1.007825032230
         H            1.996275394012    -2.220659134438    -0.290041351401     1.007825032230
         H            0.504471394012    -1.797498134438    -1.128774351401     1.007825032230
         H            1.892395394012    -0.707191134438    -1.212974351401     1.007825032230
         H            1.741636394012     1.810036865562     0.313188648599     1.007825032230
         H            0.439637394012     2.466640865562    -0.409073351401     1.007825032230
         H           -1.681012605988    -1.518832134438     0.059629648599     1.007825032230
         H           -2.952338605988    -0.575106134438    -0.301259351401     1.007825032230

  Basis Set: AUG-CC-PVTZ
    Blend: AUG-CC-PVTZ
  Basis Set: (AUG-CC-PVTZ AUX)
    Blend: AUG-CC-PVTZ-JKFIT
	 Reference Energy          =    -267.4342339861768778 [Eh]
	 Singles Energy            =      -0.0000000000000000 [Eh]
	 Same-Spin Energy          =      -0.2834284085753968 [Eh]
	 Opposite-Spin Energy      =      -0.9902799433005287 [Eh]
	 Correlation Energy        =      -1.2737083518759253 [Eh]
	 Total Energy              =    -268.7079423380528169 [Eh]

	 ================> DF-SCS-MP2 Energies <==================
	-----------------------------------------------------------
	 SCS Same-Spin Scale       =       0.3333333333333333 [-]
	 SCS Opposite-Spin Scale   =       1.2000000000000000 [-]
	 SCS Same-Spin Energy      =      -0.0944761361917989 [Eh]
	 SCS Opposite-Spin Energy  =      -1.1883359319606344 [Eh]
	 SCS Correlation Energy    =      -1.2828120681524333 [Eh]
	 SCS Total Energy          =    -268.7170460543293302 [Eh]
	-----------------------------------------------------------

  Dipole Moment: [D]
     X:    -0.3323      Y:     0.2448      Z:    -0.2315     Total:     0.4732

*** Psi4 exiting successfully. Buy a developer a beer!
