                               Psi4 1.4a3.dev225

  ==> Input File <==

--------------------------------------------------------------------------
#psi4
#
memory 32 gb

molecule  {
0 1
  N        0.9404650     1.6044440    -0.2603840
  N       -2.0577020    -0.5628020     0.2031370
  C        0.0733550     0.6450740     0.4388170
  C        0.8743449    -0.6393061     0.6625427
  C       -1.1572530     0.4065190    -0.4308380
  C        1.3403660    -1.3686840    -0.5373980
  H       -0.2919930     1.0197560     1.4097680
  H        0.2501680    -1.2934280     1.3390890
  H        1.7346290    -0.3675780     1.3302640
  H       -1.7030210     1.3537690    -0.5225160
  H       -0.8245660     0.1340620    -1.4434830
  H        1.9943120    -2.2039600    -0.2694910
  H        0.5025080    -1.7807990    -1.1082240
  H        1.8904320    -0.6904920    -1.1924240
  H        1.7396730     1.8267360     0.3337390
  H        0.4376740     2.4833400    -0.3885230
  H       -1.6829760    -1.5021330     0.0801800
  H       -2.9543020    -0.5584070    -0.2807090
units angstrom
no_reorient  #important for SAPT in psi4, default
symmetry c1  #important for SAPT in psi4, default
}

set PROPERTIES_ORIGIN ["COM"]
properties('MP2/aug-cc-pvtz', properties = ['dipole'])
--------------------------------------------------------------------------

    Molecular point group: c1
  Charge       = 0
  Multiplicity = 1
  Basis Set: AUG-CC-PVTZ
    Blend: AUG-CC-PVTZ
  Basis Set: (AUG-CC-PVTZ AUX)
    Blend: AUG-CC-PVTZ-JKFIT

    Orbital Energies [Eh]
    ---------------------

    Doubly Occupied:

       1A    -15.541434     2A    -15.537980     3A    -11.245975
       4A    -11.242365     5A    -11.216919     6A    -11.204406
       7A     -1.197374     8A     -1.159259     9A     -1.035963
      10A     -0.941207    11A     -0.860957    12A     -0.746787
      13A     -0.671931    14A     -0.662711    15A     -0.642984
      16A     -0.589823    17A     -0.582843    18A     -0.553957
      19A     -0.533555    20A     -0.514573    21A     -0.501268
      22A     -0.457707    23A     -0.448468    24A     -0.393942
      25A     -0.390333

  @DF-RHF Final Energy:  -267.44126035711247

   => Energetics <=

    Nuclear Repulsion Energy =            265.1761931991945858
    One-Electron Energy =                -887.4854613564266401
    Two-Electron Energy =                 354.8680078001195852
    Total Energy =                       -267.4412603571124691
  Basis Set: (AUG-CC-PVTZ AUX)
    Blend: AUG-CC-PVTZ-RI
    Molecular point group: c1

    Geometry (in Angstrom), charge = 0, multiplicity = 1:

       Center              X                  Y                   Z               Mass
    ------------   -----------------  -----------------  -----------------  -----------------
         N            0.951519596043     1.587214338208    -0.261268748859    14.003074004430
         N           -2.046647403957    -0.580031661792     0.202252251141    14.003074004430
         C            0.084409596043     0.627844338208     0.437932251141    12.000000000000
         C            0.885399496043    -0.656535761792     0.661657951141    12.000000000000
         C           -1.146198403957     0.389289338208    -0.431722748859    12.000000000000
         C            1.351420596043    -1.385913661792    -0.538282748859    12.000000000000
         H           -0.280938403957     1.002526338208     1.408883251141     1.007825032230
         H            0.261222596043    -1.310657661792     1.338204251141     1.007825032230
         H            1.745683596043    -0.384807661792     1.329379251141     1.007825032230
         H           -1.691966403957     1.336539338208    -0.523400748859     1.007825032230
         H           -0.813511403957     0.116832338208    -1.444367748859     1.007825032230
         H            2.005366596043    -2.221189661792    -0.270375748859     1.007825032230
         H            0.513562596043    -1.798028661792    -1.109108748859     1.007825032230
         H            1.901486596043    -0.707721661792    -1.193308748859     1.007825032230
         H            1.750727596043     1.809506338208     0.332854251141     1.007825032230
         H            0.448728596043     2.466110338208    -0.389407748859     1.007825032230
         H           -1.671921403957    -1.519362661792     0.079295251141     1.007825032230
         H           -2.943247403957    -0.575636661792    -0.281593748859     1.007825032230

  Basis Set: AUG-CC-PVTZ
    Blend: AUG-CC-PVTZ
  Basis Set: (AUG-CC-PVTZ AUX)
    Blend: AUG-CC-PVTZ-JKFIT
	 Reference Energy          =    -267.4412603571124691 [Eh]
	 Singles Energy            =      -0.0000000000000000 [Eh]
	 Same-Spin Energy          =      -0.2841711444788137 [Eh]
	 Opposite-Spin Energy      =      -0.9915596959315537 [Eh]
	 Correlation Energy        =      -1.2757308404103673 [Eh]
	 Total Energy              =    -268.7169911975228160 [Eh]

	 ================> DF-SCS-MP2 Energies <==================
	-----------------------------------------------------------
	 SCS Same-Spin Scale       =       0.3333333333333333 [-]
	 SCS Opposite-Spin Scale   =       1.2000000000000000 [-]
	 SCS Same-Spin Energy      =      -0.0947237148262712 [Eh]
	 SCS Opposite-Spin Energy  =      -1.1898716351178644 [Eh]
	 SCS Correlation Energy    =      -1.2845953499441356 [Eh]
	 SCS Total Energy          =    -268.7258557070566098 [Eh]
	-----------------------------------------------------------

  Dipole Moment: [D]
     X:    -0.2188      Y:     0.2456      Z:    -0.1335     Total:     0.3550

*** Psi4 exiting successfully. Buy a developer a beer!
