                               Psi4 1.4a3.dev225

  ==> Input File <==

--------------------------------------------------------------------------
#psi4
#
memory 32 gb

molecule  {
0 1
  N        0.9404650     1.6044440    -0.2603840
  N       -2.0577020    -0.5628020     0.2031370
  C        0.0733550     0.6450740     0.4388170
  C        0.8648870    -0.6349690     0.7149280
  C       -1.1879415     0.3734832    -0.4092313
  C        1.3403660    -1.3686840    -0.5373980
  H       -0.2919930     1.0197560     1.4097680
  H        0.2501680    -1.2934280     1.3390890
  H        1.7346290    -0.3675780     1.3302640
  H       -1.7030210     1.3537690    -0.5225160
  H       -0.8245660     0.1340620    -1.4434830
  H        1.9943120    -2.2039600    -0.2694910
  H        0.5025080    -1.7807990    -1.1082240
  H        1.8904320    -0.6904920    -1.1924240
  H        1.7396730     1.8267360     0.3337390
  H        0.4376740     2.4833400    -0.3885230
  H       -1.6829760    -1.5021330     0.0801800
  H       -2.9543020    -0.5584070    -0.2807090
units angstrom
no_reorient  #important for SAPT in psi4, default
symmetry c1  #important for SAPT in psi4, default
}

set PROPERTIES_ORIGIN ["COM"]
properties('MP2/aug-cc-pvtz', properties = ['dipole'])
--------------------------------------------------------------------------

    Molecular point group: c1
  Charge       = 0
  Multiplicity = 1
  Basis Set: AUG-CC-PVTZ
    Blend: AUG-CC-PVTZ
  Basis Set: (AUG-CC-PVTZ AUX)
    Blend: AUG-CC-PVTZ-JKFIT

    Orbital Energies [Eh]
    ---------------------

    Doubly Occupied:

       1A    -15.543055     2A    -15.538513     3A    -11.245339
       4A    -11.243928     5A    -11.213605     6A    -11.205054
       7A     -1.203554     8A     -1.166959     9A     -1.028999
      10A     -0.934683    11A     -0.860527    12A     -0.748354
      13A     -0.675742    14A     -0.661353    15A     -0.647640
      16A     -0.590493    17A     -0.584860    18A     -0.552562
      19A     -0.535112    20A     -0.512311    21A     -0.491481
      22A     -0.468811    23A     -0.447569    24A     -0.393586
      25A     -0.384423

  @DF-RHF Final Energy:  -267.44238266895411

   => Energetics <=

    Nuclear Repulsion Energy =            264.8752502658720687
    One-Electron Energy =                -886.8782449563561840
    Two-Electron Energy =                 354.5606120215300052
    Total Energy =                       -267.4423826689541102
  Basis Set: (AUG-CC-PVTZ AUX)
    Blend: AUG-CC-PVTZ-RI
    Molecular point group: c1

    Geometry (in Angstrom), charge = 0, multiplicity = 1:

       Center              X                  Y                   Z               Mass
    ------------   -----------------  -----------------  -----------------  -----------------
         N            0.956987888159     1.591123353087    -0.271347108816    14.003074004430
         N           -2.041179111841    -0.576122646913     0.192173891184    14.003074004430
         C            0.089877888159     0.631753353087     0.427853891184    12.000000000000
         C            0.881409888159    -0.648289646913     0.703964891184    12.000000000000
         C           -1.171418611841     0.360162553087    -0.420194408816    12.000000000000
         C            1.356888888159    -1.382004646913    -0.548361108816    12.000000000000
         H           -0.275470111841     1.006435353087     1.398804891184     1.007825032230
         H            0.266690888159    -1.306748646913     1.328125891184     1.007825032230
         H            1.751151888159    -0.380898646913     1.319300891184     1.007825032230
         H           -1.686498111841     1.340448353087    -0.533479108816     1.007825032230
         H           -0.808043111841     0.120741353087    -1.454446108816     1.007825032230
         H            2.010834888159    -2.217280646913    -0.280454108816     1.007825032230
         H            0.519030888159    -1.794119646913    -1.119187108816     1.007825032230
         H            1.906954888159    -0.703812646913    -1.203387108816     1.007825032230
         H            1.756195888159     1.813415353087     0.322775891184     1.007825032230
         H            0.454196888159     2.470019353087    -0.399486108816     1.007825032230
         H           -1.666453111841    -1.515453646913     0.069216891184     1.007825032230
         H           -2.937779111841    -0.571727646913    -0.291672108816     1.007825032230

  Basis Set: AUG-CC-PVTZ
    Blend: AUG-CC-PVTZ
  Basis Set: (AUG-CC-PVTZ AUX)
    Blend: AUG-CC-PVTZ-JKFIT
	 Reference Energy          =    -267.4423826689541102 [Eh]
	 Singles Energy            =      -0.0000000000000000 [Eh]
	 Same-Spin Energy          =      -0.2839378102827037 [Eh]
	 Opposite-Spin Energy      =      -0.9909520653993613 [Eh]
	 Correlation Energy        =      -1.2748898756820650 [Eh]
	 Total Energy              =    -268.7172725446361596 [Eh]

	 ================> DF-SCS-MP2 Energies <==================
	-----------------------------------------------------------
	 SCS Same-Spin Scale       =       0.3333333333333333 [-]
	 SCS Opposite-Spin Scale   =       1.2000000000000000 [-]
	 SCS Same-Spin Energy      =      -0.0946459367609012 [Eh]
	 SCS Opposite-Spin Energy  =      -1.1891424784792335 [Eh]
	 SCS Correlation Energy    =      -1.2837884152401347 [Eh]
	 SCS Total Energy          =    -268.7261710841942204 [Eh]
	-----------------------------------------------------------

  Dipole Moment: [D]
     X:    -0.3177      Y:     0.1875      Z:    -0.0552     Total:     0.3731

*** Psi4 exiting successfully. Buy a developer a beer!
