                               Psi4 1.4a3.dev225

  ==> Input File <==

--------------------------------------------------------------------------
#psi4
#
memory 32 gb

molecule  {
0 1
  N        0.9404650     1.6044440    -0.2603840
  N       -2.0577020    -0.5628020     0.2031370
  C        0.1076446     0.4904969     0.4180355
  C        0.8648870    -0.6349690     0.7149280
  C       -1.1572530     0.4065190    -0.4308380
  C        1.3403660    -1.3686840    -0.5373980
  H       -0.2919930     1.0197560     1.4097680
  H        0.2501680    -1.2934280     1.3390890
  H        1.7346290    -0.3675780     1.3302640
  H       -1.7030210     1.3537690    -0.5225160
  H       -0.8245660     0.1340620    -1.4434830
  H        1.9943120    -2.2039600    -0.2694910
  H        0.5025080    -1.7807990    -1.1082240
  H        1.8904320    -0.6904920    -1.1924240
  H        1.7396730     1.8267360     0.3337390
  H        0.4376740     2.4833400    -0.3885230
  H       -1.6829760    -1.5021330     0.0801800
  H       -2.9543020    -0.5584070    -0.2807090
units angstrom
no_reorient  #important for SAPT in psi4, default
symmetry c1  #important for SAPT in psi4, default
}

set PROPERTIES_ORIGIN ["COM"]
properties('MP2/aug-cc-pvtz', properties = ['dipole'])
--------------------------------------------------------------------------

    Molecular point group: c1
  Charge       = 0
  Multiplicity = 1
  Basis Set: AUG-CC-PVTZ
    Blend: AUG-CC-PVTZ
  Basis Set: (AUG-CC-PVTZ AUX)
    Blend: AUG-CC-PVTZ-JKFIT

    Orbital Energies [Eh]
    ---------------------

    Doubly Occupied:

       1A    -15.541990     2A    -15.532343     3A    -11.253270
       4A    -11.246543     5A    -11.212929     6A    -11.208242
       7A     -1.193851     8A     -1.148959     9A     -1.050245
      10A     -0.938317    11A     -0.879832    12A     -0.742785
      13A     -0.675995    14A     -0.660355    15A     -0.631958
      16A     -0.605064    17A     -0.581158    18A     -0.552540
      19A     -0.531099    20A     -0.513393    21A     -0.491820
      22A     -0.483134    23A     -0.457303    24A     -0.390921
      25A     -0.370479

  @DF-RHF Final Energy:  -267.41575689895404

   => Energetics <=

    Nuclear Repulsion Energy =            265.8126155452103490
    One-Electron Energy =                -888.6676978627435801
    Two-Electron Energy =                 355.4393254185792443
    Total Energy =                       -267.4157568989540437
  Basis Set: (AUG-CC-PVTZ AUX)
    Blend: AUG-CC-PVTZ-RI
    Molecular point group: c1

    Geometry (in Angstrom), charge = 0, multiplicity = 1:

       Center              X                  Y                   Z               Mass
    ------------   -----------------  -----------------  -----------------  -----------------
         N            0.948137300512     1.607678345128    -0.265573463861    14.003074004430
         N           -2.050029699488    -0.559567654872     0.197947536139    14.003074004430
         C            0.115316900512     0.493731245128     0.412846036139    12.000000000000
         C            0.872559300512    -0.631734654872     0.709738536139    12.000000000000
         C           -1.149580699488     0.409753345128    -0.436027463861    12.000000000000
         C            1.348038300512    -1.365449654872    -0.542587463861    12.000000000000
         H           -0.284320699488     1.022990345128     1.404578536139     1.007825032230
         H            0.257840300512    -1.290193654872     1.333899536139     1.007825032230
         H            1.742301300512    -0.364343654872     1.325074536139     1.007825032230
         H           -1.695348699488     1.357003345128    -0.527705463861     1.007825032230
         H           -0.816893699488     0.137296345128    -1.448672463861     1.007825032230
         H            2.001984300512    -2.200725654872    -0.274680463861     1.007825032230
         H            0.510180300512    -1.777564654872    -1.113413463861     1.007825032230
         H            1.898104300512    -0.687257654872    -1.197613463861     1.007825032230
         H            1.747345300512     1.829970345128     0.328549536139     1.007825032230
         H            0.445346300512     2.486574345128    -0.393712463861     1.007825032230
         H           -1.675303699488    -1.498898654872     0.074990536139     1.007825032230
         H           -2.946629699488    -0.555172654872    -0.285898463861     1.007825032230

  Basis Set: AUG-CC-PVTZ
    Blend: AUG-CC-PVTZ
  Basis Set: (AUG-CC-PVTZ AUX)
    Blend: AUG-CC-PVTZ-JKFIT
	 Reference Energy          =    -267.4157568989540437 [Eh]
	 Singles Energy            =      -0.0000000000000000 [Eh]
	 Same-Spin Energy          =      -0.2851949090979577 [Eh]
	 Opposite-Spin Energy      =      -0.9935449830159978 [Eh]
	 Correlation Energy        =      -1.2787398921139554 [Eh]
	 Total Energy              =    -268.6944967910679907 [Eh]

	 ================> DF-SCS-MP2 Energies <==================
	-----------------------------------------------------------
	 SCS Same-Spin Scale       =       0.3333333333333333 [-]
	 SCS Opposite-Spin Scale   =       1.2000000000000000 [-]
	 SCS Same-Spin Energy      =      -0.0950649696993192 [Eh]
	 SCS Opposite-Spin Energy  =      -1.1922539796191973 [Eh]
	 SCS Correlation Energy    =      -1.2873189493185166 [Eh]
	 SCS Total Energy          =    -268.7030758482725332 [Eh]
	-----------------------------------------------------------

  Dipole Moment: [D]
     X:    -0.2809      Y:    -0.0615      Z:    -0.0818     Total:     0.2989

*** Psi4 exiting successfully. Buy a developer a beer!
