                               Psi4 1.4a3.dev225

  ==> Input File <==

--------------------------------------------------------------------------
#psi4
#
memory 32 gb

molecule  {
0 1
  N        0.9404650     1.6044440    -0.2603840
  N       -2.0577020    -0.5628020     0.2031370
  C        0.0733550     0.6450740     0.4388170
  C        0.8648870    -0.6349690     0.7149280
  C       -1.2186301     0.3404474    -0.3876245
  C        1.3403660    -1.3686840    -0.5373980
  H       -0.2919930     1.0197560     1.4097680
  H        0.2501680    -1.2934280     1.3390890
  H        1.7346290    -0.3675780     1.3302640
  H       -1.7030210     1.3537690    -0.5225160
  H       -0.8245660     0.1340620    -1.4434830
  H        1.9943120    -2.2039600    -0.2694910
  H        0.5025080    -1.7807990    -1.1082240
  H        1.8904320    -0.6904920    -1.1924240
  H        1.7396730     1.8267360     0.3337390
  H        0.4376740     2.4833400    -0.3885230
  H       -1.6829760    -1.5021330     0.0801800
  H       -2.9543020    -0.5584070    -0.2807090
units angstrom
no_reorient  #important for SAPT in psi4, default
symmetry c1  #important for SAPT in psi4, default
}

set PROPERTIES_ORIGIN ["COM"]
properties('MP2/aug-cc-pvtz', properties = ['dipole'])
--------------------------------------------------------------------------

    Molecular point group: c1
  Charge       = 0
  Multiplicity = 1
  Basis Set: AUG-CC-PVTZ
    Blend: AUG-CC-PVTZ
  Basis Set: (AUG-CC-PVTZ AUX)
    Blend: AUG-CC-PVTZ-JKFIT

    Orbital Energies [Eh]
    ---------------------

    Doubly Occupied:

       1A    -15.544442     2A    -15.538750     3A    -11.246276
       4A    -11.245203     5A    -11.212880     6A    -11.204490
       7A     -1.216211     8A     -1.171219     9A     -1.028576
      10A     -0.930630    11A     -0.857627    12A     -0.747360
      13A     -0.681541    14A     -0.661452    15A     -0.652691
      16A     -0.592706    17A     -0.588251    18A     -0.552574
      19A     -0.539285    20A     -0.508272    21A     -0.491304
      22A     -0.469376    23A     -0.441054    24A     -0.393125
      25A     -0.378150

  @DF-RHF Final Energy:  -267.43385312686775

   => Energetics <=

    Nuclear Repulsion Energy =            265.0507700086497493
    One-Electron Energy =                -887.1823570428731500
    Two-Electron Energy =                 354.6977339073557118
    Total Energy =                       -267.4338531268677457
  Basis Set: (AUG-CC-PVTZ AUX)
    Blend: AUG-CC-PVTZ-RI
    Molecular point group: c1

    Geometry (in Angstrom), charge = 0, multiplicity = 1:

       Center              X                  Y                   Z               Mass
    ------------   -----------------  -----------------  -----------------  -----------------
         N            0.961167944886     1.595623119060    -0.274290144657    14.003074004430
         N           -2.036999055114    -0.571622880940     0.189230855343    14.003074004430
         C            0.094057944886     0.636253119060     0.424910855343    12.000000000000
         C            0.885589944886    -0.643789880940     0.701021855343    12.000000000000
         C           -1.197927155114     0.331626519060    -0.401530644657    12.000000000000
         C            1.361068944886    -1.377504880940    -0.551304144657    12.000000000000
         H           -0.271290055114     1.010935119060     1.395861855343     1.007825032230
         H            0.270870944886    -1.302248880940     1.325182855343     1.007825032230
         H            1.755331944886    -0.376398880940     1.316357855343     1.007825032230
         H           -1.682318055114     1.344948119060    -0.536422144657     1.007825032230
         H           -0.803863055114     0.125241119060    -1.457389144657     1.007825032230
         H            2.015014944886    -2.212780880940    -0.283397144657     1.007825032230
         H            0.523210944886    -1.789619880940    -1.122130144657     1.007825032230
         H            1.911134944886    -0.699312880940    -1.206330144657     1.007825032230
         H            1.760375944886     1.817915119060     0.319832855343     1.007825032230
         H            0.458376944886     2.474519119060    -0.402429144657     1.007825032230
         H           -1.662273055114    -1.510953880940     0.066273855343     1.007825032230
         H           -2.933599055114    -0.567227880940    -0.294615144657     1.007825032230

  Basis Set: AUG-CC-PVTZ
    Blend: AUG-CC-PVTZ
  Basis Set: (AUG-CC-PVTZ AUX)
    Blend: AUG-CC-PVTZ-JKFIT
	 Reference Energy          =    -267.4338531268677457 [Eh]
	 Singles Energy            =      -0.0000000000000000 [Eh]
	 Same-Spin Energy          =      -0.2843678450319410 [Eh]
	 Opposite-Spin Energy      =      -0.9912504348812208 [Eh]
	 Correlation Energy        =      -1.2756182799131617 [Eh]
	 Total Energy              =    -268.7094714067808923 [Eh]

	 ================> DF-SCS-MP2 Energies <==================
	-----------------------------------------------------------
	 SCS Same-Spin Scale       =       0.3333333333333333 [-]
	 SCS Opposite-Spin Scale   =       1.2000000000000000 [-]
	 SCS Same-Spin Energy      =      -0.0947892816773137 [Eh]
	 SCS Opposite-Spin Energy  =      -1.1895005218574648 [Eh]
	 SCS Correlation Energy    =      -1.2842898035347785 [Eh]
	 SCS Total Energy          =    -268.7181429304025073 [Eh]
	-----------------------------------------------------------

  Dipole Moment: [D]
     X:    -0.4199      Y:     0.1107      Z:     0.0051     Total:     0.4342

*** Psi4 exiting successfully. Buy a developer a beer!
