                               Psi4 1.4a3.dev225

  ==> Input File <==

--------------------------------------------------------------------------
#psi4
#
memory 32 gb

molecule  {
0 1
  N        0.9404650     1.6044440    -0.2603840
  N       -2.0577020    -0.5628020     0.2031370
  C        0.0733550     0.6450740     0.4388170
  C        0.8648870    -0.6349690     0.7149280
  C       -1.1251860     0.3902802    -0.4701296
  C        1.3403660    -1.3686840    -0.5373980
  H       -0.2919930     1.0197560     1.4097680
  H        0.2501680    -1.2934280     1.3390890
  H        1.7346290    -0.3675780     1.3302640
  H       -1.7030210     1.3537690    -0.5225160
  H       -0.8245660     0.1340620    -1.4434830
  H        1.9943120    -2.2039600    -0.2694910
  H        0.5025080    -1.7807990    -1.1082240
  H        1.8904320    -0.6904920    -1.1924240
  H        1.7396730     1.8267360     0.3337390
  H        0.4376740     2.4833400    -0.3885230
  H       -1.6829760    -1.5021330     0.0801800
  H       -2.9543020    -0.5584070    -0.2807090
units angstrom
no_reorient  #important for SAPT in psi4, default
symmetry c1  #important for SAPT in psi4, default
}

set PROPERTIES_ORIGIN ["COM"]
properties('MP2/aug-cc-pvtz', properties = ['dipole'])
--------------------------------------------------------------------------

    Molecular point group: c1
  Charge       = 0
  Multiplicity = 1
  Basis Set: AUG-CC-PVTZ
    Blend: AUG-CC-PVTZ
  Basis Set: (AUG-CC-PVTZ AUX)
    Blend: AUG-CC-PVTZ-JKFIT

    Orbital Energies [Eh]
    ---------------------

    Doubly Occupied:

       1A    -15.541763     2A    -15.537975     3A    -11.245894
       4A    -11.241918     5A    -11.214127     6A    -11.206118
       7A     -1.194949     8A     -1.154795     9A     -1.029706
      10A     -0.938998    11A     -0.864974    12A     -0.751370
      13A     -0.669919    14A     -0.663580    15A     -0.640733
      16A     -0.589468    17A     -0.582926    18A     -0.556019
      19A     -0.522312    20A     -0.513522    21A     -0.492254
      22A     -0.468440    23A     -0.449629    24A     -0.399105
      25A     -0.390971

  @DF-RHF Final Energy:  -267.44148553868757

   => Energetics <=

    Nuclear Repulsion Energy =            264.7062399377533097
    One-Electron Energy =                -886.5725226155574319
    Two-Electron Energy =                 354.4247971391164924
    Total Energy =                       -267.4414855386875729
  Basis Set: (AUG-CC-PVTZ AUX)
    Blend: AUG-CC-PVTZ-RI
    Molecular point group: c1

    Geometry (in Angstrom), charge = 0, multiplicity = 1:

       Center              X                  Y                   Z               Mass
    ------------   -----------------  -----------------  -----------------  -----------------
         N            0.948440038144     1.588835454231    -0.263052225745    14.003074004430
         N           -2.049726961856    -0.578410545769     0.200468774255    14.003074004430
         C            0.081330038144     0.629465454231     0.436148774255    12.000000000000
         C            0.872862038144    -0.650577545769     0.712259774255    12.000000000000
         C           -1.117210961856     0.374671654231    -0.472797825745    12.000000000000
         C            1.348341038144    -1.384292545769    -0.540066225745    12.000000000000
         H           -0.284017961856     1.004147454231     1.407099774255     1.007825032230
         H            0.258143038144    -1.309036545769     1.336420774255     1.007825032230
         H            1.742604038144    -0.383186545769     1.327595774255     1.007825032230
         H           -1.695045961856     1.338160454231    -0.525184225745     1.007825032230
         H           -0.816590961856     0.118453454231    -1.446151225745     1.007825032230
         H            2.002287038144    -2.219568545769    -0.272159225745     1.007825032230
         H            0.510483038144    -1.796407545769    -1.110892225745     1.007825032230
         H            1.898407038144    -0.706100545769    -1.195092225745     1.007825032230
         H            1.747648038144     1.811127454231     0.331070774255     1.007825032230
         H            0.445649038144     2.467731454231    -0.391191225745     1.007825032230
         H           -1.675000961856    -1.517741545769     0.077511774255     1.007825032230
         H           -2.946326961856    -0.574015545769    -0.283377225745     1.007825032230

  Basis Set: AUG-CC-PVTZ
    Blend: AUG-CC-PVTZ
  Basis Set: (AUG-CC-PVTZ AUX)
    Blend: AUG-CC-PVTZ-JKFIT
	 Reference Energy          =    -267.4414855386875729 [Eh]
	 Singles Energy            =      -0.0000000000000000 [Eh]
	 Same-Spin Energy          =      -0.2837549659618092 [Eh]
	 Opposite-Spin Energy      =      -0.9914663923465308 [Eh]
	 Correlation Energy        =      -1.2752213583083400 [Eh]
	 Total Energy              =    -268.7167068969959018 [Eh]

	 ================> DF-SCS-MP2 Energies <==================
	-----------------------------------------------------------
	 SCS Same-Spin Scale       =       0.3333333333333333 [-]
	 SCS Opposite-Spin Scale   =       1.2000000000000000 [-]
	 SCS Same-Spin Energy      =      -0.0945849886539364 [Eh]
	 SCS Opposite-Spin Energy  =      -1.1897596708158369 [Eh]
	 SCS Correlation Energy    =      -1.2843446594697732 [Eh]
	 SCS Total Energy          =    -268.7258301981573254 [Eh]
	-----------------------------------------------------------

  Dipole Moment: [D]
     X:    -0.1721      Y:     0.2486      Z:    -0.1418     Total:     0.3340

*** Psi4 exiting successfully. Buy a developer a beer!
