                               Psi4 1.4a3.dev225

  ==> Input File <==

--------------------------------------------------------------------------
#psi4
#
memory 32 gb

molecule  {
0 1
  N        1.0511435     1.4978338    -0.2524738
  N       -2.0577020    -0.5628020     0.2031370
  C        0.0733550     0.6450740     0.4388170
  C        0.8648870    -0.6349690     0.7149280
  C       -1.1572530     0.4065190    -0.4308380
  C        1.3403660    -1.3686840    -0.5373980
  H       -0.2919930     1.0197560     1.4097680
  H        0.2501680    -1.2934280     1.3390890
  H        1.7346290    -0.3675780     1.3302640
  H       -1.7030210     1.3537690    -0.5225160
  H       -0.8245660     0.1340620    -1.4434830
  H        1.9943120    -2.2039600    -0.2694910
  H        0.5025080    -1.7807990    -1.1082240
  H        1.8904320    -0.6904920    -1.1924240
  H        1.7396730     1.8267360     0.3337390
  H        0.4376740     2.4833400    -0.3885230
  H       -1.6829760    -1.5021330     0.0801800
  H       -2.9543020    -0.5584070    -0.2807090
units angstrom
no_reorient  #important for SAPT in psi4, default
symmetry c1  #important for SAPT in psi4, default
}

set PROPERTIES_ORIGIN ["COM"]
properties('MP2/aug-cc-pvtz', properties = ['dipole'])
--------------------------------------------------------------------------

    Molecular point group: c1
  Charge       = 0
  Multiplicity = 1
  Basis Set: AUG-CC-PVTZ
    Blend: AUG-CC-PVTZ
  Basis Set: (AUG-CC-PVTZ AUX)
    Blend: AUG-CC-PVTZ-JKFIT

    Orbital Energies [Eh]
    ---------------------

    Doubly Occupied:

       1A    -15.550983     2A    -15.543912     3A    -11.247207
       4A    -11.245597     5A    -11.211162     6A    -11.203378
       7A     -1.198229     8A     -1.161288     9A     -1.025000
      10A     -0.941583    11A     -0.861864    12A     -0.751166
      13A     -0.673418    14A     -0.663724    15A     -0.631524
      16A     -0.588962    17A     -0.582175    18A     -0.538664
      19A     -0.529316    20A     -0.517952    21A     -0.490577
      22A     -0.466217    23A     -0.442974    24A     -0.402456
      25A     -0.393938

  @DF-RHF Final Energy:  -267.41993127233485

   => Energetics <=

    Nuclear Repulsion Energy =            265.0360053989174958
    One-Electron Energy =                -887.1853449089838932
    Two-Electron Energy =                 354.7294082377315476
    Total Energy =                       -267.4199312723348498
  Basis Set: (AUG-CC-PVTZ AUX)
    Blend: AUG-CC-PVTZ-RI
    Molecular point group: c1

    Geometry (in Angstrom), charge = 0, multiplicity = 1:

       Center              X                  Y                   Z               Mass
    ------------   -----------------  -----------------  -----------------  -----------------
         N            1.045894536030     1.496958559647    -0.261751174396    14.003074004430
         N           -2.062950963970    -0.563677240353     0.193859625604    14.003074004430
         C            0.068106036030     0.644198759647     0.429539625604    12.000000000000
         C            0.859638036030    -0.635844240353     0.705650625604    12.000000000000
         C           -1.162501963970     0.405643759647    -0.440115374396    12.000000000000
         C            1.335117036030    -1.369559240353    -0.546675374396    12.000000000000
         H           -0.297241963970     1.018880759647     1.400490625604     1.007825032230
         H            0.244919036030    -1.294303240353     1.329811625604     1.007825032230
         H            1.729380036030    -0.368453240353     1.320986625604     1.007825032230
         H           -1.708269963970     1.352893759647    -0.531793374396     1.007825032230
         H           -0.829814963970     0.133186759647    -1.452760374396     1.007825032230
         H            1.989063036030    -2.204835240353    -0.278768374396     1.007825032230
         H            0.497259036030    -1.781674240353    -1.117501374396     1.007825032230
         H            1.885183036030    -0.691367240353    -1.201701374396     1.007825032230
         H            1.734424036030     1.825860759647     0.324461625604     1.007825032230
         H            0.432425036030     2.482464759647    -0.397800374396     1.007825032230
         H           -1.688224963970    -1.503008240353     0.070902625604     1.007825032230
         H           -2.959550963970    -0.559282240353    -0.289986374396     1.007825032230

  Basis Set: AUG-CC-PVTZ
    Blend: AUG-CC-PVTZ
  Basis Set: (AUG-CC-PVTZ AUX)
    Blend: AUG-CC-PVTZ-JKFIT
	 Reference Energy          =    -267.4199312723348498 [Eh]
	 Singles Energy            =      -0.0000000000000000 [Eh]
	 Same-Spin Energy          =      -0.2847712522858820 [Eh]
	 Opposite-Spin Energy      =      -0.9941171162490086 [Eh]
	 Correlation Energy        =      -1.2788883685348906 [Eh]
	 Total Energy              =    -268.6988196408697149 [Eh]

	 ================> DF-SCS-MP2 Energies <==================
	-----------------------------------------------------------
	 SCS Same-Spin Scale       =       0.3333333333333333 [-]
	 SCS Opposite-Spin Scale   =       1.2000000000000000 [-]
	 SCS Same-Spin Energy      =      -0.0949237507619607 [Eh]
	 SCS Opposite-Spin Energy  =      -1.1929405394988102 [Eh]
	 SCS Correlation Energy    =      -1.2878642902607709 [Eh]
	 SCS Total Energy          =    -268.7077955625956065 [Eh]
	-----------------------------------------------------------

  Dipole Moment: [D]
     X:    -0.3958      Y:     0.3698      Z:    -0.0737     Total:     0.5466

*** Psi4 exiting successfully. Buy a developer a beer!
