                               Psi4 1.4a3.dev225

  ==> Input File <==

--------------------------------------------------------------------------
#psi4
#
memory 32 gb

molecule  {
0 1
  N        0.9404650     1.6044440    -0.2603840
  N       -2.0577020    -0.5628020     0.2031370
  C        0.0733550     0.6450740     0.4388170
  C        0.8648870    -0.6349690     0.7149280
  C       -1.1572530     0.4065190    -0.4308380
  C        1.3403660    -1.3686840    -0.5373980
  H       -0.2919930     1.0197560     1.4097680
  H        0.2501680    -1.2934280     1.3390890
  H        1.7346290    -0.3675780     1.3302640
  H       -1.7030210     1.3537690    -0.5225160
  H       -0.8245660     0.1340620    -1.4434830
  H        1.9943120    -2.2039600    -0.2694910
  H        0.5025080    -1.7807990    -1.1082240
  H        1.8904320    -0.6904920    -1.1924240
  H        1.7396730     1.8267360     0.3337390
  H        0.4376740     2.4833400    -0.3885230
  H       -1.6262706    -1.4817631     0.1179426
  H       -2.9543020    -0.5584070    -0.2807090
units angstrom
no_reorient  #important for SAPT in psi4, default
symmetry c1  #important for SAPT in psi4, default
}

set PROPERTIES_ORIGIN ["COM"]
properties('MP2/aug-cc-pvtz', properties = ['dipole'])
--------------------------------------------------------------------------

    Molecular point group: c1
  Charge       = 0
  Multiplicity = 1
  Basis Set: AUG-CC-PVTZ
    Blend: AUG-CC-PVTZ
  Basis Set: (AUG-CC-PVTZ AUX)
    Blend: AUG-CC-PVTZ-JKFIT

    Orbital Energies [Eh]
    ---------------------

    Doubly Occupied:

       1A    -15.540948     2A    -15.538441     3A    -11.245656
       4A    -11.241799     5A    -11.215161     6A    -11.206094
       7A     -1.196935     8A     -1.158715     9A     -1.029867
      10A     -0.937848    11A     -0.863316    12A     -0.749935
      13A     -0.676074    14A     -0.662628    15A     -0.642546
      16A     -0.591700    17A     -0.578367    18A     -0.553497
      19A     -0.530436    20A     -0.515641    21A     -0.492304
      22A     -0.468822    23A     -0.453427    24A     -0.392476
      25A     -0.388286

  @DF-RHF Final Energy:  -267.44447158488481

   => Energetics <=

    Nuclear Repulsion Energy =            264.8376853995693523
    One-Electron Energy =                -886.8224743110858981
    Two-Electron Energy =                 354.5403173266316799
    Total Energy =                       -267.4444715848848091
  Basis Set: (AUG-CC-PVTZ AUX)
    Blend: AUG-CC-PVTZ-RI
    Molecular point group: c1

    Geometry (in Angstrom), charge = 0, multiplicity = 1:

       Center              X                  Y                   Z               Mass
    ------------   -----------------  -----------------  -----------------  -----------------
         N            0.952159160714     1.586390564596    -0.268836073800    14.003074004430
         N           -2.046007839286    -0.580855435404     0.194684926200    14.003074004430
         C            0.085049160714     0.627020564596     0.430364926200    12.000000000000
         C            0.876581160714    -0.653022435404     0.706475926200    12.000000000000
         C           -1.145558839286     0.388465564596    -0.439290073800    12.000000000000
         C            1.352060160714    -1.386737435404    -0.545850073800    12.000000000000
         H           -0.280298839286     1.001702564596     1.401315926200     1.007825032230
         H            0.261862160714    -1.311481435404     1.330636926200     1.007825032230
         H            1.746323160714    -0.385631435404     1.321811926200     1.007825032230
         H           -1.691326839286     1.335715564596    -0.530968073800     1.007825032230
         H           -0.812871839286     0.116008564596    -1.451935073800     1.007825032230
         H            2.006006160714    -2.222013435404    -0.277943073800     1.007825032230
         H            0.514202160714    -1.798852435404    -1.116676073800     1.007825032230
         H            1.902126160714    -0.708545435404    -1.200876073800     1.007825032230
         H            1.751367160714     1.808682564596     0.325286926200     1.007825032230
         H            0.449368160714     2.465286564596    -0.396975073800     1.007825032230
         H           -1.614576439286    -1.499816535404     0.109490526200     1.007825032230
         H           -2.942607839286    -0.576460435404    -0.289161073800     1.007825032230

  Basis Set: AUG-CC-PVTZ
    Blend: AUG-CC-PVTZ
  Basis Set: (AUG-CC-PVTZ AUX)
    Blend: AUG-CC-PVTZ-JKFIT
	 Reference Energy          =    -267.4444715848848091 [Eh]
	 Singles Energy            =      -0.0000000000000000 [Eh]
	 Same-Spin Energy          =      -0.2837934764270048 [Eh]
	 Opposite-Spin Energy      =      -0.9910582695422607 [Eh]
	 Correlation Energy        =      -1.2748517459692654 [Eh]
	 Total Energy              =    -268.7193233308540812 [Eh]

	 ================> DF-SCS-MP2 Energies <==================
	-----------------------------------------------------------
	 SCS Same-Spin Scale       =       0.3333333333333333 [-]
	 SCS Opposite-Spin Scale   =       1.2000000000000000 [-]
	 SCS Same-Spin Energy      =      -0.0945978254756683 [Eh]
	 SCS Opposite-Spin Energy  =      -1.1892699234507129 [Eh]
	 SCS Correlation Energy    =      -1.2838677489263812 [Eh]
	 SCS Total Energy          =    -268.7283393338111637 [Eh]
	-----------------------------------------------------------

  Dipole Moment: [D]
     X:    -0.1746      Y:     0.2656      Z:    -0.0637     Total:     0.3241

*** Psi4 exiting successfully. Buy a developer a beer!
