                               Psi4 1.4a3.dev225

  ==> Input File <==

--------------------------------------------------------------------------
#psi4
#
memory 32 gb

molecule  {
0 1
  N        0.9210606     1.6212204    -0.2609587
  N       -2.0577020    -0.5628020     0.2031370
  C        0.0733550     0.6450740     0.4388170
  C        0.8648870    -0.6349690     0.7149280
  C       -1.1572530     0.4065190    -0.4308380
  C        1.3403660    -1.3686840    -0.5373980
  H       -0.2919930     1.0197560     1.4097680
  H        0.2501680    -1.2934280     1.3390890
  H        1.7346290    -0.3675780     1.3302640
  H       -1.7030210     1.3537690    -0.5225160
  H       -0.8245660     0.1340620    -1.4434830
  H        1.9943120    -2.2039600    -0.2694910
  H        0.5025080    -1.7807990    -1.1082240
  H        1.8904320    -0.6904920    -1.1924240
  H        1.7396730     1.8267360     0.3337390
  H        0.4376740     2.4833400    -0.3885230
  H       -1.6829760    -1.5021330     0.0801800
  H       -2.9543020    -0.5584070    -0.2807090
units angstrom
no_reorient  #important for SAPT in psi4, default
symmetry c1  #important for SAPT in psi4, default
}

set PROPERTIES_ORIGIN ["COM"]
properties('MP2/aug-cc-pvtz', properties = ['dipole'])
--------------------------------------------------------------------------

    Molecular point group: c1
  Charge       = 0
  Multiplicity = 1
  Basis Set: AUG-CC-PVTZ
    Blend: AUG-CC-PVTZ
  Basis Set: (AUG-CC-PVTZ AUX)
    Blend: AUG-CC-PVTZ-JKFIT

    Orbital Energies [Eh]
    ---------------------

    Doubly Occupied:

       1A    -15.541197     2A    -15.536421     3A    -11.245389
       4A    -11.242038     5A    -11.215068     6A    -11.206047
       7A     -1.197031     8A     -1.159212     9A     -1.030445
      10A     -0.938557    11A     -0.863643    12A     -0.750539
      13A     -0.671733    14A     -0.665329    15A     -0.641337
      16A     -0.589913    17A     -0.580435    18A     -0.556187
      19A     -0.530263    20A     -0.514206    21A     -0.492027
      22A     -0.469056    23A     -0.453794    24A     -0.393297
      25A     -0.387370

  @DF-RHF Final Energy:  -267.44494808774834

   => Energetics <=

    Nuclear Repulsion Energy =            264.6963063487087311
    One-Electron Energy =                -886.5414421750855354
    Two-Electron Energy =                 354.4001877386284605
    Total Energy =                       -267.4449480877483438
  Basis Set: (AUG-CC-PVTZ AUX)
    Blend: AUG-CC-PVTZ-RI
    Molecular point group: c1

    Geometry (in Angstrom), charge = 0, multiplicity = 1:

       Center              X                  Y                   Z               Mass
    ------------   -----------------  -----------------  -----------------  -----------------
         N            0.936487680012     1.600733459967    -0.268887440828    14.003074004430
         N           -2.042274919988    -0.583288940033     0.195208259172    14.003074004430
         C            0.088782080012     0.624587059967     0.430888259172    12.000000000000
         C            0.880314080012    -0.655455940033     0.706999259172    12.000000000000
         C           -1.141825919988     0.386032059967    -0.438766740828    12.000000000000
         C            1.355793080012    -1.389170940033    -0.545326740828    12.000000000000
         H           -0.276565919988     0.999269059967     1.401839259172     1.007825032230
         H            0.265595080012    -1.313914940033     1.331160259172     1.007825032230
         H            1.750056080012    -0.388064940033     1.322335259172     1.007825032230
         H           -1.687593919988     1.333282059967    -0.530444740828     1.007825032230
         H           -0.809138919988     0.113575059967    -1.451411740828     1.007825032230
         H            2.009739080012    -2.224446940033    -0.277419740828     1.007825032230
         H            0.517935080012    -1.801285940033    -1.116152740828     1.007825032230
         H            1.905859080012    -0.710978940033    -1.200352740828     1.007825032230
         H            1.755100080012     1.806249059967     0.325810259172     1.007825032230
         H            0.453101080012     2.462853059967    -0.396451740828     1.007825032230
         H           -1.667548919988    -1.522619940033     0.072251259172     1.007825032230
         H           -2.938874919988    -0.578893940033    -0.288637740828     1.007825032230

  Basis Set: AUG-CC-PVTZ
    Blend: AUG-CC-PVTZ
  Basis Set: (AUG-CC-PVTZ AUX)
    Blend: AUG-CC-PVTZ-JKFIT
	 Reference Energy          =    -267.4449480877483438 [Eh]
	 Singles Energy            =      -0.0000000000000000 [Eh]
	 Same-Spin Energy          =      -0.2835935910164291 [Eh]
	 Opposite-Spin Energy      =      -0.9906923610101614 [Eh]
	 Correlation Energy        =      -1.2742859520265906 [Eh]
	 Total Energy              =    -268.7192340397749604 [Eh]

	 ================> DF-SCS-MP2 Energies <==================
	-----------------------------------------------------------
	 SCS Same-Spin Scale       =       0.3333333333333333 [-]
	 SCS Opposite-Spin Scale   =       1.2000000000000000 [-]
	 SCS Same-Spin Energy      =      -0.0945311970054764 [Eh]
	 SCS Opposite-Spin Energy  =      -1.1888308332121937 [Eh]
	 SCS Correlation Energy    =      -1.2833620302176700 [Eh]
	 SCS Total Energy          =    -268.7283101179660321 [Eh]
	-----------------------------------------------------------

  Dipole Moment: [D]
     X:    -0.1925      Y:     0.2291      Z:    -0.1079     Total:     0.3180

*** Psi4 exiting successfully. Buy a developer a beer!
