                               Psi4 1.4a3.dev225

  ==> Input File <==

--------------------------------------------------------------------------
#psi4
#
memory 32 gb

molecule  {
0 1
  N        0.9404650     1.6044440    -0.2603840
  N       -2.0577020    -0.5628020     0.2031370
  C        0.1028468     0.6777037     0.4150360
  C        0.8648870    -0.6349690     0.7149280
  C       -1.1572530     0.4065190    -0.4308380
  C        1.3403660    -1.3686840    -0.5373980
  H       -0.2919930     1.0197560     1.4097680
  H        0.2501680    -1.2934280     1.3390890
  H        1.7346290    -0.3675780     1.3302640
  H       -1.7030210     1.3537690    -0.5225160
  H       -0.8245660     0.1340620    -1.4434830
  H        1.9943120    -2.2039600    -0.2694910
  H        0.5025080    -1.7807990    -1.1082240
  H        1.8904320    -0.6904920    -1.1924240
  H        1.7396730     1.8267360     0.3337390
  H        0.4376740     2.4833400    -0.3885230
  H       -1.6829760    -1.5021330     0.0801800
  H       -2.9543020    -0.5584070    -0.2807090
units angstrom
no_reorient  #important for SAPT in psi4, default
symmetry c1  #important for SAPT in psi4, default
}

set PROPERTIES_ORIGIN ["COM"]
properties('MP2/aug-cc-pvtz', properties = ['dipole'])
--------------------------------------------------------------------------

    Molecular point group: c1
  Charge       = 0
  Multiplicity = 1
  Basis Set: AUG-CC-PVTZ
    Blend: AUG-CC-PVTZ
  Basis Set: (AUG-CC-PVTZ AUX)
    Blend: AUG-CC-PVTZ-JKFIT

    Orbital Energies [Eh]
    ---------------------

    Doubly Occupied:

       1A    -15.541691     2A    -15.540496     3A    -11.246047
       4A    -11.242268     5A    -11.214147     6A    -11.204889
       7A     -1.205529     8A     -1.164274     9A     -1.027687
      10A     -0.935364    11A     -0.860388    12A     -0.750319
      13A     -0.670345    14A     -0.665524    15A     -0.648881
      16A     -0.588247    17A     -0.579260    18A     -0.558782
      19A     -0.531280    20A     -0.516504    21A     -0.492311
      22A     -0.470649    23A     -0.446276    24A     -0.393929
      25A     -0.383541

  @DF-RHF Final Energy:  -267.44258553747085

   => Energetics <=

    Nuclear Repulsion Energy =            264.8035646970864718
    One-Electron Energy =                -886.7350438725787853
    Two-Electron Energy =                 354.4888936380214659
    Total Energy =                       -267.4425855374708476
  Basis Set: (AUG-CC-PVTZ AUX)
    Blend: AUG-CC-PVTZ-RI
    Molecular point group: c1

    Geometry (in Angstrom), charge = 0, multiplicity = 1:

       Center              X                  Y                   Z               Mass
    ------------   -----------------  -----------------  -----------------  -----------------
         N            0.948790802991     1.582179135526    -0.265164905629    14.003074004430
         N           -2.049376197009    -0.585066864474     0.198356094371    14.003074004430
         C            0.111172602991     0.655438835526     0.410255094371    12.000000000000
         C            0.873212802991    -0.657233864474     0.710147094371    12.000000000000
         C           -1.148927197009     0.384254135526    -0.435618905629    12.000000000000
         C            1.348691802991    -1.390948864474    -0.542178905629    12.000000000000
         H           -0.283667197009     0.997491135526     1.404987094371     1.007825032230
         H            0.258493802991    -1.315692864474     1.334308094371     1.007825032230
         H            1.742954802991    -0.389842864474     1.325483094371     1.007825032230
         H           -1.694695197009     1.331504135526    -0.527296905629     1.007825032230
         H           -0.816240197009     0.111797135526    -1.448263905629     1.007825032230
         H            2.002637802991    -2.226224864474    -0.274271905629     1.007825032230
         H            0.510833802991    -1.803063864474    -1.113004905629     1.007825032230
         H            1.898757802991    -0.712756864474    -1.197204905629     1.007825032230
         H            1.747998802991     1.804471135526     0.328958094371     1.007825032230
         H            0.445999802991     2.461075135526    -0.393303905629     1.007825032230
         H           -1.674650197009    -1.524397864474     0.075399094371     1.007825032230
         H           -2.945976197009    -0.580671864474    -0.285489905629     1.007825032230

  Basis Set: AUG-CC-PVTZ
    Blend: AUG-CC-PVTZ
  Basis Set: (AUG-CC-PVTZ AUX)
    Blend: AUG-CC-PVTZ-JKFIT
	 Reference Energy          =    -267.4425855374708476 [Eh]
	 Singles Energy            =      -0.0000000000000000 [Eh]
	 Same-Spin Energy          =      -0.2838569254716126 [Eh]
	 Opposite-Spin Energy      =      -0.9909301019850444 [Eh]
	 Correlation Energy        =      -1.2747870274566571 [Eh]
	 Total Energy              =    -268.7173725649275298 [Eh]

	 ================> DF-SCS-MP2 Energies <==================
	-----------------------------------------------------------
	 SCS Same-Spin Scale       =       0.3333333333333333 [-]
	 SCS Opposite-Spin Scale   =       1.2000000000000000 [-]
	 SCS Same-Spin Energy      =      -0.0946189751572042 [Eh]
	 SCS Opposite-Spin Energy  =      -1.1891161223820532 [Eh]
	 SCS Correlation Energy    =      -1.2837350975392574 [Eh]
	 SCS Total Energy          =    -268.7263206350100972 [Eh]
	-----------------------------------------------------------

  Dipole Moment: [D]
     X:    -0.1458      Y:     0.3473      Z:    -0.1560     Total:     0.4077

*** Psi4 exiting successfully. Buy a developer a beer!
