                               Psi4 1.4a3.dev225

  ==> Input File <==

--------------------------------------------------------------------------
#psi4
#
memory 32 gb

molecule  {
0 1
  N        0.9404650     1.6044440    -0.2603840
  N       -2.0596794    -0.5325977     0.2444415
  C        0.0733550     0.6450740     0.4388170
  C        0.8648870    -0.6349690     0.7149280
  C       -1.1572530     0.4065190    -0.4308380
  C        1.3403660    -1.3686840    -0.5373980
  H       -0.2919930     1.0197560     1.4097680
  H        0.2501680    -1.2934280     1.3390890
  H        1.7346290    -0.3675780     1.3302640
  H       -1.7030210     1.3537690    -0.5225160
  H       -0.8245660     0.1340620    -1.4434830
  H        1.9943120    -2.2039600    -0.2694910
  H        0.5025080    -1.7807990    -1.1082240
  H        1.8904320    -0.6904920    -1.1924240
  H        1.7396730     1.8267360     0.3337390
  H        0.4376740     2.4833400    -0.3885230
  H       -1.6829760    -1.5021330     0.0801800
  H       -2.9543020    -0.5584070    -0.2807090
units angstrom
no_reorient  #important for SAPT in psi4, default
symmetry c1  #important for SAPT in psi4, default
}

set PROPERTIES_ORIGIN ["COM"]
properties('MP2/aug-cc-pvtz', properties = ['dipole'])
--------------------------------------------------------------------------

    Molecular point group: c1
  Charge       = 0
  Multiplicity = 1
  Basis Set: AUG-CC-PVTZ
    Blend: AUG-CC-PVTZ
  Basis Set: (AUG-CC-PVTZ AUX)
    Blend: AUG-CC-PVTZ-JKFIT

    Orbital Energies [Eh]
    ---------------------

    Doubly Occupied:

       1A    -15.549778     2A    -15.538040     3A    -11.245051
       4A    -11.242583     5A    -11.214212     6A    -11.205778
       7A     -1.196332     8A     -1.156953     9A     -1.029118
      10A     -0.936878    11A     -0.862634    12A     -0.749088
      13A     -0.665837    14A     -0.662024    15A     -0.641950
      16A     -0.586039    17A     -0.579631    18A     -0.553757
      19A     -0.526009    20A     -0.513354    21A     -0.491771
      22A     -0.467954    23A     -0.452181    24A     -0.400058
      25A     -0.389439

  @DF-RHF Final Energy:  -267.44104101308341

   => Energetics <=

    Nuclear Repulsion Energy =            264.6084794164082723
    One-Electron Energy =                -886.3861408543696143
    Two-Electron Energy =                 354.3366204248779354
    Total Energy =                       -267.4410410130834066
  Basis Set: (AUG-CC-PVTZ AUX)
    Blend: AUG-CC-PVTZ-RI
    Molecular point group: c1

    Geometry (in Angstrom), charge = 0, multiplicity = 1:

       Center              X                  Y                   Z               Mass
    ------------   -----------------  -----------------  -----------------  -----------------
         N            0.953122143160     1.581822760601    -0.274969235887    14.003074004430
         N           -2.047022256840    -0.555218939399     0.229856264113    14.003074004430
         C            0.086012143160     0.622452760601     0.424231764113    12.000000000000
         C            0.877544143160    -0.657590239399     0.700342764113    12.000000000000
         C           -1.144595856840     0.383897760601    -0.445423235887    12.000000000000
         C            1.353023143160    -1.391305239399    -0.551983235887    12.000000000000
         H           -0.279335856840     0.997134760601     1.395182764113     1.007825032230
         H            0.262825143160    -1.316049239399     1.324503764113     1.007825032230
         H            1.747286143160    -0.390199239399     1.315678764113     1.007825032230
         H           -1.690363856840     1.331147760601    -0.537101235887     1.007825032230
         H           -0.811908856840     0.111440760601    -1.458068235887     1.007825032230
         H            2.006969143160    -2.226581239399    -0.284076235887     1.007825032230
         H            0.515165143160    -1.803420239399    -1.122809235887     1.007825032230
         H            1.903089143160    -0.713113239399    -1.207009235887     1.007825032230
         H            1.752330143160     1.804114760601     0.319153764113     1.007825032230
         H            0.450331143160     2.460718760601    -0.403108235887     1.007825032230
         H           -1.670318856840    -1.524754239399     0.065594764113     1.007825032230
         H           -2.941644856840    -0.581028239399    -0.295294235887     1.007825032230

  Basis Set: AUG-CC-PVTZ
    Blend: AUG-CC-PVTZ
  Basis Set: (AUG-CC-PVTZ AUX)
    Blend: AUG-CC-PVTZ-JKFIT
	 Reference Energy          =    -267.4410410130834066 [Eh]
	 Singles Energy            =      -0.0000000000000000 [Eh]
	 Same-Spin Energy          =      -0.2841490124873643 [Eh]
	 Opposite-Spin Energy      =      -0.9923135480595856 [Eh]
	 Correlation Energy        =      -1.2764625605469500 [Eh]
	 Total Energy              =    -268.7175035736303812 [Eh]

	 ================> DF-SCS-MP2 Energies <==================
	-----------------------------------------------------------
	 SCS Same-Spin Scale       =       0.3333333333333333 [-]
	 SCS Opposite-Spin Scale   =       1.2000000000000000 [-]
	 SCS Same-Spin Energy      =      -0.0947163374957881 [Eh]
	 SCS Opposite-Spin Energy  =      -1.1907762576715026 [Eh]
	 SCS Correlation Energy    =      -1.2854925951672906 [Eh]
	 SCS Total Energy          =    -268.7265336082506906 [Eh]
	-----------------------------------------------------------

  Dipole Moment: [D]
     X:    -0.2143      Y:     0.2170      Z:    -0.1792     Total:     0.3537

*** Psi4 exiting successfully. Buy a developer a beer!
