                               Psi4 1.4a3.dev225

  ==> Input File <==

--------------------------------------------------------------------------
#psi4
#
memory 32 gb

molecule  {
0 1
  N        0.9404650     1.6044440    -0.2603840
  N       -2.0577020    -0.5628020     0.2031370
  C        0.0733550     0.6450740     0.4388170
  C        0.7928271    -0.6877098     0.6563429
  C       -1.1572530     0.4065190    -0.4308380
  C        1.3403660    -1.3686840    -0.5373980
  H       -0.2919930     1.0197560     1.4097680
  H        0.2501680    -1.2934280     1.3390890
  H        1.7346290    -0.3675780     1.3302640
  H       -1.7030210     1.3537690    -0.5225160
  H       -0.8245660     0.1340620    -1.4434830
  H        1.9943120    -2.2039600    -0.2694910
  H        0.5025080    -1.7807990    -1.1082240
  H        1.8904320    -0.6904920    -1.1924240
  H        1.7396730     1.8267360     0.3337390
  H        0.4376740     2.4833400    -0.3885230
  H       -1.6829760    -1.5021330     0.0801800
  H       -2.9543020    -0.5584070    -0.2807090
units angstrom
no_reorient  #important for SAPT in psi4, default
symmetry c1  #important for SAPT in psi4, default
}

set PROPERTIES_ORIGIN ["COM"]
properties('MP2/aug-cc-pvtz', properties = ['dipole'])
--------------------------------------------------------------------------

    Molecular point group: c1
  Charge       = 0
  Multiplicity = 1
  Basis Set: AUG-CC-PVTZ
    Blend: AUG-CC-PVTZ
  Basis Set: (AUG-CC-PVTZ AUX)
    Blend: AUG-CC-PVTZ-JKFIT

    Orbital Energies [Eh]
    ---------------------

    Doubly Occupied:

       1A    -15.541900     2A    -15.539561     3A    -11.246918
       4A    -11.241305     5A    -11.219008     6A    -11.205384
       7A     -1.197844     8A     -1.159357     9A     -1.038034
      10A     -0.942083    11A     -0.860550    12A     -0.748301
      13A     -0.672084    14A     -0.665328    15A     -0.643700
      16A     -0.584834    17A     -0.584048    18A     -0.556352
      19A     -0.532974    20A     -0.515673    21A     -0.510250
      22A     -0.464199    23A     -0.431951    24A     -0.394006
      25A     -0.390854

  @DF-RHF Final Energy:  -267.43299300371405

   => Energetics <=

    Nuclear Repulsion Energy =            265.3905402754728016
    One-Electron Energy =                -887.8740708316656765
    Two-Electron Energy =                 355.0505375524787723
    Total Energy =                       -267.4329930037140457
  Basis Set: (AUG-CC-PVTZ AUX)
    Blend: AUG-CC-PVTZ-RI
    Molecular point group: c1

    Geometry (in Angstrom), charge = 0, multiplicity = 1:

       Center              X                  Y                   Z               Mass
    ------------   -----------------  -----------------  -----------------  -----------------
         N            0.962623036028     1.593807347073    -0.260424281672    14.003074004430
         N           -2.035543963972    -0.573438652927     0.203096718328    14.003074004430
         C            0.095513036028     0.634437347073     0.438776718328    12.000000000000
         C            0.814985136028    -0.698346452927     0.656302618328    12.000000000000
         C           -1.135094963972     0.395882347073    -0.430878281672    12.000000000000
         C            1.362524036028    -1.379320652927    -0.537438281672    12.000000000000
         H           -0.269834963972     1.009119347073     1.409727718328     1.007825032230
         H            0.272326036028    -1.304064652927     1.339048718328     1.007825032230
         H            1.756787036028    -0.378214652927     1.330223718328     1.007825032230
         H           -1.680862963972     1.343132347073    -0.522556281672     1.007825032230
         H           -0.802407963972     0.123425347073    -1.443523281672     1.007825032230
         H            2.016470036028    -2.214596652927    -0.269531281672     1.007825032230
         H            0.524666036028    -1.791435652927    -1.108264281672     1.007825032230
         H            1.912590036028    -0.701128652927    -1.192464281672     1.007825032230
         H            1.761831036028     1.816099347073     0.333698718328     1.007825032230
         H            0.459832036028     2.472703347073    -0.388563281672     1.007825032230
         H           -1.660817963972    -1.512769652927     0.080139718328     1.007825032230
         H           -2.932143963972    -0.569043652927    -0.280749281672     1.007825032230

  Basis Set: AUG-CC-PVTZ
    Blend: AUG-CC-PVTZ
  Basis Set: (AUG-CC-PVTZ AUX)
    Blend: AUG-CC-PVTZ-JKFIT
	 Reference Energy          =    -267.4329930037140457 [Eh]
	 Singles Energy            =      -0.0000000000000000 [Eh]
	 Same-Spin Energy          =      -0.2844152570104950 [Eh]
	 Opposite-Spin Energy      =      -0.9921211770448868 [Eh]
	 Correlation Energy        =      -1.2765364340553818 [Eh]
	 Total Energy              =    -268.7095294377694472 [Eh]

	 ================> DF-SCS-MP2 Energies <==================
	-----------------------------------------------------------
	 SCS Same-Spin Scale       =       0.3333333333333333 [-]
	 SCS Opposite-Spin Scale   =       1.2000000000000000 [-]
	 SCS Same-Spin Energy      =      -0.0948050856701650 [Eh]
	 SCS Opposite-Spin Energy  =      -1.1905454124538641 [Eh]
	 SCS Correlation Energy    =      -1.2853504981240291 [Eh]
	 SCS Total Energy          =    -268.7183435018380919 [Eh]
	-----------------------------------------------------------

  Dipole Moment: [D]
     X:    -0.2607      Y:     0.2269      Z:    -0.1524     Total:     0.3777

*** Psi4 exiting successfully. Buy a developer a beer!
