                               Psi4 1.4a3.dev225

  ==> Input File <==

--------------------------------------------------------------------------
#psi4
#
memory 32 gb

molecule  {
0 1
  N        0.9404650     1.6044440    -0.2603840
  N       -2.0577020    -0.5628020     0.2031370
  C        0.0733550     0.6450740     0.4388170
  C        0.9157207    -0.6240137     0.7266752
  C       -1.1572530     0.4065190    -0.4308380
  C        1.3403660    -1.3686840    -0.5373980
  H       -0.2919930     1.0197560     1.4097680
  H        0.2501680    -1.2934280     1.3390890
  H        1.7346290    -0.3675780     1.3302640
  H       -1.7030210     1.3537690    -0.5225160
  H       -0.8245660     0.1340620    -1.4434830
  H        1.9943120    -2.2039600    -0.2694910
  H        0.5025080    -1.7807990    -1.1082240
  H        1.8904320    -0.6904920    -1.1924240
  H        1.7396730     1.8267360     0.3337390
  H        0.4376740     2.4833400    -0.3885230
  H       -1.6829760    -1.5021330     0.0801800
  H       -2.9543020    -0.5584070    -0.2807090
units angstrom
no_reorient  #important for SAPT in psi4, default
symmetry c1  #important for SAPT in psi4, default
}

set PROPERTIES_ORIGIN ["COM"]
properties('MP2/aug-cc-pvtz', properties = ['dipole'])
--------------------------------------------------------------------------

    Molecular point group: c1
  Charge       = 0
  Multiplicity = 1
  Basis Set: AUG-CC-PVTZ
    Blend: AUG-CC-PVTZ
  Basis Set: (AUG-CC-PVTZ AUX)
    Blend: AUG-CC-PVTZ-JKFIT

    Orbital Energies [Eh]
    ---------------------

    Doubly Occupied:

       1A    -15.541487     2A    -15.537588     3A    -11.246044
       4A    -11.243211     5A    -11.213577     6A    -11.205541
       7A     -1.195981     8A     -1.159023     9A     -1.027969
      10A     -0.938134    11A     -0.863156    12A     -0.752210
      13A     -0.671218    14A     -0.660055    15A     -0.642761
      16A     -0.593835    17A     -0.579362    18A     -0.552405
      19A     -0.531531    20A     -0.516186    21A     -0.488825
      22A     -0.472560    23A     -0.448651    24A     -0.393967
      25A     -0.387834

  @DF-RHF Final Energy:  -267.44206954221283

   => Energetics <=

    Nuclear Repulsion Energy =            264.3478492825194053
    One-Electron Energy =                -885.8536227573829365
    Two-Electron Energy =                 354.0637039326506965
    Total Energy =                       -267.4420695422128347
  Basis Set: (AUG-CC-PVTZ AUX)
    Blend: AUG-CC-PVTZ-RI
    Molecular point group: c1

    Geometry (in Angstrom), charge = 0, multiplicity = 1:

       Center              X                  Y                   Z               Mass
    ------------   -----------------  -----------------  -----------------  -----------------
         N            0.945883848856     1.585131379080    -0.270004158362    14.003074004430
         N           -2.052283151144    -0.582114620920     0.193516841638    14.003074004430
         C            0.078773848856     0.625761379080     0.429196841638    12.000000000000
         C            0.921139548856    -0.643326320920     0.717055041638    12.000000000000
         C           -1.151834151144     0.387206379080    -0.440458158362    12.000000000000
         C            1.345784848856    -1.387996620920    -0.547018158362    12.000000000000
         H           -0.286574151144     1.000443379080     1.400147841638     1.007825032230
         H            0.255586848856    -1.312740620920     1.329468841638     1.007825032230
         H            1.740047848856    -0.386890620920     1.320643841638     1.007825032230
         H           -1.697602151144     1.334456379080    -0.532136158362     1.007825032230
         H           -0.819147151144     0.114749379080    -1.453103158362     1.007825032230
         H            1.999730848856    -2.223272620920    -0.279111158362     1.007825032230
         H            0.507926848856    -1.800111620920    -1.117844158362     1.007825032230
         H            1.895850848856    -0.709804620920    -1.202044158362     1.007825032230
         H            1.745091848856     1.807423379080     0.324118841638     1.007825032230
         H            0.443092848856     2.464027379080    -0.398143158362     1.007825032230
         H           -1.677557151144    -1.521445620920     0.070559841638     1.007825032230
         H           -2.948883151144    -0.577719620920    -0.290329158362     1.007825032230

  Basis Set: AUG-CC-PVTZ
    Blend: AUG-CC-PVTZ
  Basis Set: (AUG-CC-PVTZ AUX)
    Blend: AUG-CC-PVTZ-JKFIT
	 Reference Energy          =    -267.4420695422128347 [Eh]
	 Singles Energy            =      -0.0000000000000000 [Eh]
	 Same-Spin Energy          =      -0.2835977270621365 [Eh]
	 Opposite-Spin Energy      =      -0.9909943597872275 [Eh]
	 Correlation Energy        =      -1.2745920868493639 [Eh]
	 Total Energy              =    -268.7166616290621732 [Eh]

	 ================> DF-SCS-MP2 Energies <==================
	-----------------------------------------------------------
	 SCS Same-Spin Scale       =       0.3333333333333333 [-]
	 SCS Opposite-Spin Scale   =       1.2000000000000000 [-]
	 SCS Same-Spin Energy      =      -0.0945325756873788 [Eh]
	 SCS Opposite-Spin Energy  =      -1.1891932317446730 [Eh]
	 SCS Correlation Energy    =      -1.2837258074320517 [Eh]
	 SCS Total Energy          =    -268.7257953496448977 [Eh]
	-----------------------------------------------------------

  Dipole Moment: [D]
     X:    -0.2103      Y:     0.2687      Z:    -0.1061     Total:     0.3573

*** Psi4 exiting successfully. Buy a developer a beer!
