                               Psi4 1.4a3.dev225

  ==> Input File <==

--------------------------------------------------------------------------
#psi4
#
memory 32 gb

molecule  {
0 1
  N        0.9404650     1.6044440    -0.2603840
  N       -2.0577020    -0.5628020     0.2031370
  C        0.0733550     0.6450740     0.4388170
  C        0.8307792    -0.6126311     0.8698122
  C       -1.1572530     0.4065190    -0.4308380
  C        1.3403660    -1.3686840    -0.5373980
  H       -0.2919930     1.0197560     1.4097680
  H        0.2501680    -1.2934280     1.3390890
  H        1.7346290    -0.3675780     1.3302640
  H       -1.7030210     1.3537690    -0.5225160
  H       -0.8245660     0.1340620    -1.4434830
  H        1.9943120    -2.2039600    -0.2694910
  H        0.5025080    -1.7807990    -1.1082240
  H        1.8904320    -0.6904920    -1.1924240
  H        1.7396730     1.8267360     0.3337390
  H        0.4376740     2.4833400    -0.3885230
  H       -1.6829760    -1.5021330     0.0801800
  H       -2.9543020    -0.5584070    -0.2807090
units angstrom
no_reorient  #important for SAPT in psi4, default
symmetry c1  #important for SAPT in psi4, default
}

set PROPERTIES_ORIGIN ["COM"]
properties('MP2/aug-cc-pvtz', properties = ['dipole'])
--------------------------------------------------------------------------

    Molecular point group: c1
  Charge       = 0
  Multiplicity = 1
  Basis Set: AUG-CC-PVTZ
    Blend: AUG-CC-PVTZ
  Basis Set: (AUG-CC-PVTZ AUX)
    Blend: AUG-CC-PVTZ-JKFIT

    Orbital Energies [Eh]
    ---------------------

    Doubly Occupied:

       1A    -15.542140     2A    -15.539964     3A    -11.246005
       4A    -11.243467     5A    -11.211964     6A    -11.208142
       7A     -1.196347     8A     -1.159515     9A     -1.017543
      10A     -0.932183    11A     -0.869445    12A     -0.759469
      13A     -0.674031    14A     -0.662150    15A     -0.644245
      16A     -0.596532    17A     -0.574092    18A     -0.555901
      19A     -0.529232    20A     -0.515730    21A     -0.497495
      22A     -0.467122    23A     -0.443847    24A     -0.394696
      25A     -0.380064

  @DF-RHF Final Energy:  -267.42390458267352

   => Energetics <=

    Nuclear Repulsion Energy =            263.4790989357501303
    One-Electron Energy =                -884.0833655955952963
    Two-Electron Energy =                 353.1803620771716510
    Total Energy =                       -267.4239045826735151
  Basis Set: (AUG-CC-PVTZ AUX)
    Blend: AUG-CC-PVTZ-RI
    Molecular point group: c1

    Geometry (in Angstrom), charge = 0, multiplicity = 1:

       Center              X                  Y                   Z               Mass
    ------------   -----------------  -----------------  -----------------  -----------------
         N            0.957453626836     1.583580969035    -0.289500674326    14.003074004430
         N           -2.040713373164    -0.583665030965     0.174020325674    14.003074004430
         C            0.090343626836     0.624210969035     0.409700325674    12.000000000000
         C            0.847767826836    -0.633494130965     0.840695525674    12.000000000000
         C           -1.140264373164     0.385655969035    -0.459954674326    12.000000000000
         C            1.357354626836    -1.389547030965    -0.566514674326    12.000000000000
         H           -0.275004373164     0.998892969035     1.380651325674     1.007825032230
         H            0.267156626836    -1.314291030965     1.309972325674     1.007825032230
         H            1.751617626836    -0.388441030965     1.301147325674     1.007825032230
         H           -1.686032373164     1.332905969035    -0.551632674326     1.007825032230
         H           -0.807577373164     0.113198969035    -1.472599674326     1.007825032230
         H            2.011300626836    -2.224823030965    -0.298607674326     1.007825032230
         H            0.519496626836    -1.801662030965    -1.137340674326     1.007825032230
         H            1.907420626836    -0.711355030965    -1.221540674326     1.007825032230
         H            1.756661626836     1.805872969035     0.304622325674     1.007825032230
         H            0.454662626836     2.462476969035    -0.417639674326     1.007825032230
         H           -1.665987373164    -1.522996030965     0.051063325674     1.007825032230
         H           -2.937313373164    -0.579270030965    -0.309825674326     1.007825032230

  Basis Set: AUG-CC-PVTZ
    Blend: AUG-CC-PVTZ
  Basis Set: (AUG-CC-PVTZ AUX)
    Blend: AUG-CC-PVTZ-JKFIT
	 Reference Energy          =    -267.4239045826735151 [Eh]
	 Singles Energy            =      -0.0000000000000000 [Eh]
	 Same-Spin Energy          =      -0.2834075226354288 [Eh]
	 Opposite-Spin Energy      =      -0.9914987133172520 [Eh]
	 Correlation Energy        =      -1.2749062359526808 [Eh]
	 Total Energy              =    -268.6988108186262139 [Eh]

	 ================> DF-SCS-MP2 Energies <==================
	-----------------------------------------------------------
	 SCS Same-Spin Scale       =       0.3333333333333333 [-]
	 SCS Opposite-Spin Scale   =       1.2000000000000000 [-]
	 SCS Same-Spin Energy      =      -0.0944691742118096 [Eh]
	 SCS Opposite-Spin Energy  =      -1.1897984559807024 [Eh]
	 SCS Correlation Energy    =      -1.2842676301925120 [Eh]
	 SCS Total Energy          =    -268.7081722128660317 [Eh]
	-----------------------------------------------------------

  Dipole Moment: [D]
     X:    -0.2462      Y:     0.3123      Z:    -0.0470     Total:     0.4005

*** Psi4 exiting successfully. Buy a developer a beer!
