                               Psi4 1.4a3.dev225

  ==> Input File <==

--------------------------------------------------------------------------
#psi4
#
memory 32 gb

molecule  {
0 1
  N        0.9404650     1.6044440    -0.2603840
  N       -2.0577020    -0.5628020     0.2031370
  C        0.0733550     0.6450740     0.4388170
  C        0.8648870    -0.6349690     0.7149280
  C       -1.1572530     0.4065190    -0.4308380
  C        1.3403660    -1.3686840    -0.5373980
  H       -0.2919930     1.0197560     1.4097680
  H        0.2501680    -1.2934280     1.3390890
  H        1.7346290    -0.3675780     1.3302640
  H       -1.7527690     1.4401131    -0.5308727
  H       -0.8245660     0.1340620    -1.4434830
  H        1.9943120    -2.2039600    -0.2694910
  H        0.5025080    -1.7807990    -1.1082240
  H        1.8904320    -0.6904920    -1.1924240
  H        1.7396730     1.8267360     0.3337390
  H        0.4376740     2.4833400    -0.3885230
  H       -1.6829760    -1.5021330     0.0801800
  H       -2.9543020    -0.5584070    -0.2807090
units angstrom
no_reorient  #important for SAPT in psi4, default
symmetry c1  #important for SAPT in psi4, default
}

set PROPERTIES_ORIGIN ["COM"]
properties('MP2/aug-cc-pvtz', properties = ['dipole'])
--------------------------------------------------------------------------

    Molecular point group: c1
  Charge       = 0
  Multiplicity = 1
  Basis Set: AUG-CC-PVTZ
    Blend: AUG-CC-PVTZ
  Basis Set: (AUG-CC-PVTZ AUX)
    Blend: AUG-CC-PVTZ-JKFIT

    Orbital Energies [Eh]
    ---------------------

    Doubly Occupied:

       1A    -15.543018     2A    -15.538253     3A    -11.255042
       4A    -11.246452     5A    -11.215413     6A    -11.206357
       7A     -1.196694     8A     -1.159692     9A     -1.030216
      10A     -0.936031    11A     -0.859936    12A     -0.747316
      13A     -0.668277    14A     -0.663011    15A     -0.643532
      16A     -0.590386    17A     -0.580462    18A     -0.553794
      19A     -0.524865    20A     -0.512116    21A     -0.492221
      22A     -0.469251    23A     -0.448857    24A     -0.394812
      25A     -0.389087

  @DF-RHF Final Energy:  -267.43859762730989

   => Energetics <=

    Nuclear Repulsion Energy =            264.2673613157340924
    One-Electron Energy =                -885.6817374012377968
    Two-Electron Energy =                 353.9757784581938154
    Total Energy =                       -267.4385976273098890
  Basis Set: (AUG-CC-PVTZ AUX)
    Blend: AUG-CC-PVTZ-RI
    Molecular point group: c1

    Geometry (in Angstrom), charge = 0, multiplicity = 1:

       Center              X                  Y                   Z               Mass
    ------------   -----------------  -----------------  -----------------  -----------------
         N            0.953376939855     1.585635849344    -0.268308489697    14.003074004430
         N           -2.044790060145    -0.581610150656     0.195212510303    14.003074004430
         C            0.086266939855     0.626265849344     0.430892510303    12.000000000000
         C            0.877798939855    -0.653777150656     0.707003510303    12.000000000000
         C           -1.144341060145     0.387710849344    -0.438762489697    12.000000000000
         C            1.353277939855    -1.387492150656    -0.545322489697    12.000000000000
         H           -0.279081060145     1.000947849344     1.401843510303     1.007825032230
         H            0.263079939855    -1.312236150656     1.331164510303     1.007825032230
         H            1.747540939855    -0.386386150656     1.322339510303     1.007825032230
         H           -1.739857060145     1.421304949344    -0.538797189697     1.007825032230
         H           -0.811654060145     0.115253849344    -1.451407489697     1.007825032230
         H            2.007223939855    -2.222768150656    -0.277415489697     1.007825032230
         H            0.515419939855    -1.799607150656    -1.116148489697     1.007825032230
         H            1.903343939855    -0.709300150656    -1.200348489697     1.007825032230
         H            1.752584939855     1.807927849344     0.325814510303     1.007825032230
         H            0.450585939855     2.464531849344    -0.396447489697     1.007825032230
         H           -1.670064060145    -1.520941150656     0.072255510303     1.007825032230
         H           -2.941390060145    -0.577215150656    -0.288633489697     1.007825032230

  Basis Set: AUG-CC-PVTZ
    Blend: AUG-CC-PVTZ
  Basis Set: (AUG-CC-PVTZ AUX)
    Blend: AUG-CC-PVTZ-JKFIT
	 Reference Energy          =    -267.4385976273098890 [Eh]
	 Singles Energy            =      -0.0000000000000000 [Eh]
	 Same-Spin Energy          =      -0.2837549563746365 [Eh]
	 Opposite-Spin Energy      =      -0.9917428624422145 [Eh]
	 Correlation Energy        =      -1.2754978188168511 [Eh]
	 Total Energy              =    -268.7140954461267484 [Eh]

	 ================> DF-SCS-MP2 Energies <==================
	-----------------------------------------------------------
	 SCS Same-Spin Scale       =       0.3333333333333333 [-]
	 SCS Opposite-Spin Scale   =       1.2000000000000000 [-]
	 SCS Same-Spin Energy      =      -0.0945849854582122 [Eh]
	 SCS Opposite-Spin Energy  =      -1.1900914349306575 [Eh]
	 SCS Correlation Energy    =      -1.2846764203888696 [Eh]
	 SCS Total Energy          =    -268.7232740476987374 [Eh]
	-----------------------------------------------------------

  Dipole Moment: [D]
     X:    -0.1806      Y:     0.1763      Z:    -0.0792     Total:     0.2646

*** Psi4 exiting successfully. Buy a developer a beer!
