                               Psi4 1.4a3.dev225

  ==> Input File <==

--------------------------------------------------------------------------
#psi4
#
memory 32 gb

molecule  {
0 1
  N        0.9404650     1.6044440    -0.2603840
  N       -2.0577020    -0.5628020     0.2031370
  C        0.0851517     0.6581259     0.4293046
  C        0.8648870    -0.6349690     0.7149280
  C       -1.1572530     0.4065190    -0.4308380
  C        1.3403660    -1.3686840    -0.5373980
  H       -0.2919930     1.0197560     1.4097680
  H        0.2501680    -1.2934280     1.3390890
  H        1.7346290    -0.3675780     1.3302640
  H       -1.7030210     1.3537690    -0.5225160
  H       -0.8245660     0.1340620    -1.4434830
  H        1.9943120    -2.2039600    -0.2694910
  H        0.5025080    -1.7807990    -1.1082240
  H        1.8904320    -0.6904920    -1.1924240
  H        1.7396730     1.8267360     0.3337390
  H        0.4376740     2.4833400    -0.3885230
  H       -1.6829760    -1.5021330     0.0801800
  H       -2.9543020    -0.5584070    -0.2807090
units angstrom
no_reorient  #important for SAPT in psi4, default
symmetry c1  #important for SAPT in psi4, default
}

set PROPERTIES_ORIGIN ["COM"]
properties('MP2/aug-cc-pvtz', properties = ['dipole'])
--------------------------------------------------------------------------

    Molecular point group: c1
  Charge       = 0
  Multiplicity = 1
  Basis Set: AUG-CC-PVTZ
    Blend: AUG-CC-PVTZ
  Basis Set: (AUG-CC-PVTZ AUX)
    Blend: AUG-CC-PVTZ-JKFIT

    Orbital Energies [Eh]
    ---------------------

    Doubly Occupied:

       1A    -15.541611     2A    -15.539222     3A    -11.245575
       4A    -11.242386     5A    -11.214255     6A    -11.205305
       7A     -1.199725     8A     -1.161552     9A     -1.028720
      10A     -0.937386    11A     -0.862112    12A     -0.749978
      13A     -0.670820    14A     -0.663788    15A     -0.645333
      16A     -0.589044    17A     -0.579802    18A     -0.555227
      19A     -0.531178    20A     -0.515734    21A     -0.491936
      22A     -0.469240    23A     -0.450474    24A     -0.394065
      25A     -0.386866

  @DF-RHF Final Energy:  -267.44471078000873

   => Energetics <=

    Nuclear Repulsion Energy =            264.7555075121071582
    One-Electron Energy =                -886.6577691965604799
    Two-Electron Energy =                 354.4575509044446449
    Total Energy =                       -267.4447107800087338
  Basis Set: (AUG-CC-PVTZ AUX)
    Blend: AUG-CC-PVTZ-RI
    Molecular point group: c1

    Geometry (in Angstrom), charge = 0, multiplicity = 1:

       Center              X                  Y                   Z               Mass
    ------------   -----------------  -----------------  -----------------  -----------------
         N            0.951201030952     1.584845803755    -0.267108414209    14.003074004430
         N           -2.046965969048    -0.582400196245     0.196412585791    14.003074004430
         C            0.095887730952     0.638527703755     0.422580185791    12.000000000000
         C            0.875623030952    -0.654567196245     0.708203585791    12.000000000000
         C           -1.146516969048     0.386920803755    -0.437562414209    12.000000000000
         C            1.351102030952    -1.388282196245    -0.544122414209    12.000000000000
         H           -0.281256969048     1.000157803755     1.403043585791     1.007825032230
         H            0.260904030952    -1.313026196245     1.332364585791     1.007825032230
         H            1.745365030952    -0.387176196245     1.323539585791     1.007825032230
         H           -1.692284969048     1.334170803755    -0.529240414209     1.007825032230
         H           -0.813829969048     0.114463803755    -1.450207414209     1.007825032230
         H            2.005048030952    -2.223558196245    -0.276215414209     1.007825032230
         H            0.513244030952    -1.800397196245    -1.114948414209     1.007825032230
         H            1.901168030952    -0.710090196245    -1.199148414209     1.007825032230
         H            1.750409030952     1.807137803755     0.327014585791     1.007825032230
         H            0.448410030952     2.463741803755    -0.395247414209     1.007825032230
         H           -1.672239969048    -1.521731196245     0.073455585791     1.007825032230
         H           -2.943565969048    -0.578005196245    -0.287433414209     1.007825032230

  Basis Set: AUG-CC-PVTZ
    Blend: AUG-CC-PVTZ
  Basis Set: (AUG-CC-PVTZ AUX)
    Blend: AUG-CC-PVTZ-JKFIT
	 Reference Energy          =    -267.4447107800087338 [Eh]
	 Singles Energy            =      -0.0000000000000000 [Eh]
	 Same-Spin Energy          =      -0.2837413133883654 [Eh]
	 Opposite-Spin Energy      =      -0.9909207075349228 [Eh]
	 Correlation Energy        =      -1.2746620209232882 [Eh]
	 Total Energy              =    -268.7193728009320353 [Eh]

	 ================> DF-SCS-MP2 Energies <==================
	-----------------------------------------------------------
	 SCS Same-Spin Scale       =       0.3333333333333333 [-]
	 SCS Opposite-Spin Scale   =       1.2000000000000000 [-]
	 SCS Same-Spin Energy      =      -0.0945804377961218 [Eh]
	 SCS Opposite-Spin Energy  =      -1.1891048490419074 [Eh]
	 SCS Correlation Energy    =      -1.2836852868380293 [Eh]
	 SCS Total Energy          =    -268.7283960668467557 [Eh]
	-----------------------------------------------------------

  Dipole Moment: [D]
     X:    -0.1931      Y:     0.2931      Z:    -0.1238     Total:     0.3722

*** Psi4 exiting successfully. Buy a developer a beer!
