                               Psi4 1.4a3.dev225

  ==> Input File <==

--------------------------------------------------------------------------
#psi4
#
memory 32 gb

molecule  {
0 1
  N        0.9404650     1.6044440    -0.2603840
  N       -2.0577020    -0.5628020     0.2031370
  C        0.0733550     0.6450740     0.4388170
  C        0.8472201    -0.6487494     0.7003968
  C       -1.1572530     0.4065190    -0.4308380
  C        1.3403660    -1.3686840    -0.5373980
  H       -0.2919930     1.0197560     1.4097680
  H        0.2501680    -1.2934280     1.3390890
  H        1.7346290    -0.3675780     1.3302640
  H       -1.7030210     1.3537690    -0.5225160
  H       -0.8245660     0.1340620    -1.4434830
  H        1.9943120    -2.2039600    -0.2694910
  H        0.5025080    -1.7807990    -1.1082240
  H        1.8904320    -0.6904920    -1.1924240
  H        1.7396730     1.8267360     0.3337390
  H        0.4376740     2.4833400    -0.3885230
  H       -1.6829760    -1.5021330     0.0801800
  H       -2.9543020    -0.5584070    -0.2807090
units angstrom
no_reorient  #important for SAPT in psi4, default
symmetry c1  #important for SAPT in psi4, default
}

set PROPERTIES_ORIGIN ["COM"]
properties('MP2/aug-cc-pvtz', properties = ['dipole'])
--------------------------------------------------------------------------

    Molecular point group: c1
  Charge       = 0
  Multiplicity = 1
  Basis Set: AUG-CC-PVTZ
    Blend: AUG-CC-PVTZ
  Basis Set: (AUG-CC-PVTZ AUX)
    Blend: AUG-CC-PVTZ-JKFIT

    Orbital Energies [Eh]
    ---------------------

    Doubly Occupied:

       1A    -15.541600     2A    -15.538596     3A    -11.245624
       4A    -11.242122     5A    -11.215215     6A    -11.205402
       7A     -1.197030     8A     -1.159173     9A     -1.031422
      10A     -0.939450    11A     -0.862435    12A     -0.749165
      13A     -0.671641    14A     -0.663110    15A     -0.643124
      16A     -0.588006    17A     -0.581209    18A     -0.554070
      19A     -0.531185    20A     -0.514421    21A     -0.497251
      22A     -0.466222    23A     -0.449608    24A     -0.393904
      25A     -0.389421

  @DF-RHF Final Energy:  -267.44407913767645

   => Energetics <=

    Nuclear Repulsion Energy =            264.8917842161387171
    One-Electron Energy =                -886.9309135831190360
    Two-Electron Energy =                 354.5950502293038653
    Total Energy =                       -267.4440791376764537
  Basis Set: (AUG-CC-PVTZ AUX)
    Blend: AUG-CC-PVTZ-RI
    Molecular point group: c1

    Geometry (in Angstrom), charge = 0, multiplicity = 1:

       Center              X                  Y                   Z               Mass
    ------------   -----------------  -----------------  -----------------  -----------------
         N            0.955214231925     1.588500598569    -0.266424809590    14.003074004430
         N           -2.042952768075    -0.578745401431     0.197096190410    14.003074004430
         C            0.088104231925     0.629130598569     0.432776190410    12.000000000000
         C            0.861969331925    -0.664692801431     0.694355990410    12.000000000000
         C           -1.142503768075     0.390575598569    -0.436878809590    12.000000000000
         C            1.355115231925    -1.384627401431    -0.543438809590    12.000000000000
         H           -0.277243768075     1.003812598569     1.403727190410     1.007825032230
         H            0.264917231925    -1.309371401431     1.333048190410     1.007825032230
         H            1.749378231925    -0.383521401431     1.324223190410     1.007825032230
         H           -1.688271768075     1.337825598569    -0.528556809590     1.007825032230
         H           -0.809816768075     0.118118598569    -1.449523809590     1.007825032230
         H            2.009061231925    -2.219903401431    -0.275531809590     1.007825032230
         H            0.517257231925    -1.796742401431    -1.114264809590     1.007825032230
         H            1.905181231925    -0.706435401431    -1.198464809590     1.007825032230
         H            1.754422231925     1.810792598569     0.327698190410     1.007825032230
         H            0.452423231925     2.467396598569    -0.394563809590     1.007825032230
         H           -1.668226768075    -1.518076401431     0.074139190410     1.007825032230
         H           -2.939552768075    -0.574350401431    -0.286749809590     1.007825032230

  Basis Set: AUG-CC-PVTZ
    Blend: AUG-CC-PVTZ
  Basis Set: (AUG-CC-PVTZ AUX)
    Blend: AUG-CC-PVTZ-JKFIT
	 Reference Energy          =    -267.4440791376764537 [Eh]
	 Singles Energy            =      -0.0000000000000000 [Eh]
	 Same-Spin Energy          =      -0.2838375733954326 [Eh]
	 Opposite-Spin Energy      =      -0.9911467025772703 [Eh]
	 Correlation Energy        =      -1.2749842759727030 [Eh]
	 Total Energy              =    -268.7190634136491667 [Eh]

	 ================> DF-SCS-MP2 Energies <==================
	-----------------------------------------------------------
	 SCS Same-Spin Scale       =       0.3333333333333333 [-]
	 SCS Opposite-Spin Scale   =       1.2000000000000000 [-]
	 SCS Same-Spin Energy      =      -0.0946125244651442 [Eh]
	 SCS Opposite-Spin Energy  =      -1.1893760430927243 [Eh]
	 SCS Correlation Energy    =      -1.2839885675578684 [Eh]
	 SCS Total Energy          =    -268.7280677052343094 [Eh]
	-----------------------------------------------------------

  Dipole Moment: [D]
     X:    -0.2296      Y:     0.2492      Z:    -0.1126     Total:     0.3571

*** Psi4 exiting successfully. Buy a developer a beer!
