                               Psi4 1.4a3.dev225

  ==> Input File <==

--------------------------------------------------------------------------
#psi4
#
memory 32 gb

molecule  {
0 1
  N        0.9404650     1.6044440    -0.2603840
  N       -2.0577020    -0.5628020     0.2031370
  C        0.0733550     0.6450740     0.4388170
  C        0.8146326    -0.6468182     0.7016551
  C       -1.1572530     0.4065190    -0.4308380
  C        1.3403660    -1.3686840    -0.5373980
  H       -0.2919930     1.0197560     1.4097680
  H        0.2501680    -1.2934280     1.3390890
  H        1.7346290    -0.3675780     1.3302640
  H       -1.7030210     1.3537690    -0.5225160
  H       -0.8245660     0.1340620    -1.4434830
  H        1.9943120    -2.2039600    -0.2694910
  H        0.5025080    -1.7807990    -1.1082240
  H        1.8904320    -0.6904920    -1.1924240
  H        1.7396730     1.8267360     0.3337390
  H        0.4376740     2.4833400    -0.3885230
  H       -1.6829760    -1.5021330     0.0801800
  H       -2.9543020    -0.5584070    -0.2807090
units angstrom
no_reorient  #important for SAPT in psi4, default
symmetry c1  #important for SAPT in psi4, default
}

set PROPERTIES_ORIGIN ["COM"]
properties('MP2/aug-cc-pvtz', properties = ['dipole'])
--------------------------------------------------------------------------

    Molecular point group: c1
  Charge       = 0
  Multiplicity = 1
  Basis Set: AUG-CC-PVTZ
    Blend: AUG-CC-PVTZ
  Basis Set: (AUG-CC-PVTZ AUX)
    Blend: AUG-CC-PVTZ-JKFIT

    Orbital Energies [Eh]
    ---------------------

    Doubly Occupied:

       1A    -15.541777     2A    -15.539148     3A    -11.245198
       4A    -11.241947     5A    -11.215961     6A    -11.206105
       7A     -1.197910     8A     -1.159462     9A     -1.031253
      10A     -0.939520    11A     -0.863817    12A     -0.749231
      13A     -0.671957    14A     -0.664725    15A     -0.643463
      16A     -0.585629    17A     -0.581650    18A     -0.554620
      19A     -0.530956    20A     -0.514844    21A     -0.497354
      22A     -0.467877    23A     -0.447427    24A     -0.394126
      25A     -0.389482

  @DF-RHF Final Energy:  -267.44175997046727

   => Energetics <=

    Nuclear Repulsion Energy =            265.0980550770921127
    One-Electron Energy =                -887.3287499429522995
    Two-Electron Energy =                 354.7889348953929129
    Total Energy =                       -267.4417599704672739
  Basis Set: (AUG-CC-PVTZ AUX)
    Blend: AUG-CC-PVTZ-RI
    Molecular point group: c1

    Geometry (in Angstrom), charge = 0, multiplicity = 1:

       Center              X                  Y                   Z               Mass
    ------------   -----------------  -----------------  -----------------  -----------------
         N            0.959652935503     1.588237552175    -0.266596201097    14.003074004430
         N           -2.038514064497    -0.579008447825     0.196924798903    14.003074004430
         C            0.092542935503     0.628867552175     0.432604798903    12.000000000000
         C            0.833820535503    -0.663024647825     0.695442898903    12.000000000000
         C           -1.138065064497     0.390312552175    -0.437050201097    12.000000000000
         C            1.359553935503    -1.384890447825    -0.543610201097    12.000000000000
         H           -0.272805064497     1.003549552175     1.403555798903     1.007825032230
         H            0.269355935503    -1.309634447825     1.332876798903     1.007825032230
         H            1.753816935503    -0.383784447825     1.324051798903     1.007825032230
         H           -1.683833064497     1.337562552175    -0.528728201097     1.007825032230
         H           -0.805378064497     0.117855552175    -1.449695201097     1.007825032230
         H            2.013499935503    -2.220166447825    -0.275703201097     1.007825032230
         H            0.521695935503    -1.797005447825    -1.114436201097     1.007825032230
         H            1.909619935503    -0.706698447825    -1.198636201097     1.007825032230
         H            1.758860935503     1.810529552175     0.327526798903     1.007825032230
         H            0.456861935503     2.467133552175    -0.394735201097     1.007825032230
         H           -1.663788064497    -1.518339447825     0.073967798903     1.007825032230
         H           -2.935114064497    -0.574613447825    -0.286921201097     1.007825032230

  Basis Set: AUG-CC-PVTZ
    Blend: AUG-CC-PVTZ
  Basis Set: (AUG-CC-PVTZ AUX)
    Blend: AUG-CC-PVTZ-JKFIT
	 Reference Energy          =    -267.4417599704672739 [Eh]
	 Singles Energy            =      -0.0000000000000000 [Eh]
	 Same-Spin Energy          =      -0.2839356552262400 [Eh]
	 Opposite-Spin Energy      =      -0.9913249605454753 [Eh]
	 Correlation Energy        =      -1.2752606157717152 [Eh]
	 Total Energy              =    -268.7170205862390162 [Eh]

	 ================> DF-SCS-MP2 Energies <==================
	-----------------------------------------------------------
	 SCS Same-Spin Scale       =       0.3333333333333333 [-]
	 SCS Opposite-Spin Scale   =       1.2000000000000000 [-]
	 SCS Same-Spin Energy      =      -0.0946452184087467 [Eh]
	 SCS Opposite-Spin Energy  =      -1.1895899526545703 [Eh]
	 SCS Correlation Energy    =      -1.2842351710633171 [Eh]
	 SCS Total Energy          =    -268.7259951415305750 [Eh]
	-----------------------------------------------------------

  Dipole Moment: [D]
     X:    -0.2441      Y:     0.2470      Z:    -0.1137     Total:     0.3654

*** Psi4 exiting successfully. Buy a developer a beer!
