                               Psi4 1.4a3.dev225

  ==> Input File <==

--------------------------------------------------------------------------
#psi4
#
memory 32 gb

molecule  {
0 1
  N        0.9404650     1.6044440    -0.2603840
  N       -2.0577020    -0.5628020     0.2031370
  C        0.0733550     0.6450740     0.4388170
  C        0.8648870    -0.6349690     0.7149280
  C       -1.3185756     0.3752464    -0.5448426
  C        1.3403660    -1.3686840    -0.5373980
  H       -0.2919930     1.0197560     1.4097680
  H        0.2501680    -1.2934280     1.3390890
  H        1.7346290    -0.3675780     1.3302640
  H       -1.7030210     1.3537690    -0.5225160
  H       -0.8245660     0.1340620    -1.4434830
  H        1.9943120    -2.2039600    -0.2694910
  H        0.5025080    -1.7807990    -1.1082240
  H        1.8904320    -0.6904920    -1.1924240
  H        1.7396730     1.8267360     0.3337390
  H        0.4376740     2.4833400    -0.3885230
  H       -1.6829760    -1.5021330     0.0801800
  H       -2.9543020    -0.5584070    -0.2807090
units angstrom
no_reorient  #important for SAPT in psi4, default
symmetry c1  #important for SAPT in psi4, default
}

set PROPERTIES_ORIGIN ["COM"]
properties('MP2/aug-cc-pvtz', properties = ['dipole'])
--------------------------------------------------------------------------

    Molecular point group: c1
  Charge       = 0
  Multiplicity = 1
  Basis Set: AUG-CC-PVTZ
    Blend: AUG-CC-PVTZ
  Basis Set: (AUG-CC-PVTZ AUX)
    Blend: AUG-CC-PVTZ-JKFIT

    Orbital Energies [Eh]
    ---------------------

    Doubly Occupied:

       1A    -15.546330     2A    -15.535198     3A    -11.246990
       4A    -11.241607     5A    -11.212460     6A    -11.204701
       7A     -1.202346     8A     -1.165535     9A     -1.025186
      10A     -0.917494    11A     -0.866105    12A     -0.749013
      13A     -0.681297    14A     -0.656851    15A     -0.637559
      16A     -0.593775    17A     -0.588900    18A     -0.559123
      19A     -0.550617    20A     -0.500502    21A     -0.490277
      22A     -0.465528    23A     -0.442540    24A     -0.392648
      25A     -0.364887

  @DF-RHF Final Energy:  -267.41419838421518

   => Energetics <=

    Nuclear Repulsion Energy =            262.6311657957014631
    One-Electron Energy =                -882.4157908299955579
    Two-Electron Energy =                 352.3704266500789117
    Total Energy =                       -267.4141983842151831
  Basis Set: (AUG-CC-PVTZ AUX)
    Blend: AUG-CC-PVTZ-RI
    Molecular point group: c1

    Geometry (in Angstrom), charge = 0, multiplicity = 1:

       Center              X                  Y                   Z               Mass
    ------------   -----------------  -----------------  -----------------  -----------------
         N            0.974781399383     1.590883189769    -0.252875659258    14.003074004430
         N           -2.023385600617    -0.576362810231     0.210645340742    14.003074004430
         C            0.107671399383     0.631513189769     0.446325340742    12.000000000000
         C            0.899203399383    -0.648529810231     0.722436340742    12.000000000000
         C           -1.284259200617     0.361685589769    -0.537334259258    12.000000000000
         C            1.374682399383    -1.382244810231    -0.529889659258    12.000000000000
         H           -0.257676600617     1.006195189769     1.417276340742     1.007825032230
         H            0.284484399383    -1.306988810231     1.346597340742     1.007825032230
         H            1.768945399383    -0.381138810231     1.337772340742     1.007825032230
         H           -1.668704600617     1.340208189769    -0.515007659258     1.007825032230
         H           -0.790249600617     0.120501189769    -1.435974659258     1.007825032230
         H            2.028628399383    -2.217520810231    -0.261982659258     1.007825032230
         H            0.536824399383    -1.794359810231    -1.100715659258     1.007825032230
         H            1.924748399383    -0.704052810231    -1.184915659258     1.007825032230
         H            1.773989399383     1.813175189769     0.341247340742     1.007825032230
         H            0.471990399383     2.469779189769    -0.381014659258     1.007825032230
         H           -1.648659600617    -1.515693810231     0.087688340742     1.007825032230
         H           -2.919985600617    -0.571967810231    -0.273200659258     1.007825032230

  Basis Set: AUG-CC-PVTZ
    Blend: AUG-CC-PVTZ
  Basis Set: (AUG-CC-PVTZ AUX)
    Blend: AUG-CC-PVTZ-JKFIT
	 Reference Energy          =    -267.4141983842151831 [Eh]
	 Singles Energy            =      -0.0000000000000000 [Eh]
	 Same-Spin Energy          =      -0.2845640378283436 [Eh]
	 Opposite-Spin Energy      =      -0.9931058479366909 [Eh]
	 Correlation Energy        =      -1.2776698857650346 [Eh]
	 Total Energy              =    -268.6918682699802048 [Eh]

	 ================> DF-SCS-MP2 Energies <==================
	-----------------------------------------------------------
	 SCS Same-Spin Scale       =       0.3333333333333333 [-]
	 SCS Opposite-Spin Scale   =       1.2000000000000000 [-]
	 SCS Same-Spin Energy      =      -0.0948546792761145 [Eh]
	 SCS Opposite-Spin Energy  =      -1.1917270175240291 [Eh]
	 SCS Correlation Energy    =      -1.2865816968001436 [Eh]
	 SCS Total Energy          =    -268.7007800810153526 [Eh]
	-----------------------------------------------------------

  Dipole Moment: [D]
     X:    -0.4062      Y:     0.1194      Z:    -0.0840     Total:     0.4316

*** Psi4 exiting successfully. Buy a developer a beer!
