                               Psi4 1.4a3.dev225

  ==> Input File <==

--------------------------------------------------------------------------
#psi4
#
memory 32 gb

molecule  {
0 1
  N        0.9404650     1.6044440    -0.2603840
  N       -2.0577020    -0.5628020     0.2031370
  C        0.0733550     0.6450740     0.4388170
  C        0.8648870    -0.6349690     0.7149280
  C       -1.1572530     0.4065190    -0.4308380
  C        1.3403660    -1.3686840    -0.5373980
  H       -0.2919930     1.0197560     1.4097680
  H        0.2501680    -1.2934280     1.3390890
  H        1.7346290    -0.3675780     1.3302640
  H       -1.6532730     1.2674249    -0.5141593
  H       -0.8245660     0.1340620    -1.4434830
  H        1.9943120    -2.2039600    -0.2694910
  H        0.5025080    -1.7807990    -1.1082240
  H        1.8904320    -0.6904920    -1.1924240
  H        1.7396730     1.8267360     0.3337390
  H        0.4376740     2.4833400    -0.3885230
  H       -1.6829760    -1.5021330     0.0801800
  H       -2.9543020    -0.5584070    -0.2807090
units angstrom
no_reorient  #important for SAPT in psi4, default
symmetry c1  #important for SAPT in psi4, default
}

set PROPERTIES_ORIGIN ["COM"]
properties('MP2/aug-cc-pvtz', properties = ['dipole'])
--------------------------------------------------------------------------

    Molecular point group: c1
  Charge       = 0
  Multiplicity = 1
  Basis Set: AUG-CC-PVTZ
    Blend: AUG-CC-PVTZ
  Basis Set: (AUG-CC-PVTZ AUX)
    Blend: AUG-CC-PVTZ-JKFIT

    Orbital Energies [Eh]
    ---------------------

    Doubly Occupied:

       1A    -15.540456     2A    -15.538431     3A    -11.244560
       4A    -11.229502     5A    -11.213578     6A    -11.205011
       7A     -1.197656     8A     -1.159085     9A     -1.028763
      10A     -0.943628    11A     -0.868026    12A     -0.753946
      13A     -0.675534    14A     -0.661916    15A     -0.642657
      16A     -0.589301    17A     -0.580770    18A     -0.553363
      19A     -0.539418    20A     -0.515322    21A     -0.491390
      22A     -0.467563    23A     -0.455957    24A     -0.393414
      25A     -0.388478

  @DF-RHF Final Energy:  -267.43933882825741

   => Energetics <=

    Nuclear Repulsion Energy =            265.2413737056297123
    One-Electron Energy =                -887.6059760877933513
    Two-Electron Energy =                 354.9252635539062339
    Total Energy =                       -267.4393388282574051
  Basis Set: (AUG-CC-PVTZ AUX)
    Blend: AUG-CC-PVTZ-RI
    Molecular point group: c1

    Geometry (in Angstrom), charge = 0, multiplicity = 1:

       Center              X                  Y                   Z               Mass
    ------------   -----------------  -----------------  -----------------  -----------------
         N            0.952238750249     1.587611324884    -0.268499683495    14.003074004430
         N           -2.045928249751    -0.579634675116     0.195021316505    14.003074004430
         C            0.085128750249     0.628241324884     0.430701316505    12.000000000000
         C            0.876660750249    -0.651801675116     0.706812316505    12.000000000000
         C           -1.145479249751     0.389686324884    -0.438953683495    12.000000000000
         C            1.352139750249    -1.385516675116    -0.545513683495    12.000000000000
         H           -0.280219249751     1.002923324884     1.401652316505     1.007825032230
         H            0.261941750249    -1.310260675116     1.330973316505     1.007825032230
         H            1.746402750249    -0.384410675116     1.322148316505     1.007825032230
         H           -1.641499249751     1.250592224884    -0.522274983495     1.007825032230
         H           -0.812792249751     0.117229324884    -1.451598683495     1.007825032230
         H            2.006085750249    -2.220792675116    -0.277606683495     1.007825032230
         H            0.514281750249    -1.797631675116    -1.116339683495     1.007825032230
         H            1.902205750249    -0.707324675116    -1.200539683495     1.007825032230
         H            1.751446750249     1.809903324884     0.325623316505     1.007825032230
         H            0.449447750249     2.466507324884    -0.396638683495     1.007825032230
         H           -1.671202249751    -1.518965675116     0.072064316505     1.007825032230
         H           -2.942528249751    -0.575239675116    -0.288824683495     1.007825032230

  Basis Set: AUG-CC-PVTZ
    Blend: AUG-CC-PVTZ
  Basis Set: (AUG-CC-PVTZ AUX)
    Blend: AUG-CC-PVTZ-JKFIT
	 Reference Energy          =    -267.4393388282574051 [Eh]
	 Singles Energy            =      -0.0000000000000000 [Eh]
	 Same-Spin Energy          =      -0.2836773847731010 [Eh]
	 Opposite-Spin Energy      =      -0.9904437831748277 [Eh]
	 Correlation Energy        =      -1.2741211679479287 [Eh]
	 Total Energy              =    -268.7134599962053585 [Eh]

	 ================> DF-SCS-MP2 Energies <==================
	-----------------------------------------------------------
	 SCS Same-Spin Scale       =       0.3333333333333333 [-]
	 SCS Opposite-Spin Scale   =       1.2000000000000000 [-]
	 SCS Same-Spin Energy      =      -0.0945591282577003 [Eh]
	 SCS Opposite-Spin Energy  =      -1.1885325398097932 [Eh]
	 SCS Correlation Energy    =      -1.2830916680674935 [Eh]
	 SCS Total Energy          =    -268.7224304963248755 [Eh]
	-----------------------------------------------------------

  Dipole Moment: [D]
     X:    -0.2547      Y:     0.3191      Z:    -0.1246     Total:     0.4269

*** Psi4 exiting successfully. Buy a developer a beer!
