                               Psi4 1.4a3.dev225

  ==> Input File <==

--------------------------------------------------------------------------
#psi4
#
memory 32 gb

molecule  {
0 1
  N        0.9404650     1.6044440    -0.2603840
  N       -2.0577020    -0.5628020     0.2031370
  C        0.0733550     0.6450740     0.4388170
  C        0.8648870    -0.6349690     0.7149280
  C       -1.2443112     0.4568985    -0.3068037
  C        1.3403660    -1.3686840    -0.5373980
  H       -0.2919930     1.0197560     1.4097680
  H        0.2501680    -1.2934280     1.3390890
  H        1.7346290    -0.3675780     1.3302640
  H       -1.7030210     1.3537690    -0.5225160
  H       -0.8245660     0.1340620    -1.4434830
  H        1.9943120    -2.2039600    -0.2694910
  H        0.5025080    -1.7807990    -1.1082240
  H        1.8904320    -0.6904920    -1.1924240
  H        1.7396730     1.8267360     0.3337390
  H        0.4376740     2.4833400    -0.3885230
  H       -1.6829760    -1.5021330     0.0801800
  H       -2.9543020    -0.5584070    -0.2807090
units angstrom
no_reorient  #important for SAPT in psi4, default
symmetry c1  #important for SAPT in psi4, default
}

set PROPERTIES_ORIGIN ["COM"]
properties('MP2/aug-cc-pvtz', properties = ['dipole'])
--------------------------------------------------------------------------

    Molecular point group: c1
  Charge       = 0
  Multiplicity = 1
  Basis Set: AUG-CC-PVTZ
    Blend: AUG-CC-PVTZ
  Basis Set: (AUG-CC-PVTZ AUX)
    Blend: AUG-CC-PVTZ-JKFIT

    Orbital Energies [Eh]
    ---------------------

    Doubly Occupied:

       1A    -15.543349     2A    -15.539846     3A    -11.249752
       4A    -11.246864     5A    -11.215829     6A    -11.204161
       7A     -1.207272     8A     -1.169064     9A     -1.029168
      10A     -0.940960    11A     -0.862298    12A     -0.753652
      13A     -0.679502    14A     -0.655673    15A     -0.653414
      16A     -0.594830    17A     -0.589779    18A     -0.552355
      19A     -0.531516    20A     -0.517506    21A     -0.490989
      22A     -0.467773    23A     -0.460789    24A     -0.390351
      25A     -0.362010

  @DF-RHF Final Energy:  -267.42169867849475

   => Energetics <=

    Nuclear Repulsion Energy =            264.7697171310543354
    One-Electron Energy =                -886.5654275182675974
    Two-Electron Energy =                 354.3740117087185126
    Total Energy =                       -267.4216986784947494
  Basis Set: (AUG-CC-PVTZ AUX)
    Blend: AUG-CC-PVTZ-RI
    Molecular point group: c1

    Geometry (in Angstrom), charge = 0, multiplicity = 1:

       Center              X                  Y                   Z               Mass
    ------------   -----------------  -----------------  -----------------  -----------------
         N            0.964665936154     1.579761456945    -0.285298647123    14.003074004430
         N           -2.033501063846    -0.587484543055     0.178222352877    14.003074004430
         C            0.097555936154     0.620391456945     0.413902352877    12.000000000000
         C            0.889087936154    -0.659651543055     0.690013352877    12.000000000000
         C           -1.220110263846     0.432215956945    -0.331718347123    12.000000000000
         C            1.364566936154    -1.393366543055    -0.562312647123    12.000000000000
         H           -0.267792063846     0.995073456945     1.384853352877     1.007825032230
         H            0.274368936154    -1.318110543055     1.314174352877     1.007825032230
         H            1.758829936154    -0.392260543055     1.305349352877     1.007825032230
         H           -1.678820063846     1.329086456945    -0.547430647123     1.007825032230
         H           -0.800365063846     0.109379456945    -1.468397647123     1.007825032230
         H            2.018512936154    -2.228642543055    -0.294405647123     1.007825032230
         H            0.526708936154    -1.805481543055    -1.133138647123     1.007825032230
         H            1.914632936154    -0.715174543055    -1.217338647123     1.007825032230
         H            1.763873936154     1.802053456945     0.308824352877     1.007825032230
         H            0.461874936154     2.458657456945    -0.413437647123     1.007825032230
         H           -1.658775063846    -1.526815543055     0.055265352877     1.007825032230
         H           -2.930101063846    -0.583089543055    -0.305623647123     1.007825032230

  Basis Set: AUG-CC-PVTZ
    Blend: AUG-CC-PVTZ
  Basis Set: (AUG-CC-PVTZ AUX)
    Blend: AUG-CC-PVTZ-JKFIT
	 Reference Energy          =    -267.4216986784947494 [Eh]
	 Singles Energy            =      -0.0000000000000000 [Eh]
	 Same-Spin Energy          =      -0.2842679836498128 [Eh]
	 Opposite-Spin Energy      =      -0.9914731800702148 [Eh]
	 Correlation Energy        =      -1.2757411637200275 [Eh]
	 Total Energy              =    -268.6974398422147488 [Eh]

	 ================> DF-SCS-MP2 Energies <==================
	-----------------------------------------------------------
	 SCS Same-Spin Scale       =       0.3333333333333333 [-]
	 SCS Opposite-Spin Scale   =       1.2000000000000000 [-]
	 SCS Same-Spin Energy      =      -0.0947559945499376 [Eh]
	 SCS Opposite-Spin Energy  =      -1.1897678160842577 [Eh]
	 SCS Correlation Energy    =      -1.2845238106341954 [Eh]
	 SCS Total Energy          =    -268.7062224891289475 [Eh]
	-----------------------------------------------------------

  Dipole Moment: [D]
     X:    -0.3888      Y:     0.2598      Z:     0.1202     Total:     0.4828

*** Psi4 exiting successfully. Buy a developer a beer!
