                               Psi4 1.4a3.dev225

  ==> Input File <==

--------------------------------------------------------------------------
#psi4
#
memory 32 gb

molecule  {
0 1
  N        0.8346960     1.6062576    -0.3721322
  N       -2.0577020    -0.5628020     0.2031370
  C        0.0733550     0.6450740     0.4388170
  C        0.8648870    -0.6349690     0.7149280
  C       -1.1572530     0.4065190    -0.4308380
  C        1.3403660    -1.3686840    -0.5373980
  H       -0.2919930     1.0197560     1.4097680
  H        0.2501680    -1.2934280     1.3390890
  H        1.7346290    -0.3675780     1.3302640
  H       -1.7030210     1.3537690    -0.5225160
  H       -0.8245660     0.1340620    -1.4434830
  H        1.9943120    -2.2039600    -0.2694910
  H        0.5025080    -1.7807990    -1.1082240
  H        1.8904320    -0.6904920    -1.1924240
  H        1.7396730     1.8267360     0.3337390
  H        0.4376740     2.4833400    -0.3885230
  H       -1.6829760    -1.5021330     0.0801800
  H       -2.9543020    -0.5584070    -0.2807090
units angstrom
no_reorient  #important for SAPT in psi4, default
symmetry c1  #important for SAPT in psi4, default
}

set PROPERTIES_ORIGIN ["COM"]
properties('MP2/aug-cc-pvtz', properties = ['dipole'])
--------------------------------------------------------------------------

    Molecular point group: c1
  Charge       = 0
  Multiplicity = 1
  Basis Set: AUG-CC-PVTZ
    Blend: AUG-CC-PVTZ
  Basis Set: (AUG-CC-PVTZ AUX)
    Blend: AUG-CC-PVTZ-JKFIT

    Orbital Energies [Eh]
    ---------------------

    Doubly Occupied:

       1A    -15.551056     2A    -15.538812     3A    -11.246952
       4A    -11.239191     5A    -11.217436     6A    -11.206918
       7A     -1.197882     8A     -1.156415     9A     -1.031574
      10A     -0.935788    11A     -0.864629    12A     -0.751851
      13A     -0.672440    14A     -0.670212    15A     -0.617224
      16A     -0.589643    17A     -0.573587    18A     -0.564646
      19A     -0.525499    20A     -0.501554    21A     -0.495085
      22A     -0.468377    23A     -0.450367    24A     -0.401914
      25A     -0.389773

  @DF-RHF Final Energy:  -267.42035800650825

   => Energetics <=

    Nuclear Repulsion Energy =            264.8666584786383282
    One-Electron Energy =                -886.8563817814692811
    Two-Electron Energy =                 354.5693652963227009
    Total Energy =                       -267.4203580065082519
  Basis Set: (AUG-CC-PVTZ AUX)
    Blend: AUG-CC-PVTZ-RI
    Molecular point group: c1

    Geometry (in Angstrom), charge = 0, multiplicity = 1:

       Center              X                  Y                   Z               Mass
    ------------   -----------------  -----------------  -----------------  -----------------
         N            0.863850312938     1.588148924219    -0.362390453964    14.003074004430
         N           -2.028547687062    -0.580910675781     0.212878746036    14.003074004430
         C            0.102509312938     0.626965324219     0.448558746036    12.000000000000
         C            0.894041312938    -0.653077675781     0.724669746036    12.000000000000
         C           -1.128098687062     0.388410324219    -0.421096253964    12.000000000000
         C            1.369520312938    -1.386792675781    -0.527656253964    12.000000000000
         H           -0.262838687062     1.001647324219     1.419509746036     1.007825032230
         H            0.279322312938    -1.311536675781     1.348830746036     1.007825032230
         H            1.763783312938    -0.385686675781     1.340005746036     1.007825032230
         H           -1.673866687062     1.335660324219    -0.512774253964     1.007825032230
         H           -0.795411687062     0.115953324219    -1.433741253964     1.007825032230
         H            2.023466312938    -2.222068675781    -0.259749253964     1.007825032230
         H            0.531662312938    -1.798907675781    -1.098482253964     1.007825032230
         H            1.919586312938    -0.708600675781    -1.182682253964     1.007825032230
         H            1.768827312938     1.808627324219     0.343480746036     1.007825032230
         H            0.466828312938     2.465231324219    -0.378781253964     1.007825032230
         H           -1.653821687062    -1.520241675781     0.089921746036     1.007825032230
         H           -2.925147687062    -0.576515675781    -0.270967253964     1.007825032230

  Basis Set: AUG-CC-PVTZ
    Blend: AUG-CC-PVTZ
  Basis Set: (AUG-CC-PVTZ AUX)
    Blend: AUG-CC-PVTZ-JKFIT
	 Reference Energy          =    -267.4203580065082519 [Eh]
	 Singles Energy            =      -0.0000000000000000 [Eh]
	 Same-Spin Energy          =      -0.2846736962094688 [Eh]
	 Opposite-Spin Energy      =      -0.9940574290371800 [Eh]
	 Correlation Energy        =      -1.2787311252466487 [Eh]
	 Total Energy              =    -268.6990891317548744 [Eh]

	 ================> DF-SCS-MP2 Energies <==================
	-----------------------------------------------------------
	 SCS Same-Spin Scale       =       0.3333333333333333 [-]
	 SCS Opposite-Spin Scale   =       1.2000000000000000 [-]
	 SCS Same-Spin Energy      =      -0.0948912320698229 [Eh]
	 SCS Opposite-Spin Energy  =      -1.1928689148446159 [Eh]
	 SCS Correlation Energy    =      -1.2877601469144389 [Eh]
	 SCS Total Energy          =    -268.7081181534226744 [Eh]
	-----------------------------------------------------------

  Dipole Moment: [D]
     X:    -0.1187      Y:     0.2347      Z:     0.0599     Total:     0.2697

*** Psi4 exiting successfully. Buy a developer a beer!
