                               Psi4 1.4a3.dev225

  ==> Input File <==

--------------------------------------------------------------------------
#psi4
#
memory 32 gb

molecule  {
0 1
  N        0.9404650     1.6044440    -0.2603840
  N       -2.0577020    -0.5628020     0.2031370
  C        0.0438632     0.6124443     0.4625980
  C        0.8648870    -0.6349690     0.7149280
  C       -1.1572530     0.4065190    -0.4308380
  C        1.3403660    -1.3686840    -0.5373980
  H       -0.2919930     1.0197560     1.4097680
  H        0.2501680    -1.2934280     1.3390890
  H        1.7346290    -0.3675780     1.3302640
  H       -1.7030210     1.3537690    -0.5225160
  H       -0.8245660     0.1340620    -1.4434830
  H        1.9943120    -2.2039600    -0.2694910
  H        0.5025080    -1.7807990    -1.1082240
  H        1.8904320    -0.6904920    -1.1924240
  H        1.7396730     1.8267360     0.3337390
  H        0.4376740     2.4833400    -0.3885230
  H       -1.6829760    -1.5021330     0.0801800
  H       -2.9543020    -0.5584070    -0.2807090
units angstrom
no_reorient  #important for SAPT in psi4, default
symmetry c1  #important for SAPT in psi4, default
}

set PROPERTIES_ORIGIN ["COM"]
properties('MP2/aug-cc-pvtz', properties = ['dipole'])
--------------------------------------------------------------------------

    Molecular point group: c1
  Charge       = 0
  Multiplicity = 1
  Basis Set: AUG-CC-PVTZ
    Blend: AUG-CC-PVTZ
  Basis Set: (AUG-CC-PVTZ AUX)
    Blend: AUG-CC-PVTZ-JKFIT

    Orbital Energies [Eh]
    ---------------------

    Doubly Occupied:

       1A    -15.541551     2A    -15.535771     3A    -11.245519
       4A    -11.242950     5A    -11.214811     6A    -11.206371
       7A     -1.192774     8A     -1.151769     9A     -1.030991
      10A     -0.941830    11A     -0.866239    12A     -0.750653
      13A     -0.674062    14A     -0.658866    15A     -0.637530
      16A     -0.591485    17A     -0.581721    18A     -0.550589
      19A     -0.530526    20A     -0.511532    21A     -0.491620
      22A     -0.466354    23A     -0.458196    24A     -0.394303
      25A     -0.391160

  @DF-RHF Final Energy:  -267.44256008737966

   => Energetics <=

    Nuclear Repulsion Energy =            264.6640191557674484
    One-Electron Energy =                -886.4948158604559012
    Two-Electron Energy =                 354.3882366173088485
    Total Energy =                       -267.4425600873796611
  Basis Set: (AUG-CC-PVTZ AUX)
    Blend: AUG-CC-PVTZ-RI
    Molecular point group: c1

    Geometry (in Angstrom), charge = 0, multiplicity = 1:

       Center              X                  Y                   Z               Mass
    ------------   -----------------  -----------------  -----------------  -----------------
         N            0.956824887113     1.591068038702    -0.271643267564    14.003074004430
         N           -2.041342112887    -0.576177961298     0.191877732436    14.003074004430
         C            0.060223087113     0.599068338702     0.451338732436    12.000000000000
         C            0.881246887113    -0.648344961298     0.703668732436    12.000000000000
         C           -1.140893112887     0.393143038702    -0.442097267564    12.000000000000
         C            1.356725887113    -1.382059961298    -0.548657267564    12.000000000000
         H           -0.275633112887     1.006380038702     1.398508732436     1.007825032230
         H            0.266527887113    -1.306803961298     1.327829732436     1.007825032230
         H            1.750988887113    -0.380953961298     1.319004732436     1.007825032230
         H           -1.686661112887     1.340393038702    -0.533775267564     1.007825032230
         H           -0.808206112887     0.120686038702    -1.454742267564     1.007825032230
         H            2.010671887113    -2.217335961298    -0.280750267564     1.007825032230
         H            0.518867887113    -1.794174961298    -1.119483267564     1.007825032230
         H            1.906791887113    -0.703867961298    -1.203683267564     1.007825032230
         H            1.756032887113     1.813360038702     0.322479732436     1.007825032230
         H            0.454033887113     2.469964038702    -0.399782267564     1.007825032230
         H           -1.666616112887    -1.515508961298     0.068920732436     1.007825032230
         H           -2.937942112887    -0.571782961298    -0.291968267564     1.007825032230

  Basis Set: AUG-CC-PVTZ
    Blend: AUG-CC-PVTZ
  Basis Set: (AUG-CC-PVTZ AUX)
    Blend: AUG-CC-PVTZ-JKFIT
	 Reference Energy          =    -267.4425600873796611 [Eh]
	 Singles Energy            =      -0.0000000000000000 [Eh]
	 Same-Spin Energy          =      -0.2837545563121601 [Eh]
	 Opposite-Spin Energy      =      -0.9913885495421761 [Eh]
	 Correlation Energy        =      -1.2751431058543363 [Eh]
	 Total Energy              =    -268.7177031932340014 [Eh]

	 ================> DF-SCS-MP2 Energies <==================
	-----------------------------------------------------------
	 SCS Same-Spin Scale       =       0.3333333333333333 [-]
	 SCS Opposite-Spin Scale   =       1.2000000000000000 [-]
	 SCS Same-Spin Energy      =      -0.0945848521040534 [Eh]
	 SCS Opposite-Spin Energy  =      -1.1896662594506113 [Eh]
	 SCS Correlation Energy    =      -1.2842511115546646 [Eh]
	 SCS Total Energy          =    -268.7268111989343424 [Eh]
	-----------------------------------------------------------

  Dipole Moment: [D]
     X:    -0.2975      Y:     0.1658      Z:    -0.0606     Total:     0.3459

*** Psi4 exiting successfully. Buy a developer a beer!
