                               Psi4 1.4a3.dev225

  ==> Input File <==

--------------------------------------------------------------------------
#psi4
#
memory 32 gb

molecule  {
0 1
  N        0.9404650     1.6044440    -0.2603840
  N       -2.0452039    -0.6461890     0.0747952
  C        0.0733550     0.6450740     0.4388170
  C        0.8648870    -0.6349690     0.7149280
  C       -1.1572530     0.4065190    -0.4308380
  C        1.3403660    -1.3686840    -0.5373980
  H       -0.2919930     1.0197560     1.4097680
  H        0.2501680    -1.2934280     1.3390890
  H        1.7346290    -0.3675780     1.3302640
  H       -1.7030210     1.3537690    -0.5225160
  H       -0.8245660     0.1340620    -1.4434830
  H        1.9943120    -2.2039600    -0.2694910
  H        0.5025080    -1.7807990    -1.1082240
  H        1.8904320    -0.6904920    -1.1924240
  H        1.7396730     1.8267360     0.3337390
  H        0.4376740     2.4833400    -0.3885230
  H       -1.6829760    -1.5021330     0.0801800
  H       -2.9543020    -0.5584070    -0.2807090
units angstrom
no_reorient  #important for SAPT in psi4, default
symmetry c1  #important for SAPT in psi4, default
}

set PROPERTIES_ORIGIN ["COM"]
properties('MP2/aug-cc-pvtz', properties = ['dipole'])
--------------------------------------------------------------------------

    Molecular point group: c1
  Charge       = 0
  Multiplicity = 1
  Basis Set: AUG-CC-PVTZ
    Blend: AUG-CC-PVTZ
  Basis Set: (AUG-CC-PVTZ AUX)
    Blend: AUG-CC-PVTZ-JKFIT

    Orbital Energies [Eh]
    ---------------------

    Doubly Occupied:

       1A    -15.539116     2A    -15.520952     3A    -11.246547
       4A    -11.242648     5A    -11.214841     6A    -11.204883
       7A     -1.198793     8A     -1.164919     9A     -1.030017
      10A     -0.943065    11A     -0.865098    12A     -0.753858
      13A     -0.696854    14A     -0.661192    15A     -0.643444
      16A     -0.601540    17A     -0.576853    18A     -0.551343
      19A     -0.543273    20A     -0.516796    21A     -0.491676
      22A     -0.469232    23A     -0.454703    24A     -0.391401
      25A     -0.372331

  @DF-RHF Final Energy:  -267.43824730635021

   => Energetics <=

    Nuclear Repulsion Energy =            265.0721048634394492
    One-Electron Energy =                -887.2299532516153704
    Two-Electron Energy =                 354.7196010818257150
    Total Energy =                       -267.4382473063502061
  Basis Set: (AUG-CC-PVTZ AUX)
    Blend: AUG-CC-PVTZ-RI
    Molecular point group: c1

    Geometry (in Angstrom), charge = 0, multiplicity = 1:

       Center              X                  Y                   Z               Mass
    ------------   -----------------  -----------------  -----------------  -----------------
         N            0.950821332872     1.599877545009    -0.248004781987    14.003074004430
         N           -2.034847567128    -0.650755454991     0.087174418013    14.003074004430
         C            0.083711332872     0.640507545009     0.451196218013    12.000000000000
         C            0.875243332872    -0.639535454991     0.727307218013    12.000000000000
         C           -1.146896667128     0.401952545009    -0.418458781987    12.000000000000
         C            1.350722332872    -1.373250454991    -0.525018781987    12.000000000000
         H           -0.281636667128     1.015189545009     1.422147218013     1.007825032230
         H            0.260524332872    -1.297994454991     1.351468218013     1.007825032230
         H            1.744985332872    -0.372144454991     1.342643218013     1.007825032230
         H           -1.692664667128     1.349202545009    -0.510136781987     1.007825032230
         H           -0.814209667128     0.129495545009    -1.431103781987     1.007825032230
         H            2.004668332872    -2.208526454991    -0.257111781987     1.007825032230
         H            0.512864332872    -1.785365454991    -1.095844781987     1.007825032230
         H            1.900788332872    -0.695058454991    -1.180044781987     1.007825032230
         H            1.750029332872     1.822169545009     0.346118218013     1.007825032230
         H            0.448030332872     2.478773545009    -0.376143781987     1.007825032230
         H           -1.672619667128    -1.506699454991     0.092559218013     1.007825032230
         H           -2.943945667128    -0.562973454991    -0.268329781987     1.007825032230

  Basis Set: AUG-CC-PVTZ
    Blend: AUG-CC-PVTZ
  Basis Set: (AUG-CC-PVTZ AUX)
    Blend: AUG-CC-PVTZ-JKFIT
	 Reference Energy          =    -267.4382473063502061 [Eh]
	 Singles Energy            =      -0.0000000000000000 [Eh]
	 Same-Spin Energy          =      -0.2830533142760706 [Eh]
	 Opposite-Spin Energy      =      -0.9886524722499380 [Eh]
	 Correlation Energy        =      -1.2717057865260086 [Eh]
	 Total Energy              =    -268.7099530928762192 [Eh]

	 ================> DF-SCS-MP2 Energies <==================
	-----------------------------------------------------------
	 SCS Same-Spin Scale       =       0.3333333333333333 [-]
	 SCS Opposite-Spin Scale   =       1.2000000000000000 [-]
	 SCS Same-Spin Energy      =      -0.0943511047586902 [Eh]
	 SCS Opposite-Spin Energy  =      -1.1863829666999255 [Eh]
	 SCS Correlation Energy    =      -1.2807340714586157 [Eh]
	 SCS Total Energy          =    -268.7189813778088023 [Eh]
	-----------------------------------------------------------

  Dipole Moment: [D]
     X:    -0.2639      Y:     0.4085      Z:     0.2034     Total:     0.5272

*** Psi4 exiting successfully. Buy a developer a beer!
