                               Psi4 1.4a3.dev225

  ==> Input File <==

--------------------------------------------------------------------------
#psi4
#
memory 32 gb

molecule  {
0 1
  N        0.9404650     1.6044440    -0.2603840
  N       -2.0504599    -0.6196323     0.1182622
  C        0.0733550     0.6450740     0.4388170
  C        0.8648870    -0.6349690     0.7149280
  C       -1.1572530     0.4065190    -0.4308380
  C        1.3403660    -1.3686840    -0.5373980
  H       -0.2919930     1.0197560     1.4097680
  H        0.2501680    -1.2934280     1.3390890
  H        1.7346290    -0.3675780     1.3302640
  H       -1.7030210     1.3537690    -0.5225160
  H       -0.8245660     0.1340620    -1.4434830
  H        1.9943120    -2.2039600    -0.2694910
  H        0.5025080    -1.7807990    -1.1082240
  H        1.8904320    -0.6904920    -1.1924240
  H        1.7396730     1.8267360     0.3337390
  H        0.4376740     2.4833400    -0.3885230
  H       -1.6829760    -1.5021330     0.0801800
  H       -2.9543020    -0.5584070    -0.2807090
units angstrom
no_reorient  #important for SAPT in psi4, default
symmetry c1  #important for SAPT in psi4, default
}

set PROPERTIES_ORIGIN ["COM"]
properties('MP2/aug-cc-pvtz', properties = ['dipole'])
--------------------------------------------------------------------------

    Molecular point group: c1
  Charge       = 0
  Multiplicity = 1
  Basis Set: AUG-CC-PVTZ
    Blend: AUG-CC-PVTZ
  Basis Set: (AUG-CC-PVTZ AUX)
    Blend: AUG-CC-PVTZ-JKFIT

    Orbital Energies [Eh]
    ---------------------

    Doubly Occupied:

       1A    -15.538853     2A    -15.527042     3A    -11.246155
       4A    -11.242570     5A    -11.214678     6A    -11.205151
       7A     -1.198132     8A     -1.163223     9A     -1.029843
      10A     -0.941791    11A     -0.864507    12A     -0.752330
      13A     -0.688279    14A     -0.661413    15A     -0.643707
      16A     -0.598143    17A     -0.578209    18A     -0.552165
      19A     -0.539601    20A     -0.516550    21A     -0.491717
      22A     -0.468936    23A     -0.454314    24A     -0.391268
      25A     -0.378399

  @DF-RHF Final Energy:  -267.44335183387363

   => Energetics <=

    Nuclear Repulsion Energy =            264.9621035274638530
    One-Electron Energy =                -887.0369622152596776
    Two-Electron Energy =                 354.6315068539221329
    Total Energy =                       -267.4433518338736349
  Basis Set: (AUG-CC-PVTZ AUX)
    Blend: AUG-CC-PVTZ-RI
    Molecular point group: c1

    Geometry (in Angstrom), charge = 0, multiplicity = 1:

       Center              X                  Y                   Z               Mass
    ------------   -----------------  -----------------  -----------------  -----------------
         N            0.951656748497     1.595656486767    -0.254913650130    14.003074004430
         N           -2.039268151503    -0.628419813233     0.123732549870    14.003074004430
         C            0.084546748497     0.636286486767     0.444287349870    12.000000000000
         C            0.876078748497    -0.643756513233     0.720398349870    12.000000000000
         C           -1.146061251503     0.397731486767    -0.425367650130    12.000000000000
         C            1.351557748497    -1.377471513233    -0.531927650130    12.000000000000
         H           -0.280801251503     1.010968486767     1.415238349870     1.007825032230
         H            0.261359748497    -1.302215513233     1.344559349870     1.007825032230
         H            1.745820748497    -0.376365513233     1.335734349870     1.007825032230
         H           -1.691829251503     1.344981486767    -0.517045650130     1.007825032230
         H           -0.813374251503     0.125274486767    -1.438012650130     1.007825032230
         H            2.005503748497    -2.212747513233    -0.264020650130     1.007825032230
         H            0.513699748497    -1.789586513233    -1.102753650130     1.007825032230
         H            1.901623748497    -0.699279513233    -1.186953650130     1.007825032230
         H            1.750864748497     1.817948486767     0.339209349870     1.007825032230
         H            0.448865748497     2.474552486767    -0.383052650130     1.007825032230
         H           -1.671784251503    -1.510920513233     0.085650349870     1.007825032230
         H           -2.943110251503    -0.567194513233    -0.275238650130     1.007825032230

  Basis Set: AUG-CC-PVTZ
    Blend: AUG-CC-PVTZ
  Basis Set: (AUG-CC-PVTZ AUX)
    Blend: AUG-CC-PVTZ-JKFIT
	 Reference Energy          =    -267.4433518338736349 [Eh]
	 Singles Energy            =      -0.0000000000000000 [Eh]
	 Same-Spin Energy          =      -0.2831674744911880 [Eh]
	 Opposite-Spin Energy      =      -0.9891778567181087 [Eh]
	 Correlation Energy        =      -1.2723453312092965 [Eh]
	 Total Energy              =    -268.7156971650829291 [Eh]

	 ================> DF-SCS-MP2 Energies <==================
	-----------------------------------------------------------
	 SCS Same-Spin Scale       =       0.3333333333333333 [-]
	 SCS Opposite-Spin Scale   =       1.2000000000000000 [-]
	 SCS Same-Spin Energy      =      -0.0943891581637293 [Eh]
	 SCS Opposite-Spin Energy  =      -1.1870134280617304 [Eh]
	 SCS Correlation Energy    =      -1.2814025862254597 [Eh]
	 SCS Total Energy          =    -268.7247544200990887 [Eh]
	-----------------------------------------------------------

  Dipole Moment: [D]
     X:    -0.2481      Y:     0.3532      Z:     0.0861     Total:     0.4401

*** Psi4 exiting successfully. Buy a developer a beer!
