                               Psi4 1.4a3.dev225

  ==> Input File <==

--------------------------------------------------------------------------
#psi4
#
memory 32 gb

molecule  {
0 1
  N        0.9404650     1.6044440    -0.2603840
  N       -2.0577020    -0.5628020     0.2031370
  C        0.0733550     0.6450740     0.4388170
  C        0.8648870    -0.6349690     0.7149280
  C       -1.1695284     0.3933047    -0.4221953
  C        1.3403660    -1.3686840    -0.5373980
  H       -0.2919930     1.0197560     1.4097680
  H        0.2501680    -1.2934280     1.3390890
  H        1.7346290    -0.3675780     1.3302640
  H       -1.7030210     1.3537690    -0.5225160
  H       -0.8245660     0.1340620    -1.4434830
  H        1.9943120    -2.2039600    -0.2694910
  H        0.5025080    -1.7807990    -1.1082240
  H        1.8904320    -0.6904920    -1.1924240
  H        1.7396730     1.8267360     0.3337390
  H        0.4376740     2.4833400    -0.3885230
  H       -1.6829760    -1.5021330     0.0801800
  H       -2.9543020    -0.5584070    -0.2807090
units angstrom
no_reorient  #important for SAPT in psi4, default
symmetry c1  #important for SAPT in psi4, default
}

set PROPERTIES_ORIGIN ["COM"]
properties('MP2/aug-cc-pvtz', properties = ['dipole'])
--------------------------------------------------------------------------

    Molecular point group: c1
  Charge       = 0
  Multiplicity = 1
  Basis Set: AUG-CC-PVTZ
    Blend: AUG-CC-PVTZ
  Basis Set: (AUG-CC-PVTZ AUX)
    Blend: AUG-CC-PVTZ-JKFIT

    Orbital Energies [Eh]
    ---------------------

    Doubly Occupied:

       1A    -15.542186     2A    -15.538386     3A    -11.245358
       4A    -11.242983     5A    -11.214057     6A    -11.205381
       7A     -1.198881     8A     -1.162679     9A     -1.029237
      10A     -0.937099    11A     -0.862196    12A     -0.749267
      13A     -0.673033    14A     -0.661944    15A     -0.644734
      16A     -0.589948    17A     -0.582067    18A     -0.552924
      19A     -0.532516    20A     -0.514232    21A     -0.491636
      22A     -0.468486    23A     -0.450999    24A     -0.393833
      25A     -0.387247

  @DF-RHF Final Energy:  -267.44463129645169

   => Energetics <=

    Nuclear Repulsion Energy =            264.7833756373962046
    One-Electron Energy =                -886.7133930934301134
    Two-Electron Energy =                 354.4853861595822764
    Total Energy =                       -267.4446312964516892
  Basis Set: (AUG-CC-PVTZ AUX)
    Blend: AUG-CC-PVTZ-RI
    Molecular point group: c1

    Geometry (in Angstrom), charge = 0, multiplicity = 1:

       Center              X                  Y                   Z               Mass
    ------------   -----------------  -----------------  -----------------  -----------------
         N            0.954479862295     1.588423490779    -0.269581298208    14.003074004430
         N           -2.043687137705    -0.578822509221     0.193939701792    14.003074004430
         C            0.087369862295     0.629053490779     0.429619701792    12.000000000000
         C            0.878901862295    -0.650989509221     0.705730701792    12.000000000000
         C           -1.155513537705     0.377284190779    -0.431392598208    12.000000000000
         C            1.354380862295    -1.384704509221    -0.546595298208    12.000000000000
         H           -0.277978137705     1.003735490779     1.400570701792     1.007825032230
         H            0.264182862295    -1.309448509221     1.329891701792     1.007825032230
         H            1.748643862295    -0.383598509221     1.321066701792     1.007825032230
         H           -1.689006137705     1.337748490779    -0.531713298208     1.007825032230
         H           -0.810551137705     0.118041490779    -1.452680298208     1.007825032230
         H            2.008326862295    -2.219980509221    -0.278688298208     1.007825032230
         H            0.516522862295    -1.796819509221    -1.117421298208     1.007825032230
         H            1.904446862295    -0.706512509221    -1.201621298208     1.007825032230
         H            1.753687862295     1.810715490779     0.324541701792     1.007825032230
         H            0.451688862295     2.467319490779    -0.397720298208     1.007825032230
         H           -1.668961137705    -1.518153509221     0.070982701792     1.007825032230
         H           -2.940287137705    -0.574427509221    -0.289906298208     1.007825032230

  Basis Set: AUG-CC-PVTZ
    Blend: AUG-CC-PVTZ
  Basis Set: (AUG-CC-PVTZ AUX)
    Blend: AUG-CC-PVTZ-JKFIT
	 Reference Energy          =    -267.4446312964516892 [Eh]
	 Singles Energy            =      -0.0000000000000000 [Eh]
	 Same-Spin Energy          =      -0.2837753046749504 [Eh]
	 Opposite-Spin Energy      =      -0.9909328651291238 [Eh]
	 Correlation Energy        =      -1.2747081698040743 [Eh]
	 Total Energy              =    -268.7193394662557466 [Eh]

	 ================> DF-SCS-MP2 Energies <==================
	-----------------------------------------------------------
	 SCS Same-Spin Scale       =       0.3333333333333333 [-]
	 SCS Opposite-Spin Scale   =       1.2000000000000000 [-]
	 SCS Same-Spin Energy      =      -0.0945917682249835 [Eh]
	 SCS Opposite-Spin Energy  =      -1.1891194381549486 [Eh]
	 SCS Correlation Energy    =      -1.2837112063799321 [Eh]
	 SCS Total Energy          =    -268.7283425028315946 [Eh]
	-----------------------------------------------------------

  Dipole Moment: [D]
     X:    -0.2605      Y:     0.2299      Z:    -0.0858     Total:     0.3579

*** Psi4 exiting successfully. Buy a developer a beer!
