                               Psi4 1.4a3.dev225

  ==> Input File <==

--------------------------------------------------------------------------
#psi4
#
memory 32 gb

molecule  {
0 1
  N        0.9404650     1.6044440    -0.2603840
  N       -2.0577020    -0.5628020     0.2031370
  C        0.0733550     0.6450740     0.4388170
  C        0.8648870    -0.6349690     0.7149280
  C       -1.1414045     0.3983620    -0.4506193
  C        1.3403660    -1.3686840    -0.5373980
  H       -0.2919930     1.0197560     1.4097680
  H        0.2501680    -1.2934280     1.3390890
  H        1.7346290    -0.3675780     1.3302640
  H       -1.7030210     1.3537690    -0.5225160
  H       -0.8245660     0.1340620    -1.4434830
  H        1.9943120    -2.2039600    -0.2694910
  H        0.5025080    -1.7807990    -1.1082240
  H        1.8904320    -0.6904920    -1.1924240
  H        1.7396730     1.8267360     0.3337390
  H        0.4376740     2.4833400    -0.3885230
  H       -1.6829760    -1.5021330     0.0801800
  H       -2.9543020    -0.5584070    -0.2807090
units angstrom
no_reorient  #important for SAPT in psi4, default
symmetry c1  #important for SAPT in psi4, default
}

set PROPERTIES_ORIGIN ["COM"]
properties('MP2/aug-cc-pvtz', properties = ['dipole'])
--------------------------------------------------------------------------

    Molecular point group: c1
  Charge       = 0
  Multiplicity = 1
  Basis Set: AUG-CC-PVTZ
    Blend: AUG-CC-PVTZ
  Basis Set: (AUG-CC-PVTZ AUX)
    Blend: AUG-CC-PVTZ-JKFIT

    Orbital Energies [Eh]
    ---------------------

    Doubly Occupied:

       1A    -15.541630     2A    -15.538133     3A    -11.245587
       4A    -11.242106     5A    -11.214232     6A    -11.205853
       7A     -1.195813     8A     -1.157049     9A     -1.029533
      10A     -0.938773    11A     -0.864020    12A     -0.750466
      13A     -0.670581    14A     -0.663205    15A     -0.641822
      16A     -0.589551    17A     -0.581111    18A     -0.554777
      19A     -0.526947    20A     -0.514253    21A     -0.491995
      22A     -0.468378    23A     -0.451437    24A     -0.396355
      25A     -0.390214

  @DF-RHF Final Energy:  -267.44411137505517

   => Energetics <=

    Nuclear Repulsion Energy =            264.7161265410919100
    One-Electron Energy =                -886.5928315637117976
    Two-Electron Energy =                 354.4325936475647723
    Total Energy =                       -267.4441113750551722
  Basis Set: (AUG-CC-PVTZ AUX)
    Blend: AUG-CC-PVTZ-RI
    Molecular point group: c1

    Geometry (in Angstrom), charge = 0, multiplicity = 1:

       Center              X                  Y                   Z               Mass
    ------------   -----------------  -----------------  -----------------  -----------------
         N            0.950649140222     1.587734642122    -0.265709699881    14.003074004430
         N           -2.047517859778    -0.579511357878     0.197811300119    14.003074004430
         C            0.083539140222     0.628364642122     0.433491300119    12.000000000000
         C            0.875071140222    -0.651678357878     0.709602300119    12.000000000000
         C           -1.131220359778     0.381652642122    -0.455944999881    12.000000000000
         C            1.350550140222    -1.385393357878    -0.542723699881    12.000000000000
         H           -0.281808859778     1.003046642122     1.404442300119     1.007825032230
         H            0.260352140222    -1.310137357878     1.333763300119     1.007825032230
         H            1.744813140222    -0.384287357878     1.324938300119     1.007825032230
         H           -1.692836859778     1.337059642122    -0.527841699881     1.007825032230
         H           -0.814381859778     0.117352642122    -1.448808699881     1.007825032230
         H            2.004496140222    -2.220669357878    -0.274816699881     1.007825032230
         H            0.512692140222    -1.797508357878    -1.113549699881     1.007825032230
         H            1.900616140222    -0.707201357878    -1.197749699881     1.007825032230
         H            1.749857140222     1.810026642122     0.328413300119     1.007825032230
         H            0.447858140222     2.466630642122    -0.393848699881     1.007825032230
         H           -1.672791859778    -1.518842357878     0.074854300119     1.007825032230
         H           -2.944117859778    -0.575116357878    -0.286034699881     1.007825032230

  Basis Set: AUG-CC-PVTZ
    Blend: AUG-CC-PVTZ
  Basis Set: (AUG-CC-PVTZ AUX)
    Blend: AUG-CC-PVTZ-JKFIT
	 Reference Energy          =    -267.4441113750551722 [Eh]
	 Singles Energy            =      -0.0000000000000000 [Eh]
	 Same-Spin Energy          =      -0.2837141855413541 [Eh]
	 Opposite-Spin Energy      =      -0.9911814652840276 [Eh]
	 Correlation Energy        =      -1.2748956508253817 [Eh]
	 Total Energy              =    -268.7190070258805576 [Eh]

	 ================> DF-SCS-MP2 Energies <==================
	-----------------------------------------------------------
	 SCS Same-Spin Scale       =       0.3333333333333333 [-]
	 SCS Opposite-Spin Scale   =       1.2000000000000000 [-]
	 SCS Same-Spin Energy      =      -0.0945713951804514 [Eh]
	 SCS Opposite-Spin Energy  =      -1.1894177583408332 [Eh]
	 SCS Correlation Energy    =      -1.2839891535212846 [Eh]
	 SCS Total Energy          =    -268.7281005285764763 [Eh]
	-----------------------------------------------------------

  Dipole Moment: [D]
     X:    -0.1977      Y:     0.2532      Z:    -0.1252     Total:     0.3448

*** Psi4 exiting successfully. Buy a developer a beer!
