                               Psi4 1.4a3.dev225

  ==> Input File <==

--------------------------------------------------------------------------
#psi4
#
memory 32 gb

molecule  {
0 1
  N        0.9404650     1.6044440    -0.2603840
  N       -2.0577020    -0.5628020     0.2031370
  C        0.0733550     0.6450740     0.4388170
  C        0.8648870    -0.6349690     0.7149280
  C       -1.2379143     0.3908827    -0.4878403
  C        1.3403660    -1.3686840    -0.5373980
  H       -0.2919930     1.0197560     1.4097680
  H        0.2501680    -1.2934280     1.3390890
  H        1.7346290    -0.3675780     1.3302640
  H       -1.7030210     1.3537690    -0.5225160
  H       -0.8245660     0.1340620    -1.4434830
  H        1.9943120    -2.2039600    -0.2694910
  H        0.5025080    -1.7807990    -1.1082240
  H        1.8904320    -0.6904920    -1.1924240
  H        1.7396730     1.8267360     0.3337390
  H        0.4376740     2.4833400    -0.3885230
  H       -1.6829760    -1.5021330     0.0801800
  H       -2.9543020    -0.5584070    -0.2807090
units angstrom
no_reorient  #important for SAPT in psi4, default
symmetry c1  #important for SAPT in psi4, default
}

set PROPERTIES_ORIGIN ["COM"]
properties('MP2/aug-cc-pvtz', properties = ['dipole'])
--------------------------------------------------------------------------

    Molecular point group: c1
  Charge       = 0
  Multiplicity = 1
  Basis Set: AUG-CC-PVTZ
    Blend: AUG-CC-PVTZ
  Basis Set: (AUG-CC-PVTZ AUX)
    Blend: AUG-CC-PVTZ-JKFIT

    Orbital Energies [Eh]
    ---------------------

    Doubly Occupied:

       1A    -15.543594     2A    -15.536603     3A    -11.246703
       4A    -11.240517     5A    -11.213207     6A    -11.205091
       7A     -1.197181     8A     -1.164076     9A     -1.026934
      10A     -0.926583    11A     -0.864704    12A     -0.749684
      13A     -0.675767    14A     -0.659314    15A     -0.640064
      16A     -0.589211    17A     -0.587711    18A     -0.554341
      19A     -0.543184    20A     -0.505861    21A     -0.491079
      22A     -0.466120    23A     -0.446558    24A     -0.394550
      25A     -0.381206

  @DF-RHF Final Energy:  -267.43667447959035

   => Energetics <=

    Nuclear Repulsion Energy =            263.6684337943017908
    One-Electron Energy =                -884.5105308496592897
    Two-Electron Energy =                 353.4054225757671475
    Total Energy =                       -267.4366744795903514
  Basis Set: (AUG-CC-PVTZ AUX)
    Blend: AUG-CC-PVTZ-RI
    Molecular point group: c1

    Geometry (in Angstrom), charge = 0, multiplicity = 1:

       Center              X                  Y                   Z               Mass
    ------------   -----------------  -----------------  -----------------  -----------------
         N            0.963794622218     1.588753388441    -0.260639872927    14.003074004430
         N           -2.034372377782    -0.578492611559     0.202881127073    14.003074004430
         C            0.096684622218     0.629383388441     0.438561127073    12.000000000000
         C            0.888216622218    -0.650659611559     0.714672127073    12.000000000000
         C           -1.214584677782     0.375192088441    -0.488096172927    12.000000000000
         C            1.363695622218    -1.384374611559    -0.537653872927    12.000000000000
         H           -0.268663377782     1.004065388441     1.409512127073     1.007825032230
         H            0.273497622218    -1.309118611559     1.338833127073     1.007825032230
         H            1.757958622218    -0.383268611559     1.330008127073     1.007825032230
         H           -1.679691377782     1.338078388441    -0.522771872927     1.007825032230
         H           -0.801236377782     0.118371388441    -1.443738872927     1.007825032230
         H            2.017641622218    -2.219650611559    -0.269746872927     1.007825032230
         H            0.525837622218    -1.796489611559    -1.108479872927     1.007825032230
         H            1.913761622218    -0.706182611559    -1.192679872927     1.007825032230
         H            1.763002622218     1.811045388441     0.333483127073     1.007825032230
         H            0.461003622218     2.467649388441    -0.388778872927     1.007825032230
         H           -1.659646377782    -1.517823611559     0.079924127073     1.007825032230
         H           -2.930972377782    -0.574097611559    -0.280964872927     1.007825032230

  Basis Set: AUG-CC-PVTZ
    Blend: AUG-CC-PVTZ
  Basis Set: (AUG-CC-PVTZ AUX)
    Blend: AUG-CC-PVTZ-JKFIT
	 Reference Energy          =    -267.4366744795903514 [Eh]
	 Singles Energy            =      -0.0000000000000000 [Eh]
	 Same-Spin Energy          =      -0.2837350224912256 [Eh]
	 Opposite-Spin Energy      =      -0.9912957137709841 [Eh]
	 Correlation Energy        =      -1.2750307362622098 [Eh]
	 Total Energy              =    -268.7117052158525894 [Eh]

	 ================> DF-SCS-MP2 Energies <==================
	-----------------------------------------------------------
	 SCS Same-Spin Scale       =       0.3333333333333333 [-]
	 SCS Opposite-Spin Scale   =       1.2000000000000000 [-]
	 SCS Same-Spin Energy      =      -0.0945783408304085 [Eh]
	 SCS Opposite-Spin Energy  =      -1.1895548565251810 [Eh]
	 SCS Correlation Energy    =      -1.2841331973555896 [Eh]
	 SCS Total Energy          =    -268.7208076769459240 [Eh]
	-----------------------------------------------------------

  Dipole Moment: [D]
     X:    -0.3288      Y:     0.1908      Z:    -0.1034     Total:     0.3939

*** Psi4 exiting successfully. Buy a developer a beer!
