                               Psi4 1.4a3.dev225

  ==> Input File <==

--------------------------------------------------------------------------
#psi4
#
memory 32 gb

molecule  {
0 1
  N        0.9404650     1.6044440    -0.2603840
  N       -2.0577020    -0.5628020     0.2031370
  C        0.0733550     0.6450740     0.4388170
  C        0.8648870    -0.6349690     0.7149280
  C       -1.1572530     0.4065190    -0.4308380
  C        1.3403660    -1.3686840    -0.5373980
  H       -0.2919930     1.0197560     1.4097680
  H        0.1774119    -1.2993894     1.2506035
  H        1.7346290    -0.3675780     1.3302640
  H       -1.7030210     1.3537690    -0.5225160
  H       -0.8245660     0.1340620    -1.4434830
  H        1.9943120    -2.2039600    -0.2694910
  H        0.5025080    -1.7807990    -1.1082240
  H        1.8904320    -0.6904920    -1.1924240
  H        1.7396730     1.8267360     0.3337390
  H        0.4376740     2.4833400    -0.3885230
  H       -1.6829760    -1.5021330     0.0801800
  H       -2.9543020    -0.5584070    -0.2807090
units angstrom
no_reorient  #important for SAPT in psi4, default
symmetry c1  #important for SAPT in psi4, default
}

set PROPERTIES_ORIGIN ["COM"]
properties('MP2/aug-cc-pvtz', properties = ['dipole'])
--------------------------------------------------------------------------

    Molecular point group: c1
  Charge       = 0
  Multiplicity = 1
  Basis Set: AUG-CC-PVTZ
    Blend: AUG-CC-PVTZ
  Basis Set: (AUG-CC-PVTZ AUX)
    Blend: AUG-CC-PVTZ-JKFIT

    Orbital Energies [Eh]
    ---------------------

    Doubly Occupied:

       1A    -15.542256     2A    -15.538097     3A    -11.244918
       4A    -11.242812     5A    -11.214377     6A    -11.204808
       7A     -1.197239     8A     -1.159566     9A     -1.030063
      10A     -0.938867    11A     -0.862650    12A     -0.748036
      13A     -0.673750    14A     -0.662358    15A     -0.643053
      16A     -0.593604    17A     -0.579572    18A     -0.553887
      19A     -0.531528    20A     -0.515134    21A     -0.487766
      22A     -0.472200    23A     -0.450124    24A     -0.394451
      25A     -0.388729

  @DF-RHF Final Energy:  -267.44353880326207

   => Energetics <=

    Nuclear Repulsion Energy =            264.8936373044788297
    One-Electron Energy =                -886.9346656531525923
    Two-Electron Energy =                 354.5974895454116904
    Total Energy =                       -267.4435388032620722
  Basis Set: (AUG-CC-PVTZ AUX)
    Blend: AUG-CC-PVTZ-RI
    Molecular point group: c1

    Geometry (in Angstrom), charge = 0, multiplicity = 1:

       Center              X                  Y                   Z               Mass
    ------------   -----------------  -----------------  -----------------  -----------------
         N            0.953640142198     1.586691782856    -0.267391852171    14.003074004430
         N           -2.044526857802    -0.580554217144     0.196129147829    14.003074004430
         C            0.086530142198     0.627321782856     0.431809147829    12.000000000000
         C            0.878062142198    -0.652721217144     0.707920147829    12.000000000000
         C           -1.144077857802     0.388766782856    -0.437845852171    12.000000000000
         C            1.353541142198    -1.386436217144    -0.544405852171    12.000000000000
         H           -0.278817857802     1.002003782856     1.402760147829     1.007825032230
         H            0.190587042198    -1.317141617144     1.243595647829     1.007825032230
         H            1.747804142198    -0.385330217144     1.323256147829     1.007825032230
         H           -1.689845857802     1.336016782856    -0.529523852171     1.007825032230
         H           -0.811390857802     0.116309782856    -1.450490852171     1.007825032230
         H            2.007487142198    -2.221712217144    -0.276498852171     1.007825032230
         H            0.515683142198    -1.798551217144    -1.115231852171     1.007825032230
         H            1.903607142198    -0.708244217144    -1.199431852171     1.007825032230
         H            1.752848142198     1.808983782856     0.326731147829     1.007825032230
         H            0.450849142198     2.465587782856    -0.395530852171     1.007825032230
         H           -1.669800857802    -1.519885217144     0.073172147829     1.007825032230
         H           -2.941126857802    -0.576159217144    -0.287716852171     1.007825032230

  Basis Set: AUG-CC-PVTZ
    Blend: AUG-CC-PVTZ
  Basis Set: (AUG-CC-PVTZ AUX)
    Blend: AUG-CC-PVTZ-JKFIT
	 Reference Energy          =    -267.4435388032620722 [Eh]
	 Singles Energy            =      -0.0000000000000000 [Eh]
	 Same-Spin Energy          =      -0.2838442038717562 [Eh]
	 Opposite-Spin Energy      =      -0.9912541802370868 [Eh]
	 Correlation Energy        =      -1.2750983841088430 [Eh]
	 Total Energy              =    -268.7186371873709163 [Eh]

	 ================> DF-SCS-MP2 Energies <==================
	-----------------------------------------------------------
	 SCS Same-Spin Scale       =       0.3333333333333333 [-]
	 SCS Opposite-Spin Scale   =       1.2000000000000000 [-]
	 SCS Same-Spin Energy      =      -0.0946147346239187 [Eh]
	 SCS Opposite-Spin Energy  =      -1.1895050162845040 [Eh]
	 SCS Correlation Energy    =      -1.2841197509084228 [Eh]
	 SCS Total Energy          =    -268.7276585541704890 [Eh]
	-----------------------------------------------------------

  Dipole Moment: [D]
     X:    -0.2544      Y:     0.2691      Z:    -0.1305     Total:     0.3927

*** Psi4 exiting successfully. Buy a developer a beer!
