                               Psi4 1.4a3.dev225

  ==> Input File <==

--------------------------------------------------------------------------
#psi4
#
memory 32 gb

molecule  {
0 1
  N        0.9404650     1.6044440    -0.2603840
  N       -2.0577020    -0.5628020     0.2031370
  C        0.0733550     0.6450740     0.4388170
  C        0.8648870    -0.6349690     0.7149280
  C       -1.1572530     0.4065190    -0.4308380
  C        1.3403660    -1.3686840    -0.5373980
  H       -0.2919930     1.0197560     1.4097680
  H        0.2501680    -1.2934280     1.3390890
  H        1.7346290    -0.3675780     1.3302640
  H       -1.7129706     1.3710378    -0.5241873
  H       -0.8245660     0.1340620    -1.4434830
  H        1.9943120    -2.2039600    -0.2694910
  H        0.5025080    -1.7807990    -1.1082240
  H        1.8904320    -0.6904920    -1.1924240
  H        1.7396730     1.8267360     0.3337390
  H        0.4376740     2.4833400    -0.3885230
  H       -1.6829760    -1.5021330     0.0801800
  H       -2.9543020    -0.5584070    -0.2807090
units angstrom
no_reorient  #important for SAPT in psi4, default
symmetry c1  #important for SAPT in psi4, default
}

set PROPERTIES_ORIGIN ["COM"]
properties('MP2/aug-cc-pvtz', properties = ['dipole'])
--------------------------------------------------------------------------

    Molecular point group: c1
  Charge       = 0
  Multiplicity = 1
  Basis Set: AUG-CC-PVTZ
    Blend: AUG-CC-PVTZ
  Basis Set: (AUG-CC-PVTZ AUX)
    Blend: AUG-CC-PVTZ-JKFIT

    Orbital Energies [Eh]
    ---------------------

    Doubly Occupied:

       1A    -15.541835     2A    -15.538296     3A    -11.245724
       4A    -11.244932     5A    -11.214555     6A    -11.205733
       7A     -1.196788     8A     -1.159260     9A     -1.029540
      10A     -0.938010    11A     -0.862495    12A     -0.749343
      13A     -0.670858    14A     -0.662485    15A     -0.643119
      16A     -0.589780    17A     -0.580246    18A     -0.553414
      19A     -0.529442    20A     -0.514617    21A     -0.491850
      22A     -0.468458    23A     -0.452386    24A     -0.394135
      25A     -0.388796

  @DF-RHF Final Energy:  -267.44452562043091

   => Energetics <=

    Nuclear Repulsion Energy =            264.6309596709013476
    One-Electron Energy =                -886.4187713730589167
    Two-Electron Energy =                 354.3432860817266601
    Total Energy =                       -267.4445256204309089
  Basis Set: (AUG-CC-PVTZ AUX)
    Blend: AUG-CC-PVTZ-RI
    Molecular point group: c1

    Geometry (in Angstrom), charge = 0, multiplicity = 1:

       Center              X                  Y                   Z               Mass
    ------------   -----------------  -----------------  -----------------  -----------------
         N            0.952921664013     1.586426039789    -0.268384967674    14.003074004430
         N           -2.045245335987    -0.580819960211     0.195136032326    14.003074004430
         C            0.085811664013     0.627056039789     0.430816032326    12.000000000000
         C            0.877343664013    -0.652986960211     0.706927032326    12.000000000000
         C           -1.144796335987     0.388501039789    -0.438838967674    12.000000000000
         C            1.352822664013    -1.386701960211    -0.545398967674    12.000000000000
         H           -0.279536335987     1.001738039789     1.401767032326     1.007825032230
         H            0.262624664013    -1.311445960211     1.331088032326     1.007825032230
         H            1.747085664013    -0.385595960211     1.322263032326     1.007825032230
         H           -1.700513935987     1.353019839789    -0.532188267674     1.007825032230
         H           -0.812109335987     0.116044039789    -1.451483967674     1.007825032230
         H            2.006768664013    -2.221977960211    -0.277491967674     1.007825032230
         H            0.514964664013    -1.798816960211    -1.116224967674     1.007825032230
         H            1.902888664013    -0.708509960211    -1.200424967674     1.007825032230
         H            1.752129664013     1.808718039789     0.325738032326     1.007825032230
         H            0.450130664013     2.465322039789    -0.396523967674     1.007825032230
         H           -1.670519335987    -1.520150960211     0.072179032326     1.007825032230
         H           -2.941845335987    -0.576424960211    -0.288709967674     1.007825032230

  Basis Set: AUG-CC-PVTZ
    Blend: AUG-CC-PVTZ
  Basis Set: (AUG-CC-PVTZ AUX)
    Blend: AUG-CC-PVTZ-JKFIT
	 Reference Energy          =    -267.4445256204309089 [Eh]
	 Singles Energy            =      -0.0000000000000000 [Eh]
	 Same-Spin Energy          =      -0.2837148974655391 [Eh]
	 Opposite-Spin Energy      =      -0.9911235926198618 [Eh]
	 Correlation Energy        =      -1.2748384900854011 [Eh]
	 Total Energy              =    -268.7193641105163238 [Eh]

	 ================> DF-SCS-MP2 Energies <==================
	-----------------------------------------------------------
	 SCS Same-Spin Scale       =       0.3333333333333333 [-]
	 SCS Opposite-Spin Scale   =       1.2000000000000000 [-]
	 SCS Same-Spin Energy      =      -0.0945716324885130 [Eh]
	 SCS Opposite-Spin Energy  =      -1.1893483111438341 [Eh]
	 SCS Correlation Energy    =      -1.2839199436323472 [Eh]
	 SCS Total Energy          =    -268.7284455640632359 [Eh]
	-----------------------------------------------------------

  Dipole Moment: [D]
     X:    -0.2160      Y:     0.2424      Z:    -0.0996     Total:     0.3396

*** Psi4 exiting successfully. Buy a developer a beer!
