                               Psi4 1.4a3.dev225

  ==> Input File <==

--------------------------------------------------------------------------
#psi4
#
memory 32 gb

molecule  {
0 1
  N        0.9404650     1.6044440    -0.2603840
  N       -2.0577020    -0.5628020     0.2031370
  C       -0.0446123     0.5145551     0.5339408
  C        0.8648870    -0.6349690     0.7149280
  C       -1.1572530     0.4065190    -0.4308380
  C        1.3403660    -1.3686840    -0.5373980
  H       -0.2919930     1.0197560     1.4097680
  H        0.2501680    -1.2934280     1.3390890
  H        1.7346290    -0.3675780     1.3302640
  H       -1.7030210     1.3537690    -0.5225160
  H       -0.8245660     0.1340620    -1.4434830
  H        1.9943120    -2.2039600    -0.2694910
  H        0.5025080    -1.7807990    -1.1082240
  H        1.8904320    -0.6904920    -1.1924240
  H        1.7396730     1.8267360     0.3337390
  H        0.4376740     2.4833400    -0.3885230
  H       -1.6829760    -1.5021330     0.0801800
  H       -2.9543020    -0.5584070    -0.2807090
units angstrom
no_reorient  #important for SAPT in psi4, default
symmetry c1  #important for SAPT in psi4, default
}

set PROPERTIES_ORIGIN ["COM"]
properties('MP2/aug-cc-pvtz', properties = ['dipole'])
--------------------------------------------------------------------------

    Molecular point group: c1
  Charge       = 0
  Multiplicity = 1
  Basis Set: AUG-CC-PVTZ
    Blend: AUG-CC-PVTZ
  Basis Set: (AUG-CC-PVTZ AUX)
    Blend: AUG-CC-PVTZ-JKFIT

    Orbital Energies [Eh]
    ---------------------

    Doubly Occupied:

       1A    -15.542546     2A    -15.524945     3A    -11.250877
       4A    -11.245920     5A    -11.217880     6A    -11.209117
       7A     -1.194058     8A     -1.127300     9A     -1.034587
      10A     -0.950023    11A     -0.875395    12A     -0.756483
      13A     -0.683796    14A     -0.650945    15A     -0.623411
      16A     -0.599040    17A     -0.588490    18A     -0.549876
      19A     -0.532227    20A     -0.503769    21A     -0.492148
      22A     -0.476135    23A     -0.443400    24A     -0.401710
      25A     -0.378590

  @DF-RHF Final Energy:  -267.41224901622360

   => Energetics <=

    Nuclear Repulsion Energy =            264.4988276690227735
    One-Electron Energy =                -886.1168163554995090
    Two-Electron Energy =                 354.2057396702531946
    Total Energy =                       -267.4122490162235977
  Basis Set: (AUG-CC-PVTZ AUX)
    Blend: AUG-CC-PVTZ-RI
    Molecular point group: c1

    Geometry (in Angstrom), charge = 0, multiplicity = 1:

       Center              X                  Y                   Z               Mass
    ------------   -----------------  -----------------  -----------------  -----------------
         N            0.968876026918     1.604401407087    -0.281360783224    14.003074004430
         N           -2.029290973082    -0.562844592913     0.182160216776    14.003074004430
         C           -0.016201273082     0.514512507087     0.512964016776    12.000000000000
         C            0.893298026918    -0.635011592913     0.693951216776    12.000000000000
         C           -1.128841973082     0.406476407087    -0.451814783224    12.000000000000
         C            1.368777026918    -1.368726592913    -0.558374783224    12.000000000000
         H           -0.263581973082     1.019713407087     1.388791216776     1.007825032230
         H            0.278579026918    -1.293470592913     1.318112216776     1.007825032230
         H            1.763040026918    -0.367620592913     1.309287216776     1.007825032230
         H           -1.674609973082     1.353726407087    -0.543492783224     1.007825032230
         H           -0.796154973082     0.134019407087    -1.464459783224     1.007825032230
         H            2.022723026918    -2.204002592913    -0.290467783224     1.007825032230
         H            0.530919026918    -1.780841592913    -1.129200783224     1.007825032230
         H            1.918843026918    -0.690534592913    -1.213400783224     1.007825032230
         H            1.768084026918     1.826693407087     0.312762216776     1.007825032230
         H            0.466085026918     2.483297407087    -0.409499783224     1.007825032230
         H           -1.654564973082    -1.502175592913     0.059203216776     1.007825032230
         H           -2.925890973082    -0.558449592913    -0.301685783224     1.007825032230

  Basis Set: AUG-CC-PVTZ
    Blend: AUG-CC-PVTZ
  Basis Set: (AUG-CC-PVTZ AUX)
    Blend: AUG-CC-PVTZ-JKFIT
	 Reference Energy          =    -267.4122490162235977 [Eh]
	 Singles Energy            =      -0.0000000000000000 [Eh]
	 Same-Spin Energy          =      -0.2849614798097696 [Eh]
	 Opposite-Spin Energy      =      -0.9944849390160112 [Eh]
	 Correlation Energy        =      -1.2794464188257808 [Eh]
	 Total Energy              =    -268.6916954350493825 [Eh]

	 ================> DF-SCS-MP2 Energies <==================
	-----------------------------------------------------------
	 SCS Same-Spin Scale       =       0.3333333333333333 [-]
	 SCS Opposite-Spin Scale   =       1.2000000000000000 [-]
	 SCS Same-Spin Energy      =      -0.0949871599365899 [Eh]
	 SCS Opposite-Spin Energy  =      -1.1933819268192134 [Eh]
	 SCS Correlation Energy    =      -1.2883690867558033 [Eh]
	 SCS Total Energy          =    -268.7006181029793765 [Eh]
	-----------------------------------------------------------

  Dipole Moment: [D]
     X:    -0.5163      Y:    -0.1284      Z:     0.0407     Total:     0.5336

*** Psi4 exiting successfully. Buy a developer a beer!
