                               Psi4 1.4a3.dev225

  ==> Input File <==

--------------------------------------------------------------------------
#psi4
#
memory 32 gb

molecule  {
0 1
  N        0.9404650     1.6044440    -0.2603840
  N       -2.0577020    -0.5628020     0.2031370
  C        0.0733550     0.6450740     0.4388170
  C        0.8648870    -0.6349690     0.7149280
  C       -1.1572530     0.4065190    -0.4308380
  C        1.3403660    -1.3686840    -0.5373980
  H       -0.2919930     1.0197560     1.4097680
  H        0.2501680    -1.2934280     1.3390890
  H        1.7346290    -0.3675780     1.3302640
  H       -1.6035249     1.1810809    -0.5058027
  H       -0.8245660     0.1340620    -1.4434830
  H        1.9943120    -2.2039600    -0.2694910
  H        0.5025080    -1.7807990    -1.1082240
  H        1.8904320    -0.6904920    -1.1924240
  H        1.7396730     1.8267360     0.3337390
  H        0.4376740     2.4833400    -0.3885230
  H       -1.6829760    -1.5021330     0.0801800
  H       -2.9543020    -0.5584070    -0.2807090
units angstrom
no_reorient  #important for SAPT in psi4, default
symmetry c1  #important for SAPT in psi4, default
}

set PROPERTIES_ORIGIN ["COM"]
properties('MP2/aug-cc-pvtz', properties = ['dipole'])
--------------------------------------------------------------------------

    Molecular point group: c1
  Charge       = 0
  Multiplicity = 1
  Basis Set: AUG-CC-PVTZ
    Blend: AUG-CC-PVTZ
  Basis Set: (AUG-CC-PVTZ AUX)
    Blend: AUG-CC-PVTZ-JKFIT

    Orbital Energies [Eh]
    ---------------------

    Doubly Occupied:

       1A    -15.539667     2A    -15.538577     3A    -11.244011
       4A    -11.216576     5A    -11.213035     6A    -11.204597
       7A     -1.199192     8A     -1.159399     9A     -1.028326
      10A     -0.951869    11A     -0.873879    12A     -0.759038
      13A     -0.679689    14A     -0.661632    15A     -0.642402
      16A     -0.589485    17A     -0.581974    18A     -0.554474
      19A     -0.546330    20A     -0.515234    21A     -0.491135
      22A     -0.467083    23A     -0.457980    24A     -0.393061
      25A     -0.388337

  @DF-RHF Final Energy:  -267.41222277087365

   => Energetics <=

    Nuclear Repulsion Energy =            265.8267000660500798
    One-Electron Energy =                -888.6838832903536058
    Two-Electron Energy =                 355.4449604534298714
    Total Energy =                       -267.4122227708736546
  Basis Set: (AUG-CC-PVTZ AUX)
    Blend: AUG-CC-PVTZ-RI
    Molecular point group: c1

    Geometry (in Angstrom), charge = 0, multiplicity = 1:

       Center              X                  Y                   Z               Mass
    ------------   -----------------  -----------------  -----------------  -----------------
         N            0.951669654302     1.588599061511    -0.268595279251    14.003074004430
         N           -2.046497345698    -0.578646938489     0.194925720749    14.003074004430
         C            0.084559654302     0.629229061511     0.430605720749    12.000000000000
         C            0.876091654302    -0.650813938489     0.706716720749    12.000000000000
         C           -1.146048345698     0.390674061511    -0.439049279251    12.000000000000
         C            1.351570654302    -1.384528938489    -0.545609279251    12.000000000000
         H           -0.280788345698     1.003911061511     1.401556720749     1.007825032230
         H            0.261372654302    -1.309272938489     1.330877720749     1.007825032230
         H            1.745833654302    -0.383422938489     1.322052720749     1.007825032230
         H           -1.592320245698     1.165235961511    -0.514013979251     1.007825032230
         H           -0.813361345698     0.118217061511    -1.451694279251     1.007825032230
         H            2.005516654302    -2.219804938489    -0.277702279251     1.007825032230
         H            0.513712654302    -1.796643938489    -1.116435279251     1.007825032230
         H            1.901636654302    -0.706336938489    -1.200635279251     1.007825032230
         H            1.750877654302     1.810891061511     0.325527720749     1.007825032230
         H            0.448878654302     2.467495061511    -0.396734279251     1.007825032230
         H           -1.671771345698    -1.517977938489     0.071968720749     1.007825032230
         H           -2.943097345698    -0.574251938489    -0.288920279251     1.007825032230

  Basis Set: AUG-CC-PVTZ
    Blend: AUG-CC-PVTZ
  Basis Set: (AUG-CC-PVTZ AUX)
    Blend: AUG-CC-PVTZ-JKFIT
	 Reference Energy          =    -267.4122227708736546 [Eh]
	 Singles Energy            =      -0.0000000000000000 [Eh]
	 Same-Spin Energy          =      -0.2837061573891173 [Eh]
	 Opposite-Spin Energy      =      -0.9902489281671975 [Eh]
	 Correlation Energy        =      -1.2739550855563149 [Eh]
	 Total Energy              =    -268.6861778564299925 [Eh]

	 ================> DF-SCS-MP2 Energies <==================
	-----------------------------------------------------------
	 SCS Same-Spin Scale       =       0.3333333333333333 [-]
	 SCS Opposite-Spin Scale   =       1.2000000000000000 [-]
	 SCS Same-Spin Energy      =      -0.0945687191297058 [Eh]
	 SCS Opposite-Spin Energy  =      -1.1882987138006369 [Eh]
	 SCS Correlation Energy    =      -1.2828674329303427 [Eh]
	 SCS Total Energy          =    -268.6950902038039999 [Eh]
	-----------------------------------------------------------

  Dipole Moment: [D]
     X:    -0.2741      Y:     0.3622      Z:    -0.1404     Total:     0.4754

*** Psi4 exiting successfully. Buy a developer a beer!
