                               Psi4 1.3.2 release

  ==> Input File <==

--------------------------------------------------------------------------
#psi4
#
memory 32 gb

molecule  {
0 1
  O        0.8686370    -1.1285810     0.6753960
  N       -0.4170490     0.5891890    -0.1013730
  C       -1.6800190    -0.0563620     0.2358630
  C       -2.0872990    -1.0630810    -0.8349870
  C       -2.7390930     1.0113430     0.4650240
  C        0.7808810    -0.0406060     0.0960010
  C        1.9924560     0.7166710    -0.4292430
  C        3.2969670     0.0166800    -0.0788280
  H       -1.4931140    -0.5968520     1.1678280
  H       -0.4296908     1.5529393    -0.4623882
  H       -3.0167340    -1.5709650    -0.5578120
  H       -2.2433890    -0.5581650    -1.7943680
  H       -1.3035910    -1.8142070    -0.9546500
  H       -2.4287380     1.7063800     1.2494310
  H       -3.6863690     0.5519340     0.7608270
  H       -2.9190420     1.5806020    -0.4540200
  H        1.8890940     0.8204890    -1.5196510
  H        1.9757950     1.7355060    -0.0222730
  H        3.3123780    -0.9936500    -0.4915720
  H        4.1482470     0.5747890    -0.4771690
  H        3.4100600    -0.0687260     1.0041520
units angstrom
no_reorient  #important for SAPT in psi4, default
symmetry c1  #important for SAPT in psi4, default
}

set PROPERTIES_ORIGIN ["COM"]
properties('MP2/aug-cc-pvtz', properties = ['dipole'])
--------------------------------------------------------------------------

    Molecular point group: c1
  Charge       = 0
  Multiplicity = 1
  Basis Set: AUG-CC-PVTZ
    Blend: AUG-CC-PVTZ
  Basis Set: (AUG-CC-PVTZ AUX)
    Blend: AUG-CC-PVTZ-JKFIT

    Orbital Energies [Eh]
    ---------------------

    Doubly Occupied:

       1A    -20.513084     2A    -15.579270     3A    -11.344748
       4A    -11.265015     5A    -11.239936     6A    -11.225115
       7A    -11.213177     8A    -11.211420     9A     -1.366607
      10A     -1.226423    11A     -1.065804    12A     -1.029441
      13A     -0.940375    14A     -0.887596    15A     -0.807151
      16A     -0.775048    17A     -0.681835    18A     -0.657955
      19A     -0.633063    20A     -0.615119    21A     -0.595826
      22A     -0.570898    23A     -0.550064    24A     -0.545938
      25A     -0.526798    26A     -0.512491    27A     -0.508660
      28A     -0.497228    29A     -0.487595    30A     -0.476220
      31A     -0.416345    32A     -0.384486

  @DF-RHF Final Energy:  -364.24766614734455

   => Energetics <=

    Nuclear Repulsion Energy =            392.3665529171379376
    One-Electron Energy =               -1272.5269734574230824
    Two-Electron Energy =                 515.9127543929405419
    Total Energy =                       -364.2476661473446029
  Basis Set: (AUG-CC-PVTZ AUX)
    Blend: AUG-CC-PVTZ-RI
    Molecular point group: c1

    Geometry (in Angstrom), charge = 0, multiplicity = 1:

       Center              X                  Y                   Z               Mass
    ------------   -----------------  -----------------  -----------------  -----------------
         O            0.868518534100    -1.129949938317     0.673157109373    15.994914619570
         N           -0.417167465900     0.587820061683    -0.103611890627    14.003074004430
         C           -1.680137465900    -0.057730938317     0.233624109373    12.000000000000
         C           -2.087417465900    -1.064449938317    -0.837225890627    12.000000000000
         C           -2.739211465900     1.009974061683     0.462785109373    12.000000000000
         C            0.780762534100    -0.041974938317     0.093762109373    12.000000000000
         C            1.992337534100     0.715302061683    -0.431481890627    12.000000000000
         C            3.296848534100     0.015311061683    -0.081066890627    12.000000000000
         H           -1.493232465900    -0.598220938317     1.165589109373     1.007825032230
         H           -0.429809265900     1.551570361683    -0.464627090627     1.007825032230
         H           -3.016852465900    -1.572333938317    -0.560050890627     1.007825032230
         H           -2.243507465900    -0.559533938317    -1.796606890627     1.007825032230
         H           -1.303709465900    -1.815575938317    -0.956888890627     1.007825032230
         H           -2.428856465900     1.705011061683     1.247192109373     1.007825032230
         H           -3.686487465900     0.550565061683     0.758588109373     1.007825032230
         H           -2.919160465900     1.579233061683    -0.456258890627     1.007825032230
         H            1.888975534100     0.819120061683    -1.521889890627     1.007825032230
         H            1.975676534100     1.734137061683    -0.024511890627     1.007825032230
         H            3.312259534100    -0.995018938317    -0.493810890627     1.007825032230
         H            4.148128534100     0.573420061683    -0.479407890627     1.007825032230
         H            3.409941534100    -0.070094938317     1.001913109373     1.007825032230

  Basis Set: AUG-CC-PVTZ
    Blend: AUG-CC-PVTZ
  Basis Set: (AUG-CC-PVTZ AUX)
    Blend: AUG-CC-PVTZ-JKFIT
	 Reference Energy          =    -364.2476661473445461 [Eh]
	 Singles Energy            =      -0.0000000000000000 [Eh]
	 Same-Spin Energy          =      -0.3759705616884600 [Eh]
	 Opposite-Spin Energy      =      -1.2755710855096802 [Eh]
	 Correlation Energy        =      -1.6515416471981403 [Eh]
	 Total Energy              =    -365.8992077945426900 [Eh]

	 ================> DF-SCS-MP2 Energies <==================
	-----------------------------------------------------------
	 SCS Same-Spin Scale       =       0.3333333333333333 [-]
	 SCS Opposite-Spin Scale   =       1.2000000000000000 [-]
	 SCS Same-Spin Energy      =      -0.1253235205628200 [Eh]
	 SCS Opposite-Spin Energy  =      -1.5306853026116163 [Eh]
	 SCS Correlation Energy    =      -1.6560088231744363 [Eh]
	 SCS Total Energy          =    -365.9036749705189777 [Eh]
	-----------------------------------------------------------

  Dipole Moment: [D]
     X:    -1.3052      Y:     2.9428      Z:    -1.3450     Total:     3.4889

*** Psi4 exiting successfully. Buy a developer a beer!
