                               Psi4 1.3.2 release

  ==> Input File <==

--------------------------------------------------------------------------
#psi4
#
memory 32 gb

molecule  {
0 1
  O        0.8686370    -1.1285810     0.6753960
  N       -0.4170490     0.5891890    -0.1013730
  C       -1.6800190    -0.0563620     0.2358630
  C       -2.0872990    -1.0630810    -0.8349870
  C       -2.7390930     1.0113430     0.4650240
  C        0.7808810    -0.0406060     0.0960010
  C        1.9687628     0.5996211    -0.6488744
  C        3.2969670     0.0166800    -0.0788280
  H       -1.4931140    -0.5968520     1.1678280
  H       -0.4432210     1.3965910    -0.7180680
  H       -3.0167340    -1.5709650    -0.5578120
  H       -2.2433890    -0.5581650    -1.7943680
  H       -1.3035910    -1.8142070    -0.9546500
  H       -2.4287380     1.7063800     1.2494310
  H       -3.6863690     0.5519340     0.7608270
  H       -2.9190420     1.5806020    -0.4540200
  H        1.8890940     0.8204890    -1.5196510
  H        1.9757950     1.7355060    -0.0222730
  H        3.3123780    -0.9936500    -0.4915720
  H        4.1482470     0.5747890    -0.4771690
  H        3.4100600    -0.0687260     1.0041520
units angstrom
no_reorient  #important for SAPT in psi4, default
symmetry c1  #important for SAPT in psi4, default
}

set PROPERTIES_ORIGIN ["COM"]
properties('MP2/aug-cc-pvtz', properties = ['dipole'])
--------------------------------------------------------------------------

    Molecular point group: c1
  Charge       = 0
  Multiplicity = 1
  Basis Set: AUG-CC-PVTZ
    Blend: AUG-CC-PVTZ
  Basis Set: (AUG-CC-PVTZ AUX)
    Blend: AUG-CC-PVTZ-JKFIT

    Orbital Energies [Eh]
    ---------------------

    Doubly Occupied:

       1A    -20.515200     2A    -15.578070     3A    -11.350301
       4A    -11.265165     5A    -11.246394     6A    -11.223176
       7A    -11.219281     8A    -11.213194     9A     -1.368414
      10A     -1.228834    11A     -1.065776    12A     -1.029388
      13A     -0.940117    14A     -0.891352    15A     -0.816810
      16A     -0.783224    17A     -0.704790    18A     -0.654185
      19A     -0.625045    20A     -0.606447    21A     -0.599653
      22A     -0.574669    23A     -0.556676    24A     -0.545116
      25A     -0.540583    26A     -0.522969    27A     -0.506764
      28A     -0.491140    29A     -0.482762    30A     -0.446682
      31A     -0.415636    32A     -0.383751

  @DF-RHF Final Energy:  -364.18007956358923

   => Energetics <=

    Nuclear Repulsion Energy =            392.1603707103980128
    One-Electron Energy =               -1271.8977705476809206
    Two-Electron Energy =                 515.5573202736936764
    Total Energy =                       -364.1800795635892882
  Basis Set: (AUG-CC-PVTZ AUX)
    Blend: AUG-CC-PVTZ-RI
    Molecular point group: c1

    Geometry (in Angstrom), charge = 0, multiplicity = 1:

       Center              X                  Y                   Z               Mass
    ------------   -----------------  -----------------  -----------------  -----------------
         O            0.871107197997    -1.116377615019     0.698294072803    15.994914619570
         N           -0.414578802003     0.601392384981    -0.078474927197    14.003074004430
         C           -1.677548802003    -0.044158615019     0.258761072803    12.000000000000
         C           -2.084828802003    -1.050877615019    -0.812088927197    12.000000000000
         C           -2.736622802003     1.023546384981     0.487922072803    12.000000000000
         C            0.783351197997    -0.028402615019     0.118899072803    12.000000000000
         C            1.971232997997     0.611824484981    -0.625976327197    12.000000000000
         C            3.299437197997     0.028883384981    -0.055929927197    12.000000000000
         H           -1.490643802003    -0.584648615019     1.190726072803     1.007825032230
         H           -0.440750802003     1.408794384981    -0.695169927197     1.007825032230
         H           -3.014263802003    -1.558761615019    -0.534913927197     1.007825032230
         H           -2.240918802003    -0.545961615019    -1.771469927197     1.007825032230
         H           -1.301120802003    -1.802003615019    -0.931751927197     1.007825032230
         H           -2.426267802003     1.718583384981     1.272329072803     1.007825032230
         H           -3.683898802003     0.564137384981     0.783725072803     1.007825032230
         H           -2.916571802003     1.592805384981    -0.431121927197     1.007825032230
         H            1.891564197997     0.832692384981    -1.496752927197     1.007825032230
         H            1.978265197997     1.747709384981     0.000625072803     1.007825032230
         H            3.314848197997    -0.981446615019    -0.468673927197     1.007825032230
         H            4.150717197997     0.586992384981    -0.454270927197     1.007825032230
         H            3.412530197997    -0.056522615019     1.027050072803     1.007825032230

  Basis Set: AUG-CC-PVTZ
    Blend: AUG-CC-PVTZ
  Basis Set: (AUG-CC-PVTZ AUX)
    Blend: AUG-CC-PVTZ-JKFIT
	 Reference Energy          =    -364.1800795635892314 [Eh]
	 Singles Energy            =      -0.0000000000000000 [Eh]
	 Same-Spin Energy          =      -0.3765501449610426 [Eh]
	 Opposite-Spin Energy      =      -1.2783767645448911 [Eh]
	 Correlation Energy        =      -1.6549269095059338 [Eh]
	 Total Energy              =    -365.8350064730951772 [Eh]

	 ================> DF-SCS-MP2 Energies <==================
	-----------------------------------------------------------
	 SCS Same-Spin Scale       =       0.3333333333333333 [-]
	 SCS Opposite-Spin Scale   =       1.2000000000000000 [-]
	 SCS Same-Spin Energy      =      -0.1255167149870142 [Eh]
	 SCS Opposite-Spin Energy  =      -1.5340521174538693 [Eh]
	 SCS Correlation Energy    =      -1.6595688324408835 [Eh]
	 SCS Total Energy          =    -365.8396483960300998 [Eh]
	-----------------------------------------------------------

  Dipole Moment: [D]
     X:    -1.3049      Y:     2.5584      Z:    -1.7079     Total:     3.3414

*** Psi4 exiting successfully. Buy a developer a beer!
