                               Psi4 1.3.2 release

  ==> Input File <==

--------------------------------------------------------------------------
#psi4
#
memory 32 gb

molecule  {
0 1
  O        0.8686370    -1.1285810     0.6753960
  N       -0.4170490     0.5891890    -0.1013730
  C       -1.6800190    -0.0563620     0.2358630
  C       -2.0872990    -1.0630810    -0.8349870
  C       -2.7390930     1.0113430     0.4650240
  C        0.7808810    -0.0406060     0.0960010
  C        1.9924560     0.7166710    -0.4292430
  C        3.2969670     0.0166800    -0.0788280
  H       -1.4931140    -0.5968520     1.1678280
  H       -0.4364559     1.4747652    -0.5902281
  H       -3.0167340    -1.5709650    -0.5578120
  H       -2.2433890    -0.5581650    -1.7943680
  H       -1.3035910    -1.8142070    -0.9546500
  H       -2.4287380     1.7063800     1.2494310
  H       -3.6863690     0.5519340     0.7608270
  H       -2.9190420     1.5806020    -0.4540200
  H        1.8890940     0.8204890    -1.5196510
  H        1.9757950     1.7355060    -0.0222730
  H        3.3123780    -0.9936500    -0.4915720
  H        4.1482470     0.5747890    -0.4771690
  H        3.4100600    -0.0687260     1.0041520
units angstrom
no_reorient  #important for SAPT in psi4, default
symmetry c1  #important for SAPT in psi4, default
}

set PROPERTIES_ORIGIN ["COM"]
properties('MP2/aug-cc-pvtz', properties = ['dipole'])
--------------------------------------------------------------------------

    Molecular point group: c1
  Charge       = 0
  Multiplicity = 1
  Basis Set: AUG-CC-PVTZ
    Blend: AUG-CC-PVTZ
  Basis Set: (AUG-CC-PVTZ AUX)
    Blend: AUG-CC-PVTZ-JKFIT

    Orbital Energies [Eh]
    ---------------------

    Doubly Occupied:

       1A    -20.512854     2A    -15.577973     3A    -11.344756
       4A    -11.265123     5A    -11.240115     6A    -11.224419
       7A    -11.213327     8A    -11.211900     9A     -1.366678
      10A     -1.228512    11A     -1.066086    12A     -1.029843
      13A     -0.940191    14A     -0.887809    15A     -0.808039
      16A     -0.779131    17A     -0.682189    18A     -0.656210
      19A     -0.634288    20A     -0.614466    21A     -0.594874
      22A     -0.574870    23A     -0.550003    24A     -0.545722
      25A     -0.526164    26A     -0.512618    27A     -0.509221
      28A     -0.497088    29A     -0.487824    30A     -0.476735
      31A     -0.416575    32A     -0.384918

  @DF-RHF Final Energy:  -364.24922308190196

   => Energetics <=

    Nuclear Repulsion Energy =            392.4860815598615318
    One-Electron Energy =               -1272.7495758941345230
    Two-Electron Energy =                 516.0142712523710316
    Total Energy =                       -364.2492230819019596
  Basis Set: (AUG-CC-PVTZ AUX)
    Blend: AUG-CC-PVTZ-RI
    Molecular point group: c1

    Geometry (in Angstrom), charge = 0, multiplicity = 1:

       Center              X                  Y                   Z               Mass
    ------------   -----------------  -----------------  -----------------  -----------------
         O            0.868577770017    -1.129265437791     0.674276488795    15.994914619570
         N           -0.417108229983     0.588504562209    -0.102492511205    14.003074004430
         C           -1.680078229983    -0.057046437791     0.234743488795    12.000000000000
         C           -2.087358229983    -1.063765437791    -0.836106511205    12.000000000000
         C           -2.739152229983     1.010658562209     0.463904488795    12.000000000000
         C            0.780821770017    -0.041290437791     0.094881488795    12.000000000000
         C            1.992396770017     0.715986562209    -0.430362511205    12.000000000000
         C            3.296907770017     0.015995562209    -0.079947511205    12.000000000000
         H           -1.493173229983    -0.597536437791     1.166708488795     1.007825032230
         H           -0.436515129983     1.474080762209    -0.591347611205     1.007825032230
         H           -3.016793229983    -1.571649437791    -0.558931511205     1.007825032230
         H           -2.243448229983    -0.558849437791    -1.795487511205     1.007825032230
         H           -1.303650229983    -1.814891437791    -0.955769511205     1.007825032230
         H           -2.428797229983     1.705695562209     1.248311488795     1.007825032230
         H           -3.686428229983     0.551249562209     0.759707488795     1.007825032230
         H           -2.919101229983     1.579917562209    -0.455139511205     1.007825032230
         H            1.889034770017     0.819804562209    -1.520770511205     1.007825032230
         H            1.975735770017     1.734821562209    -0.023392511205     1.007825032230
         H            3.312318770017    -0.994334437791    -0.492691511205     1.007825032230
         H            4.148187770017     0.574104562209    -0.478288511205     1.007825032230
         H            3.410000770017    -0.069410437791     1.003032488795     1.007825032230

  Basis Set: AUG-CC-PVTZ
    Blend: AUG-CC-PVTZ
  Basis Set: (AUG-CC-PVTZ AUX)
    Blend: AUG-CC-PVTZ-JKFIT
	 Reference Energy          =    -364.2492230819019596 [Eh]
	 Singles Energy            =      -0.0000000000000000 [Eh]
	 Same-Spin Energy          =      -0.3757967901306194 [Eh]
	 Opposite-Spin Energy      =      -1.2751569406791576 [Eh]
	 Correlation Energy        =      -1.6509537308097770 [Eh]
	 Total Energy              =    -365.9001768127117202 [Eh]

	 ================> DF-SCS-MP2 Energies <==================
	-----------------------------------------------------------
	 SCS Same-Spin Scale       =       0.3333333333333333 [-]
	 SCS Opposite-Spin Scale   =       1.2000000000000000 [-]
	 SCS Same-Spin Energy      =      -0.1252655967102065 [Eh]
	 SCS Opposite-Spin Energy  =      -1.5301883288149891 [Eh]
	 SCS Correlation Energy    =      -1.6554539255251957 [Eh]
	 SCS Total Energy          =    -365.9046770074271535 [Eh]
	-----------------------------------------------------------

  Dipole Moment: [D]
     X:    -1.3075      Y:     2.8503      Z:    -1.5004     Total:     3.4763

*** Psi4 exiting successfully. Buy a developer a beer!
