                               Psi4 1.3.2 release

  ==> Input File <==

--------------------------------------------------------------------------
#psi4
#
memory 32 gb

molecule  {
0 1
  O        0.8686370    -1.1285810     0.6753960
  N       -0.4170490     0.5891890    -0.1013730
  C       -1.6800190    -0.0563620     0.2358630
  C       -2.0872990    -1.0630810    -0.8349870
  C       -2.7390930     1.0113430     0.4650240
  C        0.7808810    -0.0406060     0.0960010
  C        1.9924560     0.7166710    -0.4292430
  C        3.2969670     0.0166800    -0.0788280
  H       -1.4931140    -0.5968520     1.1678280
  H       -0.4409660     1.4226491    -0.6754547
  H       -3.0167340    -1.5709650    -0.5578120
  H       -2.2433890    -0.5581650    -1.7943680
  H       -1.3035910    -1.8142070    -0.9546500
  H       -2.4287380     1.7063800     1.2494310
  H       -3.6863690     0.5519340     0.7608270
  H       -2.9190420     1.5806020    -0.4540200
  H        1.8890940     0.8204890    -1.5196510
  H        1.9757950     1.7355060    -0.0222730
  H        3.3123780    -0.9936500    -0.4915720
  H        4.1482470     0.5747890    -0.4771690
  H        3.4100600    -0.0687260     1.0041520
units angstrom
no_reorient  #important for SAPT in psi4, default
symmetry c1  #important for SAPT in psi4, default
}

set PROPERTIES_ORIGIN ["COM"]
properties('MP2/aug-cc-pvtz', properties = ['dipole'])
--------------------------------------------------------------------------

    Molecular point group: c1
  Charge       = 0
  Multiplicity = 1
  Basis Set: AUG-CC-PVTZ
    Blend: AUG-CC-PVTZ
  Basis Set: (AUG-CC-PVTZ AUX)
    Blend: AUG-CC-PVTZ-JKFIT

    Orbital Energies [Eh]
    ---------------------

    Doubly Occupied:

       1A    -20.513169     2A    -15.578024     3A    -11.344823
       4A    -11.265042     5A    -11.240229     6A    -11.223820
       7A    -11.213436     8A    -11.212306     9A     -1.366948
      10A     -1.228825    11A     -1.066161    12A     -1.029882
      13A     -0.940001    14A     -0.887866    15A     -0.808221
      16A     -0.779083    17A     -0.682325    18A     -0.654513
      19A     -0.635091    20A     -0.614022    21A     -0.593961
      22A     -0.577219    23A     -0.549907    24A     -0.545511
      25A     -0.525767    26A     -0.512674    27A     -0.509352
      28A     -0.496943    29A     -0.487933    30A     -0.477067
      31A     -0.416974    32A     -0.385446

  @DF-RHF Final Energy:  -364.24937005356696

   => Energetics <=

    Nuclear Repulsion Energy =            392.5055347445274947
    One-Electron Energy =               -1272.7847303440873930
    Two-Electron Energy =                 516.0298255459929351
    Total Energy =                       -364.2493700535669632
  Basis Set: (AUG-CC-PVTZ AUX)
    Blend: AUG-CC-PVTZ-RI
    Molecular point group: c1

    Geometry (in Angstrom), charge = 0, multiplicity = 1:

       Center              X                  Y                   Z               Mass
    ------------   -----------------  -----------------  -----------------  -----------------
         O            0.868617260921    -1.128809103815     0.675022741743    15.994914619570
         N           -0.417068739079     0.588960896185    -0.101746258257    14.003074004430
         C           -1.680038739079    -0.056590103815     0.235489741743    12.000000000000
         C           -2.087318739079    -1.063309103815    -0.835360258257    12.000000000000
         C           -2.739112739079     1.011114896185     0.464650741743    12.000000000000
         C            0.780861260921    -0.040834103815     0.095627741743    12.000000000000
         C            1.992436260921     0.716442896185    -0.429616258257    12.000000000000
         C            3.296947260921     0.016451896185    -0.079201258257    12.000000000000
         H           -1.493133739079    -0.597080103815     1.167454741743     1.007825032230
         H           -0.440985739079     1.422420996185    -0.675827958257     1.007825032230
         H           -3.016753739079    -1.571193103815    -0.558185258257     1.007825032230
         H           -2.243408739079    -0.558393103815    -1.794741258257     1.007825032230
         H           -1.303610739079    -1.814435103815    -0.955023258257     1.007825032230
         H           -2.428757739079     1.706151896185     1.249057741743     1.007825032230
         H           -3.686388739079     0.551705896185     0.760453741743     1.007825032230
         H           -2.919061739079     1.580373896185    -0.454393258257     1.007825032230
         H            1.889074260921     0.820260896185    -1.520024258257     1.007825032230
         H            1.975775260921     1.735277896185    -0.022646258257     1.007825032230
         H            3.312358260921    -0.993878103815    -0.491945258257     1.007825032230
         H            4.148227260921     0.574560896185    -0.477542258257     1.007825032230
         H            3.410040260921    -0.068954103815     1.003778741743     1.007825032230

  Basis Set: AUG-CC-PVTZ
    Blend: AUG-CC-PVTZ
  Basis Set: (AUG-CC-PVTZ AUX)
    Blend: AUG-CC-PVTZ-JKFIT
	 Reference Energy          =    -364.2493700535669632 [Eh]
	 Singles Energy            =      -0.0000000000000000 [Eh]
	 Same-Spin Energy          =      -0.3757682226016035 [Eh]
	 Opposite-Spin Energy      =      -1.2751129039049895 [Eh]
	 Correlation Energy        =      -1.6508811265065930 [Eh]
	 Total Energy              =    -365.9002511800735533 [Eh]

	 ================> DF-SCS-MP2 Energies <==================
	-----------------------------------------------------------
	 SCS Same-Spin Scale       =       0.3333333333333333 [-]
	 SCS Opposite-Spin Scale   =       1.2000000000000000 [-]
	 SCS Same-Spin Energy      =      -0.1252560742005345 [Eh]
	 SCS Opposite-Spin Energy  =      -1.5301354846859874 [Eh]
	 SCS Correlation Energy    =      -1.6553915588865218 [Eh]
	 SCS Total Energy          =    -365.9047616124535125 [Eh]
	-----------------------------------------------------------

  Dipole Moment: [D]
     X:    -1.2997      Y:     2.7710      Z:    -1.5966     Total:     3.4521

*** Psi4 exiting successfully. Buy a developer a beer!
