                               Psi4 1.3.2 release

  ==> Input File <==

--------------------------------------------------------------------------
#psi4
#
memory 32 gb

molecule  {
0 1
  O        0.8686370    -1.1285810     0.6753960
  N       -0.4170490     0.5891890    -0.1013730
  C       -1.6800190    -0.0563620     0.2358630
  C       -2.0872990    -1.0630810    -0.8349870
  C       -2.7390930     1.0113430     0.4650240
  C        0.7808810    -0.0406060     0.0960010
  C        1.9924560     0.7166710    -0.4292430
  C        3.2969670     0.0166800    -0.0788280
  H       -1.4931140    -0.5968520     1.1678280
  H       -0.4432210     1.3965910    -0.7180680
  H       -3.0167340    -1.5709650    -0.5578120
  H       -2.2433890    -0.5581650    -1.7943680
  H       -1.3035910    -1.8142070    -0.9546500
  H       -2.4287380     1.7063800     1.2494310
  H       -3.6863690     0.5519340     0.7608270
  H       -2.9190420     1.5806020    -0.4540200
  H        1.8890940     0.8204890    -1.5196510
  H        1.9757950     1.7355060    -0.0222730
  H        3.3123780    -0.9936500    -0.4915720
  H        4.1482470     0.5747890    -0.4771690
  H        3.4100600    -0.0687260     1.0041520
units angstrom
no_reorient  #important for SAPT in psi4, default
symmetry c1  #important for SAPT in psi4, default
}

set PROPERTIES_ORIGIN ["COM"]
properties('MP2/aug-cc-pvtz', properties = ['dipole'])
--------------------------------------------------------------------------

    Molecular point group: c1
  Charge       = 0
  Multiplicity = 1
  Basis Set: AUG-CC-PVTZ
    Blend: AUG-CC-PVTZ
  Basis Set: (AUG-CC-PVTZ AUX)
    Blend: AUG-CC-PVTZ-JKFIT

    Orbital Energies [Eh]
    ---------------------

    Doubly Occupied:

       1A    -20.513465     2A    -15.578335     3A    -11.344878
       4A    -11.264959     5A    -11.240284     6A    -11.223487
       7A    -11.213492     8A    -11.212533     9A     -1.367147
      10A     -1.228645    11A     -1.066165    12A     -1.029832
      13A     -0.939895    14A     -0.887870    15A     -0.808160
      16A     -0.778254    17A     -0.682371    18A     -0.653528
      19A     -0.635479    20A     -0.613809    21A     -0.593404
      22A     -0.578277    23A     -0.549850    24A     -0.545388
      25A     -0.525589    26A     -0.512691    27A     -0.509339
      28A     -0.496853    29A     -0.487974    30A     -0.477225
      31A     -0.417245    32A     -0.385781

  @DF-RHF Final Energy:  -364.24920293026003

   => Energetics <=

    Nuclear Repulsion Energy =            392.4969080513703261
    One-Electron Energy =               -1272.7678114155053208
    Two-Electron Energy =                 516.0217004338749121
    Total Energy =                       -364.2492029302600258
  Basis Set: (AUG-CC-PVTZ AUX)
    Blend: AUG-CC-PVTZ-RI
    Molecular point group: c1

    Geometry (in Angstrom), charge = 0, multiplicity = 1:

       Center              X                  Y                   Z               Mass
    ------------   -----------------  -----------------  -----------------  -----------------
         O            0.868637005935    -1.128580936389     0.675395868217    15.994914619570
         N           -0.417048994065     0.589189063611    -0.101373131783    14.003074004430
         C           -1.680018994065    -0.056361936389     0.235862868217    12.000000000000
         C           -2.087298994065    -1.063080936389    -0.834987131783    12.000000000000
         C           -2.739092994065     1.011343063611     0.465023868217    12.000000000000
         C            0.780881005935    -0.040605936389     0.096000868217    12.000000000000
         C            1.992456005935     0.716671063611    -0.429243131783    12.000000000000
         C            3.296967005935     0.016680063611    -0.078828131783    12.000000000000
         H           -1.493113994065    -0.596851936389     1.167827868217     1.007825032230
         H           -0.443220994065     1.396591063611    -0.718068131783     1.007825032230
         H           -3.016733994065    -1.570964936389    -0.557812131783     1.007825032230
         H           -2.243388994065    -0.558164936389    -1.794368131783     1.007825032230
         H           -1.303590994065    -1.814206936389    -0.954650131783     1.007825032230
         H           -2.428737994065     1.706380063611     1.249430868217     1.007825032230
         H           -3.686368994065     0.551934063611     0.760826868217     1.007825032230
         H           -2.919041994065     1.580602063611    -0.454020131783     1.007825032230
         H            1.889094005935     0.820489063611    -1.519651131783     1.007825032230
         H            1.975795005935     1.735506063611    -0.022273131783     1.007825032230
         H            3.312378005935    -0.993649936389    -0.491572131783     1.007825032230
         H            4.148247005935     0.574789063611    -0.477169131783     1.007825032230
         H            3.410060005935    -0.068725936389     1.004151868217     1.007825032230

  Basis Set: AUG-CC-PVTZ
    Blend: AUG-CC-PVTZ
  Basis Set: (AUG-CC-PVTZ AUX)
    Blend: AUG-CC-PVTZ-JKFIT
	 Reference Energy          =    -364.2492029302600258 [Eh]
	 Singles Energy            =      -0.0000000000000000 [Eh]
	 Same-Spin Energy          =      -0.3757807706486376 [Eh]
	 Opposite-Spin Energy      =      -1.2751644380264207 [Eh]
	 Correlation Energy        =      -1.6509452086750582 [Eh]
	 Total Energy              =    -365.9001481389350943 [Eh]

	 ================> DF-SCS-MP2 Energies <==================
	-----------------------------------------------------------
	 SCS Same-Spin Scale       =       0.3333333333333333 [-]
	 SCS Opposite-Spin Scale   =       1.2000000000000000 [-]
	 SCS Same-Spin Energy      =      -0.1252602568828792 [Eh]
	 SCS Opposite-Spin Energy  =      -1.5301973256317047 [Eh]
	 SCS Correlation Energy    =      -1.6554575825145839 [Eh]
	 SCS Total Energy          =    -365.9046605127746261 [Eh]
	-----------------------------------------------------------

  Dipole Moment: [D]
     X:    -1.2931      Y:     2.7266      Z:    -1.6416     Total:     3.4353

*** Psi4 exiting successfully. Buy a developer a beer!
