                               Psi4 1.3.2 release

  ==> Input File <==

--------------------------------------------------------------------------
#psi4
#
memory 32 gb

molecule  {
0 1
  O        0.8686370    -1.1285810     0.6753960
  N       -0.4170490     0.5891890    -0.1013730
  C       -1.6800190    -0.0563620     0.2358630
  C       -2.0872990    -1.0630810    -0.8349870
  C       -2.7390930     1.0113430     0.4650240
  C        0.7808810    -0.0406060     0.0960010
  C        1.9877174     0.6932610    -0.4731693
  C        3.2969670     0.0166800    -0.0788280
  H       -1.4931140    -0.5968520     1.1678280
  H       -0.4432210     1.3965910    -0.7180680
  H       -3.0167340    -1.5709650    -0.5578120
  H       -2.2433890    -0.5581650    -1.7943680
  H       -1.3035910    -1.8142070    -0.9546500
  H       -2.4287380     1.7063800     1.2494310
  H       -3.6863690     0.5519340     0.7608270
  H       -2.9190420     1.5806020    -0.4540200
  H        1.8890940     0.8204890    -1.5196510
  H        1.9757950     1.7355060    -0.0222730
  H        3.3123780    -0.9936500    -0.4915720
  H        4.1482470     0.5747890    -0.4771690
  H        3.4100600    -0.0687260     1.0041520
units angstrom
no_reorient  #important for SAPT in psi4, default
symmetry c1  #important for SAPT in psi4, default
}

set PROPERTIES_ORIGIN ["COM"]
properties('MP2/aug-cc-pvtz', properties = ['dipole'])
--------------------------------------------------------------------------

    Molecular point group: c1
  Charge       = 0
  Multiplicity = 1
  Basis Set: AUG-CC-PVTZ
    Blend: AUG-CC-PVTZ
  Basis Set: (AUG-CC-PVTZ AUX)
    Blend: AUG-CC-PVTZ-JKFIT

    Orbital Energies [Eh]
    ---------------------

    Doubly Occupied:

       1A    -20.513526     2A    -15.578283     3A    -11.345103
       4A    -11.264977     5A    -11.240336     6A    -11.223419
       7A    -11.213840     8A    -11.212650     9A     -1.367194
      10A     -1.228638    11A     -1.066008    12A     -1.029545
      13A     -0.939928    14A     -0.887974    15A     -0.808521
      16A     -0.778632    17A     -0.683472    18A     -0.653945
      19A     -0.634781    20A     -0.612975    21A     -0.594421
      22A     -0.577859    23A     -0.550253    24A     -0.545310
      25A     -0.525092    26A     -0.515302    27A     -0.510083
      28A     -0.493907    29A     -0.487161    30A     -0.477126
      31A     -0.417377    32A     -0.385465

  @DF-RHF Final Energy:  -364.24670120208157

   => Energetics <=

    Nuclear Repulsion Energy =            392.4827483694971306
    One-Electron Energy =               -1272.7326947721855959
    Two-Electron Energy =                 516.0032452006068979
    Total Energy =                       -364.2467012020815673
  Basis Set: (AUG-CC-PVTZ AUX)
    Blend: AUG-CC-PVTZ-RI
    Molecular point group: c1

    Geometry (in Angstrom), charge = 0, multiplicity = 1:

       Center              X                  Y                   Z               Mass
    ------------   -----------------  -----------------  -----------------  -----------------
         O            0.869131040177    -1.126140270030     0.679975511219    15.994914619570
         N           -0.416554959823     0.591629729970    -0.096793488781    14.003074004430
         C           -1.679524959823    -0.053921270030     0.240442511219    12.000000000000
         C           -2.086804959823    -1.060640270030    -0.830407488781    12.000000000000
         C           -2.738598959823     1.013783729970     0.469603511219    12.000000000000
         C            0.781375040177    -0.038165270030     0.100580511219    12.000000000000
         C            1.988211440177     0.695701729970    -0.468589788781    12.000000000000
         C            3.297461040177     0.019120729970    -0.074248488781    12.000000000000
         H           -1.492619959823    -0.594411270030     1.172407511219     1.007825032230
         H           -0.442726959823     1.399031729970    -0.713488488781     1.007825032230
         H           -3.016239959823    -1.568524270030    -0.553232488781     1.007825032230
         H           -2.242894959823    -0.555724270030    -1.789788488781     1.007825032230
         H           -1.303096959823    -1.811766270030    -0.950070488781     1.007825032230
         H           -2.428243959823     1.708820729970     1.254010511219     1.007825032230
         H           -3.685874959823     0.554374729970     0.765406511219     1.007825032230
         H           -2.918547959823     1.583042729970    -0.449440488781     1.007825032230
         H            1.889588040177     0.822929729970    -1.515071488781     1.007825032230
         H            1.976289040177     1.737946729970    -0.017693488781     1.007825032230
         H            3.312872040177    -0.991209270030    -0.486992488781     1.007825032230
         H            4.148741040177     0.577229729970    -0.472589488781     1.007825032230
         H            3.410554040177    -0.066285270030     1.008731511219     1.007825032230

  Basis Set: AUG-CC-PVTZ
    Blend: AUG-CC-PVTZ
  Basis Set: (AUG-CC-PVTZ AUX)
    Blend: AUG-CC-PVTZ-JKFIT
	 Reference Energy          =    -364.2467012020815673 [Eh]
	 Singles Energy            =      -0.0000000000000000 [Eh]
	 Same-Spin Energy          =      -0.3757938915691852 [Eh]
	 Opposite-Spin Energy      =      -1.2752796205266823 [Eh]
	 Correlation Energy        =      -1.6510735120958675 [Eh]
	 Total Energy              =    -365.8977747141774444 [Eh]

	 ================> DF-SCS-MP2 Energies <==================
	-----------------------------------------------------------
	 SCS Same-Spin Scale       =       0.3333333333333333 [-]
	 SCS Opposite-Spin Scale   =       1.2000000000000000 [-]
	 SCS Same-Spin Energy      =      -0.1252646305230617 [Eh]
	 SCS Opposite-Spin Energy  =      -1.5303355446320188 [Eh]
	 SCS Correlation Energy    =      -1.6556001751550806 [Eh]
	 SCS Total Energy          =    -365.9023013772366539 [Eh]
	-----------------------------------------------------------

  Dipole Moment: [D]
     X:    -1.2975      Y:     2.7058      Z:    -1.6660     Total:     3.4323

*** Psi4 exiting successfully. Buy a developer a beer!
