                               Psi4 1.3.2 release

  ==> Input File <==

--------------------------------------------------------------------------
#psi4
#
memory 32 gb

molecule  {
0 1
  O        0.8686370    -1.1285810     0.6753960
  N       -0.4170490     0.5891890    -0.1013730
  C       -1.6800190    -0.0563620     0.2358630
  C       -2.0872990    -1.0630810    -0.8349870
  C       -2.7390930     1.0113430     0.4650240
  C        0.7808810    -0.0406060     0.0960010
  C        1.9640242     0.5762111    -0.6928007
  C        3.2969670     0.0166800    -0.0788280
  H       -1.4931140    -0.5968520     1.1678280
  H       -0.4432210     1.3965910    -0.7180680
  H       -3.0167340    -1.5709650    -0.5578120
  H       -2.2433890    -0.5581650    -1.7943680
  H       -1.3035910    -1.8142070    -0.9546500
  H       -2.4287380     1.7063800     1.2494310
  H       -3.6863690     0.5519340     0.7608270
  H       -2.9190420     1.5806020    -0.4540200
  H        1.8890940     0.8204890    -1.5196510
  H        1.9757950     1.7355060    -0.0222730
  H        3.3123780    -0.9936500    -0.4915720
  H        4.1482470     0.5747890    -0.4771690
  H        3.4100600    -0.0687260     1.0041520
units angstrom
no_reorient  #important for SAPT in psi4, default
symmetry c1  #important for SAPT in psi4, default
}

set PROPERTIES_ORIGIN ["COM"]
properties('MP2/aug-cc-pvtz', properties = ['dipole'])
--------------------------------------------------------------------------

    Molecular point group: c1
  Charge       = 0
  Multiplicity = 1
  Basis Set: AUG-CC-PVTZ
    Blend: AUG-CC-PVTZ
  Basis Set: (AUG-CC-PVTZ AUX)
    Blend: AUG-CC-PVTZ-JKFIT

    Orbital Energies [Eh]
    ---------------------

    Doubly Occupied:

       1A    -20.515966     2A    -15.578025     3A    -11.352617
       4A    -11.265243     5A    -11.249353     6A    -11.223128
       7A    -11.221532     8A    -11.213346     9A     -1.368963
      10A     -1.228941    11A     -1.065893    12A     -1.029722
      13A     -0.940181    14A     -0.893388    15A     -0.820821
      16A     -0.784518    17A     -0.710238    18A     -0.654212
      19A     -0.623254    20A     -0.603952    21A     -0.601167
      22A     -0.573654    23A     -0.559848    24A     -0.545370
      25A     -0.542972    26A     -0.523650    27A     -0.505242
      28A     -0.490781    29A     -0.482919    30A     -0.437932
      31A     -0.413952    32A     -0.383051

  @DF-RHF Final Energy:  -364.14781244064028

   => Energetics <=

    Nuclear Repulsion Energy =            392.0182639940733225
    One-Electron Energy =               -1271.5244920639056545
    Two-Electron Energy =                 515.3584156291921090
    Total Energy =                       -364.1478124406402230
  Basis Set: (AUG-CC-PVTZ AUX)
    Blend: AUG-CC-PVTZ-RI
    Molecular point group: c1

    Geometry (in Angstrom), charge = 0, multiplicity = 1:

       Center              X                  Y                   Z               Mass
    ------------   -----------------  -----------------  -----------------  -----------------
         O            0.871601232239    -1.113936948660     0.702873715805    15.994914619570
         N           -0.414084767761     0.603833051340    -0.073895284195    14.003074004430
         C           -1.677054767761    -0.041717948660     0.263340715805    12.000000000000
         C           -2.084334767761    -1.048436948660    -0.807509284195    12.000000000000
         C           -2.736128767761     1.025987051340     0.492501715805    12.000000000000
         C            0.783845232239    -0.025961948660     0.123478715805    12.000000000000
         C            1.966988432239     0.590855151340    -0.665322984195    12.000000000000
         C            3.299931232239     0.031324051340    -0.051350284195    12.000000000000
         H           -1.490149767761    -0.582207948660     1.195305715805     1.007825032230
         H           -0.440256767761     1.411235051340    -0.690590284195     1.007825032230
         H           -3.013769767761    -1.556320948660    -0.530334284195     1.007825032230
         H           -2.240424767761    -0.543520948660    -1.766890284195     1.007825032230
         H           -1.300626767761    -1.799562948660    -0.927172284195     1.007825032230
         H           -2.425773767761     1.721024051340     1.276908715805     1.007825032230
         H           -3.683404767761     0.566578051340     0.788304715805     1.007825032230
         H           -2.916077767761     1.595246051340    -0.426542284195     1.007825032230
         H            1.892058232239     0.835133051340    -1.492173284195     1.007825032230
         H            1.978759232239     1.750150051340     0.005204715805     1.007825032230
         H            3.315342232239    -0.979005948660    -0.464094284195     1.007825032230
         H            4.151211232239     0.589433051340    -0.449691284195     1.007825032230
         H            3.413024232239    -0.054081948660     1.031629715805     1.007825032230

  Basis Set: AUG-CC-PVTZ
    Blend: AUG-CC-PVTZ
  Basis Set: (AUG-CC-PVTZ AUX)
    Blend: AUG-CC-PVTZ-JKFIT
	 Reference Energy          =    -364.1478124406402799 [Eh]
	 Singles Energy            =      -0.0000000000000000 [Eh]
	 Same-Spin Energy          =      -0.3769300494915333 [Eh]
	 Opposite-Spin Energy      =      -1.2798525780641596 [Eh]
	 Correlation Energy        =      -1.6567826275556929 [Eh]
	 Total Energy              =    -365.8045950681959653 [Eh]

	 ================> DF-SCS-MP2 Energies <==================
	-----------------------------------------------------------
	 SCS Same-Spin Scale       =       0.3333333333333333 [-]
	 SCS Opposite-Spin Scale   =       1.2000000000000000 [-]
	 SCS Same-Spin Energy      =      -0.1256433498305111 [Eh]
	 SCS Opposite-Spin Energy  =      -1.5358230936769914 [Eh]
	 SCS Correlation Energy    =      -1.6614664435075026 [Eh]
	 SCS Total Energy          =    -365.8092788841477727 [Eh]
	-----------------------------------------------------------

  Dipole Moment: [D]
     X:    -1.3059      Y:     2.5115      Z:    -1.7043     Total:     3.3042

*** Psi4 exiting successfully. Buy a developer a beer!
