                               Psi4 1.3.2 release

  ==> Input File <==

--------------------------------------------------------------------------
#psi4
#
memory 32 gb

molecule  {
0 1
  O        0.8686370    -1.1285810     0.6753960
  N       -0.4170490     0.5891890    -0.1013730
  C       -1.6800190    -0.0563620     0.2358630
  C       -2.0872990    -1.0630810    -0.8349870
  C       -2.7390930     1.0113430     0.4650240
  C        0.7808810    -0.0406060     0.0960010
  C        1.9924560     0.7166710    -0.4292430
  C        3.2969670     0.0166800    -0.0788280
  H       -1.4931140    -0.5968520     1.1678280
  H       -0.4342009     1.5008232    -0.5476148
  H       -3.0167340    -1.5709650    -0.5578120
  H       -2.2433890    -0.5581650    -1.7943680
  H       -1.3035910    -1.8142070    -0.9546500
  H       -2.4287380     1.7063800     1.2494310
  H       -3.6863690     0.5519340     0.7608270
  H       -2.9190420     1.5806020    -0.4540200
  H        1.8890940     0.8204890    -1.5196510
  H        1.9757950     1.7355060    -0.0222730
  H        3.3123780    -0.9936500    -0.4915720
  H        4.1482470     0.5747890    -0.4771690
  H        3.4100600    -0.0687260     1.0041520
units angstrom
no_reorient  #important for SAPT in psi4, default
symmetry c1  #important for SAPT in psi4, default
}

set PROPERTIES_ORIGIN ["COM"]
properties('MP2/aug-cc-pvtz', properties = ['dipole'])
--------------------------------------------------------------------------

    Molecular point group: c1
  Charge       = 0
  Multiplicity = 1
  Basis Set: AUG-CC-PVTZ
    Blend: AUG-CC-PVTZ
  Basis Set: (AUG-CC-PVTZ AUX)
    Blend: AUG-CC-PVTZ-JKFIT

    Orbital Energies [Eh]
    ---------------------

    Doubly Occupied:

       1A    -20.512838     2A    -15.578229     3A    -11.344741
       4A    -11.265117     5A    -11.240057     6A    -11.224680
       7A    -11.213275     8A    -11.211721     9A     -1.366610
      10A     -1.228020    11A     -1.066014    12A     -1.029753
      13A     -0.940268    14A     -0.887754    15A     -0.807804
      16A     -0.778326    17A     -0.682094    18A     -0.656906
      19A     -0.633879    20A     -0.614688    21A     -0.595243
      22A     -0.573598    23A     -0.550037    24A     -0.545808
      25A     -0.526375    26A     -0.512580    27A     -0.509082
      28A     -0.497145    29A     -0.487756    30A     -0.476565
      31A     -0.416449    32A     -0.384726

  @DF-RHF Final Energy:  -364.24891732032148

   => Energetics <=

    Nuclear Repulsion Energy =            392.4579893159002495
    One-Electron Energy =               -1272.6975365062278343
    Two-Electron Energy =                 515.9906298700060461
    Total Energy =                       -364.2489173203215387
  Basis Set: (AUG-CC-PVTZ AUX)
    Blend: AUG-CC-PVTZ-RI
    Molecular point group: c1

    Geometry (in Angstrom), charge = 0, multiplicity = 1:

       Center              X                  Y                   Z               Mass
    ------------   -----------------  -----------------  -----------------  -----------------
         O            0.868558025004    -1.129493604341     0.673903362321    15.994914619570
         N           -0.417127974996     0.588276395659    -0.102865637679    14.003074004430
         C           -1.680097974996    -0.057274604341     0.234370362321    12.000000000000
         C           -2.087377974996    -1.063993604341    -0.836479637679    12.000000000000
         C           -2.739171974996     1.010430395659     0.463531362321    12.000000000000
         C            0.780802025004    -0.041518604341     0.094508362321    12.000000000000
         C            1.992377025004     0.715758395659    -0.430735637679    12.000000000000
         C            3.296888025004     0.015767395659    -0.080320637679    12.000000000000
         H           -1.493192974996    -0.597764604341     1.166335362321     1.007825032230
         H           -0.434279874996     1.499910595659    -0.549107437679     1.007825032230
         H           -3.016812974996    -1.571877604341    -0.559304637679     1.007825032230
         H           -2.243467974996    -0.559077604341    -1.795860637679     1.007825032230
         H           -1.303669974996    -1.815119604341    -0.956142637679     1.007825032230
         H           -2.428816974996     1.705467395659     1.247938362321     1.007825032230
         H           -3.686447974996     0.551021395659     0.759334362321     1.007825032230
         H           -2.919120974996     1.579689395659    -0.455512637679     1.007825032230
         H            1.889015025004     0.819576395659    -1.521143637679     1.007825032230
         H            1.975716025004     1.734593395659    -0.023765637679     1.007825032230
         H            3.312299025004    -0.994562604341    -0.493064637679     1.007825032230
         H            4.148168025004     0.573876395659    -0.478661637679     1.007825032230
         H            3.409981025004    -0.069638604341     1.002659362321     1.007825032230

  Basis Set: AUG-CC-PVTZ
    Blend: AUG-CC-PVTZ
  Basis Set: (AUG-CC-PVTZ AUX)
    Blend: AUG-CC-PVTZ-JKFIT
	 Reference Energy          =    -364.2489173203214818 [Eh]
	 Singles Energy            =      -0.0000000000000000 [Eh]
	 Same-Spin Energy          =      -0.3758375052631105 [Eh]
	 Opposite-Spin Energy      =      -1.2752493444668442 [Eh]
	 Correlation Energy        =      -1.6510868497299547 [Eh]
	 Total Energy              =    -365.9000041700514316 [Eh]

	 ================> DF-SCS-MP2 Energies <==================
	-----------------------------------------------------------
	 SCS Same-Spin Scale       =       0.3333333333333333 [-]
	 SCS Opposite-Spin Scale   =       1.2000000000000000 [-]
	 SCS Same-Spin Energy      =      -0.1252791684210368 [Eh]
	 SCS Opposite-Spin Energy  =      -1.5302992133602131 [Eh]
	 SCS Correlation Energy    =      -1.6555783817812499 [Eh]
	 SCS Total Energy          =    -365.9044957021027358 [Eh]
	-----------------------------------------------------------

  Dipole Moment: [D]
     X:    -1.3086      Y:     2.8847      Z:    -1.4498     Total:     3.4837

*** Psi4 exiting successfully. Buy a developer a beer!
