                               Psi4 1.3.2 release

  ==> Input File <==

--------------------------------------------------------------------------
#psi4
#
memory 32 gb

molecule  {
0 1
  O        0.8686370    -1.1285810     0.6753960
  N       -0.4170490     0.5891890    -0.1013730
  C       -1.6800190    -0.0563620     0.2358630
  C       -2.0872990    -1.0630810    -0.8349870
  C       -2.7390930     1.0113430     0.4650240
  C        0.7808810    -0.0406060     0.0960010
  C        1.9924560     0.7166710    -0.4292430
  C        3.2969670     0.0166800    -0.0788280
  H       -1.4931140    -0.5968520     1.1678280
  H       -0.4319458     1.5268813    -0.5050015
  H       -3.0167340    -1.5709650    -0.5578120
  H       -2.2433890    -0.5581650    -1.7943680
  H       -1.3035910    -1.8142070    -0.9546500
  H       -2.4287380     1.7063800     1.2494310
  H       -3.6863690     0.5519340     0.7608270
  H       -2.9190420     1.5806020    -0.4540200
  H        1.8890940     0.8204890    -1.5196510
  H        1.9757950     1.7355060    -0.0222730
  H        3.3123780    -0.9936500    -0.4915720
  H        4.1482470     0.5747890    -0.4771690
  H        3.4100600    -0.0687260     1.0041520
units angstrom
no_reorient  #important for SAPT in psi4, default
symmetry c1  #important for SAPT in psi4, default
}

set PROPERTIES_ORIGIN ["COM"]
properties('MP2/aug-cc-pvtz', properties = ['dipole'])
--------------------------------------------------------------------------

    Molecular point group: c1
  Charge       = 0
  Multiplicity = 1
  Basis Set: AUG-CC-PVTZ
    Blend: AUG-CC-PVTZ
  Basis Set: (AUG-CC-PVTZ AUX)
    Blend: AUG-CC-PVTZ-JKFIT

    Orbital Energies [Eh]
    ---------------------

    Doubly Occupied:

       1A    -20.512916     2A    -15.578664     3A    -11.344739
       4A    -11.265081     5A    -11.239997     6A    -11.224912
       7A    -11.213225     8A    -11.211561     9A     -1.366586
      10A     -1.227318    11A     -1.065919    12A     -1.029618
      13A     -0.940330    14A     -0.887683    15A     -0.807499
      16A     -0.776962    17A     -0.681977    18A     -0.657490
      19A     -0.633469    20A     -0.614907    21A     -0.595561
      22A     -0.572272    23A     -0.550059    24A     -0.545880
      25A     -0.526587    26A     -0.512537    27A     -0.508895
      28A     -0.497191    29A     -0.487680    30A     -0.476393
      31A     -0.416373    32A     -0.384583

  @DF-RHF Final Energy:  -364.24841764901373

   => Energetics <=

    Nuclear Repulsion Energy =            392.4179843008813577
    One-Electron Energy =               -1272.6230732896976861
    Two-Electron Energy =                 515.9566713398025968
    Total Energy =                       -364.2484176490137315
  Basis Set: (AUG-CC-PVTZ AUX)
    Blend: AUG-CC-PVTZ-RI
    Molecular point group: c1

    Geometry (in Angstrom), charge = 0, multiplicity = 1:

       Center              X                  Y                   Z               Mass
    ------------   -----------------  -----------------  -----------------  -----------------
         O            0.868538279114    -1.129721771767     0.673530235847    15.994914619570
         N           -0.417147720886     0.588048228233    -0.103238764153    14.003074004430
         C           -1.680117720886    -0.057502771767     0.233997235847    12.000000000000
         C           -2.087397720886    -1.064221771767    -0.836852764153    12.000000000000
         C           -2.739191720886     1.010202228233     0.463158235847    12.000000000000
         C            0.780782279114    -0.041746771767     0.094135235847    12.000000000000
         C            1.992357279114     0.715530228233    -0.431108764153    12.000000000000
         C            3.296868279114     0.015539228233    -0.080693764153    12.000000000000
         H           -1.493212720886    -0.597992771767     1.165962235847     1.007825032230
         H           -0.432044520886     1.525740528233    -0.506867264153     1.007825032230
         H           -3.016832720886    -1.572105771767    -0.559677764153     1.007825032230
         H           -2.243487720886    -0.559305771767    -1.796233764153     1.007825032230
         H           -1.303689720886    -1.815347771767    -0.956515764153     1.007825032230
         H           -2.428836720886     1.705239228233     1.247565235847     1.007825032230
         H           -3.686467720886     0.550793228233     0.758961235847     1.007825032230
         H           -2.919140720886     1.579461228233    -0.455885764153     1.007825032230
         H            1.888995279114     0.819348228233    -1.521516764153     1.007825032230
         H            1.975696279114     1.734365228233    -0.024138764153     1.007825032230
         H            3.312279279114    -0.994790771767    -0.493437764153     1.007825032230
         H            4.148148279114     0.573648228233    -0.479034764153     1.007825032230
         H            3.409961279114    -0.069866771767     1.002286235847     1.007825032230

  Basis Set: AUG-CC-PVTZ
    Blend: AUG-CC-PVTZ
  Basis Set: (AUG-CC-PVTZ AUX)
    Blend: AUG-CC-PVTZ-JKFIT
	 Reference Energy          =    -364.2484176490137315 [Eh]
	 Singles Energy            =      -0.0000000000000000 [Eh]
	 Same-Spin Energy          =      -0.3758955219581693 [Eh]
	 Opposite-Spin Energy      =      -1.2753874331657284 [Eh]
	 Correlation Energy        =      -1.6512829551238979 [Eh]
	 Total Energy              =    -365.8997006041376494 [Eh]

	 ================> DF-SCS-MP2 Energies <==================
	-----------------------------------------------------------
	 SCS Same-Spin Scale       =       0.3333333333333333 [-]
	 SCS Opposite-Spin Scale   =       1.2000000000000000 [-]
	 SCS Same-Spin Energy      =      -0.1252985073193898 [Eh]
	 SCS Opposite-Spin Energy  =      -1.5304649197988740 [Eh]
	 SCS Correlation Energy    =      -1.6557634271182637 [Eh]
	 SCS Total Energy          =    -365.9041810761319766 [Eh]
	-----------------------------------------------------------

  Dipole Moment: [D]
     X:    -1.3078      Y:     2.9156      Z:    -1.3979     Total:     3.4879

*** Psi4 exiting successfully. Buy a developer a beer!
