                               Psi4 1.3.2 release

  ==> Input File <==

--------------------------------------------------------------------------
#psi4
#
memory 32 gb

molecule  {
0 1
  O        0.8686370    -1.1285810     0.6753960
  N       -0.4170490     0.5891890    -0.1013730
  C       -1.6800190    -0.0563620     0.2358630
  C       -2.0872990    -1.0630810    -0.8349870
  C       -2.7390930     1.0113430     0.4650240
  C        0.7808810    -0.0406060     0.0960010
  C        1.9924560     0.7166710    -0.4292430
  C        3.2969670     0.0166800    -0.0788280
  H       -1.4931140    -0.5968520     1.1678280
  H       -0.4387109     1.4487071    -0.6328414
  H       -3.0167340    -1.5709650    -0.5578120
  H       -2.2433890    -0.5581650    -1.7943680
  H       -1.3035910    -1.8142070    -0.9546500
  H       -2.4287380     1.7063800     1.2494310
  H       -3.6863690     0.5519340     0.7608270
  H       -2.9190420     1.5806020    -0.4540200
  H        1.8890940     0.8204890    -1.5196510
  H        1.9757950     1.7355060    -0.0222730
  H        3.3123780    -0.9936500    -0.4915720
  H        4.1482470     0.5747890    -0.4771690
  H        3.4100600    -0.0687260     1.0041520
units angstrom
no_reorient  #important for SAPT in psi4, default
symmetry c1  #important for SAPT in psi4, default
}

set PROPERTIES_ORIGIN ["COM"]
properties('MP2/aug-cc-pvtz', properties = ['dipole'])
--------------------------------------------------------------------------

    Molecular point group: c1
  Charge       = 0
  Multiplicity = 1
  Basis Set: AUG-CC-PVTZ
    Blend: AUG-CC-PVTZ
  Basis Set: (AUG-CC-PVTZ AUX)
    Blend: AUG-CC-PVTZ-JKFIT

    Orbital Energies [Eh]
    ---------------------

    Doubly Occupied:

       1A    -20.512964     2A    -15.577904     3A    -11.344783
       4A    -11.265097     5A    -11.240172     6A    -11.224132
       7A    -11.213381     8A    -11.212095     9A     -1.366791
      10A     -1.228782    11A     -1.066135    12A     -1.029886
      13A     -0.940101    14A     -0.887846    15A     -0.808181
      16A     -0.779380    17A     -0.682265    18A     -0.655410
      19A     -0.634693    20A     -0.614242    21A     -0.594448
      22A     -0.576080    23A     -0.549958    24A     -0.545623
      25A     -0.525960    26A     -0.512649    27A     -0.509312
      28A     -0.497021    29A     -0.487883    30A     -0.476903
      31A     -0.416750    32A     -0.385158

  @DF-RHF Final Energy:  -364.24937081148266

   => Energetics <=

    Nuclear Repulsion Energy =            392.5019627984660815
    One-Electron Energy =               -1272.7787005169827808
    Two-Electron Energy =                 516.0273669070339793
    Total Energy =                       -364.2493708114826632
  Basis Set: (AUG-CC-PVTZ AUX)
    Blend: AUG-CC-PVTZ-RI
    Molecular point group: c1

    Geometry (in Angstrom), charge = 0, multiplicity = 1:

       Center              X                  Y                   Z               Mass
    ------------   -----------------  -----------------  -----------------  -----------------
         O            0.868597515031    -1.129037270365     0.674649615269    15.994914619570
         N           -0.417088484969     0.588732729635    -0.102119384731    14.003074004430
         C           -1.680058484969    -0.056818270365     0.235116615269    12.000000000000
         C           -2.087338484969    -1.063537270365    -0.835733384731    12.000000000000
         C           -2.739132484969     1.010886729635     0.464277615269    12.000000000000
         C            0.780841515031    -0.041062270365     0.095254615269    12.000000000000
         C            1.992416515031     0.716214729635    -0.429989384731    12.000000000000
         C            3.296927515031     0.016223729635    -0.079574384731    12.000000000000
         H           -1.493153484969    -0.597308270365     1.167081615269     1.007825032230
         H           -0.438750384969     1.448250829635    -0.633587784731     1.007825032230
         H           -3.016773484969    -1.571421270365    -0.558558384731     1.007825032230
         H           -2.243428484969    -0.558621270365    -1.795114384731     1.007825032230
         H           -1.303630484969    -1.814663270365    -0.955396384731     1.007825032230
         H           -2.428777484969     1.705923729635     1.248684615269     1.007825032230
         H           -3.686408484969     0.551477729635     0.760080615269     1.007825032230
         H           -2.919081484969     1.580145729635    -0.454766384731     1.007825032230
         H            1.889054515031     0.820032729635    -1.520397384731     1.007825032230
         H            1.975755515031     1.735049729635    -0.023019384731     1.007825032230
         H            3.312338515031    -0.994106270365    -0.492318384731     1.007825032230
         H            4.148207515031     0.574332729635    -0.477915384731     1.007825032230
         H            3.410020515031    -0.069182270365     1.003405615269     1.007825032230

  Basis Set: AUG-CC-PVTZ
    Blend: AUG-CC-PVTZ
  Basis Set: (AUG-CC-PVTZ AUX)
    Blend: AUG-CC-PVTZ-JKFIT
	 Reference Energy          =    -364.2493708114826632 [Eh]
	 Singles Energy            =      -0.0000000000000000 [Eh]
	 Same-Spin Energy          =      -0.3757736219719561 [Eh]
	 Opposite-Spin Energy      =      -1.2751109979450512 [Eh]
	 Correlation Energy        =      -1.6508846199170073 [Eh]
	 Total Energy              =    -365.9002554313996711 [Eh]

	 ================> DF-SCS-MP2 Energies <==================
	-----------------------------------------------------------
	 SCS Same-Spin Scale       =       0.3333333333333333 [-]
	 SCS Opposite-Spin Scale   =       1.2000000000000000 [-]
	 SCS Same-Spin Energy      =      -0.1252578739906520 [Eh]
	 SCS Opposite-Spin Energy  =      -1.5301331975340615 [Eh]
	 SCS Correlation Energy    =      -1.6553910715247135 [Eh]
	 SCS Total Energy          =    -365.9047618830073816 [Eh]
	-----------------------------------------------------------

  Dipole Moment: [D]
     X:    -1.3046      Y:     2.8123      Z:    -1.5494     Total:     3.4658

*** Psi4 exiting successfully. Buy a developer a beer!
