                               Psi4 1.3.2 release

  ==> Input File <==

--------------------------------------------------------------------------
#psi4
#
memory 32 gb

molecule  {
0 1
  O        0.8686370    -1.1285810     0.6753960
  N       -0.4170490     0.5891890    -0.1013730
  C       -1.6800190    -0.0563620     0.2358630
  C       -2.0872990    -1.0630810    -0.8349870
  C       -2.7390930     1.0113430     0.4650240
  C        0.7808810    -0.0406060     0.0960010
  C        1.9782401     0.6464411    -0.5610218
  C        3.2969670     0.0166800    -0.0788280
  H       -1.4931140    -0.5968520     1.1678280
  H       -0.4432210     1.3965910    -0.7180680
  H       -3.0167340    -1.5709650    -0.5578120
  H       -2.2433890    -0.5581650    -1.7943680
  H       -1.3035910    -1.8142070    -0.9546500
  H       -2.4287380     1.7063800     1.2494310
  H       -3.6863690     0.5519340     0.7608270
  H       -2.9190420     1.5806020    -0.4540200
  H        1.8890940     0.8204890    -1.5196510
  H        1.9757950     1.7355060    -0.0222730
  H        3.3123780    -0.9936500    -0.4915720
  H        4.1482470     0.5747890    -0.4771690
  H        3.4100600    -0.0687260     1.0041520
units angstrom
no_reorient  #important for SAPT in psi4, default
symmetry c1  #important for SAPT in psi4, default
}

set PROPERTIES_ORIGIN ["COM"]
properties('MP2/aug-cc-pvtz', properties = ['dipole'])
--------------------------------------------------------------------------

    Molecular point group: c1
  Charge       = 0
  Multiplicity = 1
  Basis Set: AUG-CC-PVTZ
    Blend: AUG-CC-PVTZ
  Basis Set: (AUG-CC-PVTZ AUX)
    Blend: AUG-CC-PVTZ-JKFIT

    Orbital Energies [Eh]
    ---------------------

    Doubly Occupied:

       1A    -20.514079     2A    -15.578174     3A    -11.346857
       4A    -11.265046     5A    -11.242203     6A    -11.223290
       7A    -11.215789     8A    -11.212908     9A     -1.367601
      10A     -1.228690    11A     -1.065789    12A     -1.029224
      13A     -0.940010    14A     -0.888931    15A     -0.811108
      16A     -0.780515    17A     -0.692596    18A     -0.654191
      19A     -0.630035    20A     -0.610471    21A     -0.596851
      22A     -0.576520    23A     -0.552214    24A     -0.545153
      25A     -0.531475    26A     -0.521607    27A     -0.509200
      28A     -0.491680    29A     -0.482931    30A     -0.465694
      31A     -0.417091    32A     -0.384737

  @DF-RHF Final Energy:  -364.22526336193908

   => Energetics <=

    Nuclear Repulsion Energy =            392.3728173961989683
    One-Electron Energy =               -1272.4508404616606185
    Two-Electron Energy =                 515.8527597035224517
    Total Energy =                       -364.2252633619391418
  Basis Set: (AUG-CC-PVTZ AUX)
    Blend: AUG-CC-PVTZ-RI
    Molecular point group: c1

    Geometry (in Angstrom), charge = 0, multiplicity = 1:

       Center              X                  Y                   Z               Mass
    ------------   -----------------  -----------------  -----------------  -----------------
         O            0.870119119087    -1.121258947737     0.689134786798    15.994914619570
         N           -0.415566880913     0.596511052263    -0.087634213202    14.003074004430
         C           -1.678536880913    -0.049039947737     0.249601786798    12.000000000000
         C           -2.085816880913    -1.055758947737    -0.821248213202    12.000000000000
         C           -2.737610880913     1.018665052263     0.478762786798    12.000000000000
         C            0.782363119087    -0.033283947737     0.109739786798    12.000000000000
         C            1.979722219087     0.653763152263    -0.547283013202    12.000000000000
         C            3.298449119087     0.024002052263    -0.065089213202    12.000000000000
         H           -1.491631880913    -0.589529947737     1.181566786798     1.007825032230
         H           -0.441738880913     1.403913052263    -0.704329213202     1.007825032230
         H           -3.015251880913    -1.563642947737    -0.544073213202     1.007825032230
         H           -2.241906880913    -0.550842947737    -1.780629213202     1.007825032230
         H           -1.302108880913    -1.806884947737    -0.940911213202     1.007825032230
         H           -2.427255880913     1.713702052263     1.263169786798     1.007825032230
         H           -3.684886880913     0.559256052263     0.774565786798     1.007825032230
         H           -2.917559880913     1.587924052263    -0.440281213202     1.007825032230
         H            1.890576119087     0.827811052263    -1.505912213202     1.007825032230
         H            1.977277119087     1.742828052263    -0.008534213202     1.007825032230
         H            3.313860119087    -0.986327947737    -0.477833213202     1.007825032230
         H            4.149729119087     0.582111052263    -0.463430213202     1.007825032230
         H            3.411542119087    -0.061403947737     1.017890786798     1.007825032230

  Basis Set: AUG-CC-PVTZ
    Blend: AUG-CC-PVTZ
  Basis Set: (AUG-CC-PVTZ AUX)
    Blend: AUG-CC-PVTZ-JKFIT
	 Reference Energy          =    -364.2252633619390849 [Eh]
	 Singles Energy            =      -0.0000000000000000 [Eh]
	 Same-Spin Energy          =      -0.3760259131672121 [Eh]
	 Opposite-Spin Energy      =      -1.2762798363446439 [Eh]
	 Correlation Energy        =      -1.6523057495118560 [Eh]
	 Total Energy              =    -365.8775691114509527 [Eh]

	 ================> DF-SCS-MP2 Energies <==================
	-----------------------------------------------------------
	 SCS Same-Spin Scale       =       0.3333333333333333 [-]
	 SCS Opposite-Spin Scale   =       1.2000000000000000 [-]
	 SCS Same-Spin Energy      =      -0.1253419710557374 [Eh]
	 SCS Opposite-Spin Energy  =      -1.5315358036135727 [Eh]
	 SCS Correlation Energy    =      -1.6568777746693100 [Eh]
	 SCS Total Energy          =    -365.8821411366083680 [Eh]
	-----------------------------------------------------------

  Dipole Moment: [D]
     X:    -1.3027      Y:     2.6432      Z:    -1.6982     Total:     3.4011

*** Psi4 exiting successfully. Buy a developer a beer!
