                               Psi4 1.3.2 release

  ==> Input File <==

--------------------------------------------------------------------------
#psi4
#
memory 32 gb

molecule  {
0 1
  O        0.8686370    -1.1285810     0.6753960
  N       -0.4170490     0.5891890    -0.1013730
  C       -1.6800190    -0.0563620     0.2358630
  C       -2.0872990    -1.0630810    -0.8349870
  C       -2.7390930     1.0113430     0.4650240
  C        0.7808810    -0.0406060     0.0960010
  C        1.9735015     0.6230311    -0.6049481
  C        3.2969670     0.0166800    -0.0788280
  H       -1.4931140    -0.5968520     1.1678280
  H       -0.4432210     1.3965910    -0.7180680
  H       -3.0167340    -1.5709650    -0.5578120
  H       -2.2433890    -0.5581650    -1.7943680
  H       -1.3035910    -1.8142070    -0.9546500
  H       -2.4287380     1.7063800     1.2494310
  H       -3.6863690     0.5519340     0.7608270
  H       -2.9190420     1.5806020    -0.4540200
  H        1.8890940     0.8204890    -1.5196510
  H        1.9757950     1.7355060    -0.0222730
  H        3.3123780    -0.9936500    -0.4915720
  H        4.1482470     0.5747890    -0.4771690
  H        3.4100600    -0.0687260     1.0041520
units angstrom
no_reorient  #important for SAPT in psi4, default
symmetry c1  #important for SAPT in psi4, default
}

set PROPERTIES_ORIGIN ["COM"]
properties('MP2/aug-cc-pvtz', properties = ['dipole'])
--------------------------------------------------------------------------

    Molecular point group: c1
  Charge       = 0
  Multiplicity = 1
  Basis Set: AUG-CC-PVTZ
    Blend: AUG-CC-PVTZ
  Basis Set: (AUG-CC-PVTZ AUX)
    Blend: AUG-CC-PVTZ-JKFIT

    Orbital Energies [Eh]
    ---------------------

    Doubly Occupied:

       1A    -20.514570     2A    -15.578121     3A    -11.348374
       4A    -11.265099     5A    -11.244010     6A    -11.223231
       7A    -11.217356     8A    -11.213048     9A     -1.367959
      10A     -1.228751    11A     -1.065749    12A     -1.029232
      13A     -0.940060    14A     -0.889908    15A     -0.813537
      16A     -0.781838    17A     -0.698728    18A     -0.654184
      19A     -0.627347    20A     -0.608657    21A     -0.598212
      22A     -0.575645    23A     -0.554057    24A     -0.545101
      25A     -0.536637    26A     -0.522332    27A     -0.508117
      28A     -0.491415    29A     -0.482701    30A     -0.456217
      31A     -0.416576    32A     -0.384293

  @DF-RHF Final Energy:  -364.20579440624152

   => Energetics <=

    Nuclear Repulsion Energy =            392.2788951198797349
    One-Electron Energy =               -1272.2072569709500840
    Two-Electron Energy =                 515.7225674448287691
    Total Energy =                       -364.2057944062415800
  Basis Set: (AUG-CC-PVTZ AUX)
    Blend: AUG-CC-PVTZ-RI
    Molecular point group: c1

    Geometry (in Angstrom), charge = 0, multiplicity = 1:

       Center              X                  Y                   Z               Mass
    ------------   -----------------  -----------------  -----------------  -----------------
         O            0.870613153329    -1.118818281378     0.693714429801    15.994914619570
         N           -0.415072846671     0.598951718622    -0.083054570199    14.003074004430
         C           -1.678042846671    -0.046599281378     0.254181429801    12.000000000000
         C           -2.085322846671    -1.053318281378    -0.816668570199    12.000000000000
         C           -2.737116846671     1.021105718622     0.483342429801    12.000000000000
         C            0.782857153329    -0.030843281378     0.114319429801    12.000000000000
         C            1.975477653329     0.632793818622    -0.586629670199    12.000000000000
         C            3.298943153329     0.026442718622    -0.060509570199    12.000000000000
         H           -1.491137846671    -0.587089281378     1.186146429801     1.007825032230
         H           -0.441244846671     1.406353718622    -0.699749570199     1.007825032230
         H           -3.014757846671    -1.561202281378    -0.539493570199     1.007825032230
         H           -2.241412846671    -0.548402281378    -1.776049570199     1.007825032230
         H           -1.301614846671    -1.804444281378    -0.936331570199     1.007825032230
         H           -2.426761846671     1.716142718622     1.267749429801     1.007825032230
         H           -3.684392846671     0.561696718622     0.779145429801     1.007825032230
         H           -2.917065846671     1.590364718622    -0.435701570199     1.007825032230
         H            1.891070153329     0.830251718622    -1.501332570199     1.007825032230
         H            1.977771153329     1.745268718622    -0.003954570199     1.007825032230
         H            3.314354153329    -0.983887281378    -0.473253570199     1.007825032230
         H            4.150223153329     0.584551718622    -0.458850570199     1.007825032230
         H            3.412036153329    -0.058963281378     1.022470429801     1.007825032230

  Basis Set: AUG-CC-PVTZ
    Blend: AUG-CC-PVTZ
  Basis Set: (AUG-CC-PVTZ AUX)
    Blend: AUG-CC-PVTZ-JKFIT
	 Reference Energy          =    -364.2057944062415231 [Eh]
	 Singles Energy            =      -0.0000000000000000 [Eh]
	 Same-Spin Energy          =      -0.3762500032684334 [Eh]
	 Opposite-Spin Energy      =      -1.2771867820553837 [Eh]
	 Correlation Energy        =      -1.6534367853238172 [Eh]
	 Total Energy              =    -365.8592311915653568 [Eh]

	 ================> DF-SCS-MP2 Energies <==================
	-----------------------------------------------------------
	 SCS Same-Spin Scale       =       0.3333333333333333 [-]
	 SCS Opposite-Spin Scale   =       1.2000000000000000 [-]
	 SCS Same-Spin Energy      =      -0.1254166677561445 [Eh]
	 SCS Opposite-Spin Energy  =      -1.5326241384664605 [Eh]
	 SCS Correlation Energy    =      -1.6580408062226049 [Eh]
	 SCS Total Energy          =    -365.8638352124641528 [Eh]
	-----------------------------------------------------------

  Dipole Moment: [D]
     X:    -1.3040      Y:     2.6029      Z:    -1.7059     Total:     3.3742

*** Psi4 exiting successfully. Buy a developer a beer!
