                               Psi4 1.3.2 release

  ==> Input File <==

--------------------------------------------------------------------------
#psi4
#
memory 32 gb

molecule  {
0 1
  O        0.8686370    -1.1285810     0.6753960
  N       -0.4170490     0.5891890    -0.1013730
  C       -1.6800190    -0.0563620     0.2358630
  C       -2.0872990    -1.0630810    -0.8349870
  C       -2.7390930     1.0113430     0.4650240
  C        0.7808810    -0.0406060     0.0960010
  C        1.9829787     0.6698510    -0.5170956
  C        3.2969670     0.0166800    -0.0788280
  H       -1.4931140    -0.5968520     1.1678280
  H       -0.4432210     1.3965910    -0.7180680
  H       -3.0167340    -1.5709650    -0.5578120
  H       -2.2433890    -0.5581650    -1.7943680
  H       -1.3035910    -1.8142070    -0.9546500
  H       -2.4287380     1.7063800     1.2494310
  H       -3.6863690     0.5519340     0.7608270
  H       -2.9190420     1.5806020    -0.4540200
  H        1.8890940     0.8204890    -1.5196510
  H        1.9757950     1.7355060    -0.0222730
  H        3.3123780    -0.9936500    -0.4915720
  H        4.1482470     0.5747890    -0.4771690
  H        3.4100600    -0.0687260     1.0041520
units angstrom
no_reorient  #important for SAPT in psi4, default
symmetry c1  #important for SAPT in psi4, default
}

set PROPERTIES_ORIGIN ["COM"]
properties('MP2/aug-cc-pvtz', properties = ['dipole'])
--------------------------------------------------------------------------

    Molecular point group: c1
  Charge       = 0
  Multiplicity = 1
  Basis Set: AUG-CC-PVTZ
    Blend: AUG-CC-PVTZ
  Basis Set: (AUG-CC-PVTZ AUX)
    Blend: AUG-CC-PVTZ-JKFIT

    Orbital Energies [Eh]
    ---------------------

    Doubly Occupied:

       1A    -20.513731     2A    -15.578229     3A    -11.345764
       4A    -11.265005     5A    -11.240978     6A    -11.223353
       7A    -11.214611     8A    -11.212775     9A     -1.367346
      10A     -1.228652    11A     -1.065880    12A     -1.029336
      13A     -0.939966    14A     -0.888312    15A     -0.809471
      16A     -0.779408    17A     -0.687181    18A     -0.654148
      19A     -0.632726    20A     -0.611888    21A     -0.595581
      22A     -0.577265    23A     -0.551009    24A     -0.545228
      25A     -0.526690    26A     -0.519797    27A     -0.509906
      28A     -0.492155    29A     -0.484206    30A     -0.473567
      31A     -0.417334    32A     -0.385121

  @DF-RHF Final Energy:  -364.23880232081689

   => Energetics <=

    Nuclear Repulsion Energy =            392.4410961311122605
    One-Electron Energy =               -1272.6265621637014647
    Two-Electron Energy =                 515.9466637117723167
    Total Energy =                       -364.2388023208168306
  Basis Set: (AUG-CC-PVTZ AUX)
    Blend: AUG-CC-PVTZ-RI
    Molecular point group: c1

    Geometry (in Angstrom), charge = 0, multiplicity = 1:

       Center              X                  Y                   Z               Mass
    ------------   -----------------  -----------------  -----------------  -----------------
         O            0.869625084845    -1.123699603671     0.684555154221    15.994914619570
         N           -0.416060915155     0.594070396329    -0.092213845779    14.003074004430
         C           -1.679030915155    -0.051480603671     0.245022154221    12.000000000000
         C           -2.086310915155    -1.058199603671    -0.825827845779    12.000000000000
         C           -2.738104915155     1.016224396329     0.474183154221    12.000000000000
         C            0.781869084845    -0.035724603671     0.105160154221    12.000000000000
         C            1.983966784845     0.674732396329    -0.507936445779    12.000000000000
         C            3.297955084845     0.021561396329    -0.069668845779    12.000000000000
         H           -1.492125915155    -0.591970603671     1.176987154221     1.007825032230
         H           -0.442232915155     1.401472396329    -0.708908845779     1.007825032230
         H           -3.015745915155    -1.566083603671    -0.548652845779     1.007825032230
         H           -2.242400915155    -0.553283603671    -1.785208845779     1.007825032230
         H           -1.302602915155    -1.809325603671    -0.945490845779     1.007825032230
         H           -2.427749915155     1.711261396329     1.258590154221     1.007825032230
         H           -3.685380915155     0.556815396329     0.769986154221     1.007825032230
         H           -2.918053915155     1.585483396329    -0.444860845779     1.007825032230
         H            1.890082084845     0.825370396329    -1.510491845779     1.007825032230
         H            1.976783084845     1.740387396329    -0.013113845779     1.007825032230
         H            3.313366084845    -0.988768603671    -0.482412845779     1.007825032230
         H            4.149235084845     0.579670396329    -0.468009845779     1.007825032230
         H            3.411048084845    -0.063844603671     1.013311154221     1.007825032230

  Basis Set: AUG-CC-PVTZ
    Blend: AUG-CC-PVTZ
  Basis Set: (AUG-CC-PVTZ AUX)
    Blend: AUG-CC-PVTZ-JKFIT
	 Reference Energy          =    -364.2388023208168875 [Eh]
	 Singles Energy            =      -0.0000000000000000 [Eh]
	 Same-Spin Energy          =      -0.3758747971822010 [Eh]
	 Opposite-Spin Energy      =      -1.2756478728336007 [Eh]
	 Correlation Energy        =      -1.6515226700158017 [Eh]
	 Total Energy              =    -365.8903249908327098 [Eh]

	 ================> DF-SCS-MP2 Energies <==================
	-----------------------------------------------------------
	 SCS Same-Spin Scale       =       0.3333333333333333 [-]
	 SCS Opposite-Spin Scale   =       1.2000000000000000 [-]
	 SCS Same-Spin Energy      =      -0.1252915990607336 [Eh]
	 SCS Opposite-Spin Energy  =      -1.5307774474003208 [Eh]
	 SCS Correlation Energy    =      -1.6560690464610546 [Eh]
	 SCS Total Energy          =    -365.8948713672779149 [Eh]
	-----------------------------------------------------------

  Dipole Moment: [D]
     X:    -1.3006      Y:     2.6778      Z:    -1.6849     Total:     3.4207

*** Psi4 exiting successfully. Buy a developer a beer!
