                               Psi4 1.4a3.dev225

  ==> Input File <==

--------------------------------------------------------------------------
#psi4
#
memory 32 gb

molecule  {
0 1
  N       -1.0175820    -0.3767630     0.0000260
  N        0.0773163    -1.2462002    -0.0000269
  C       -0.6759380     0.9397300     0.0000060
  C        0.7089440     0.9680670    -0.0000050
  C        1.0983770    -0.3824860    -0.0000080
  H       -1.4207460     1.7232830     0.0000220
  H        1.3402470     1.8449540    -0.0000100
  H       -1.9477390    -0.7754960     0.0000400
  H        2.0958970    -0.8015150    -0.0000160
units angstrom
no_reorient  #important for SAPT in psi4, default
symmetry c1  #important for SAPT in psi4, default
}

set PROPERTIES_ORIGIN ["COM"]
properties('MP2/aug-cc-pvtz', properties = ['dipole'])
--------------------------------------------------------------------------

    Molecular point group: c1
  Charge       = 0
  Multiplicity = 1
  Basis Set: AUG-CC-PVTZ
    Blend: AUG-CC-PVTZ
  Basis Set: (AUG-CC-PVTZ AUX)
    Blend: AUG-CC-PVTZ-JKFIT

    Orbital Energies [Eh]
    ---------------------

    Doubly Occupied:

       1A    -15.638977     2A    -15.593617     3A    -11.287593
       4A    -11.258216     5A    -11.224755     6A     -1.353530
       7A     -1.098768     8A     -1.047212     9A     -0.823960
      10A     -0.792676    11A     -0.743405    12A     -0.601045
      13A     -0.597054    14A     -0.590498    15A     -0.564534
      16A     -0.467731    17A     -0.369856    18A     -0.345936

  @DF-RHF Final Energy:  -224.86994830769441

   => Energetics <=

    Nuclear Repulsion Energy =            161.7655584036307630
    One-Electron Energy =                -624.4722890507817965
    Two-Electron Energy =                 237.8367823394566472
    Total Energy =                       -224.8699483076944148
  Basis Set: (AUG-CC-PVTZ AUX)
    Blend: AUG-CC-PVTZ-RI
    Molecular point group: c1

    Geometry (in Angstrom), charge = 0, multiplicity = 1:

       Center              X                  Y                   Z               Mass
    ------------   -----------------  -----------------  -----------------  -----------------
         N           -1.024610103875    -0.341254108139     0.000026886586    14.003074004430
         N            0.070288196125    -1.210691308139    -0.000026013414    14.003074004430
         C           -0.682966103875     0.975238891861     0.000006886586    12.000000000000
         C            0.701915896125     1.003575891861    -0.000004113414    12.000000000000
         C            1.091348896125    -0.346977108139    -0.000007113414    12.000000000000
         H           -1.427774103875     1.758791891861     0.000022886586     1.007825032230
         H            1.333218896125     1.880462891861    -0.000009113414     1.007825032230
         H           -1.954767103875    -0.739987108139     0.000040886586     1.007825032230
         H            2.088868896125    -0.766006108139    -0.000015113414     1.007825032230

  Basis Set: AUG-CC-PVTZ
    Blend: AUG-CC-PVTZ
  Basis Set: (AUG-CC-PVTZ AUX)
    Blend: AUG-CC-PVTZ-JKFIT
	 Reference Energy          =    -224.8699483076944148 [Eh]
	 Singles Energy            =      -0.0000000000000000 [Eh]
	 Same-Spin Energy          =      -0.2456040892673295 [Eh]
	 Opposite-Spin Energy      =      -0.7471184550304838 [Eh]
	 Correlation Energy        =      -0.9927225442978133 [Eh]
	 Total Energy              =    -225.8626708519922204 [Eh]

	 ================> DF-SCS-MP2 Energies <==================
	-----------------------------------------------------------
	 SCS Same-Spin Scale       =       0.3333333333333333 [-]
	 SCS Opposite-Spin Scale   =       1.2000000000000000 [-]
	 SCS Same-Spin Energy      =      -0.0818680297557765 [Eh]
	 SCS Opposite-Spin Energy  =      -0.8965421460365806 [Eh]
	 SCS Correlation Energy    =      -0.9784101757923570 [Eh]
	 SCS Total Energy          =    -225.8483584834867770 [Eh]
	-----------------------------------------------------------

  Dipole Moment: [D]
     X:    -1.5053      Y:     1.7962      Z:     0.0001     Total:     2.3435

*** Psi4 exiting successfully. Buy a developer a beer!
