                               Psi4 1.3.2 release

  ==> Input File <==

--------------------------------------------------------------------------
#psi4
#
memory 32 gb

molecule  {
0 1
  N       -1.0175820    -0.3767630     0.0000260
  N        0.0381600    -1.2151070    -0.0000250
  C       -0.6759380     0.9397300     0.0000060
  C        0.7090893     0.9197181    -0.0000056
  C        1.0983770    -0.3824860    -0.0000080
  H       -1.4207460     1.7232830     0.0000220
  H        1.3402470     1.8449540    -0.0000100
  H       -1.9477390    -0.7754960     0.0000400
  H        2.0958970    -0.8015150    -0.0000160
units angstrom
no_reorient  #important for SAPT in psi4, default
symmetry c1  #important for SAPT in psi4, default
}

set PROPERTIES_ORIGIN ["COM"]
properties('MP2/aug-cc-pvtz', properties = ['dipole'])
--------------------------------------------------------------------------

    Molecular point group: c1
  Charge       = 0
  Multiplicity = 1
  Basis Set: AUG-CC-PVTZ
    Blend: AUG-CC-PVTZ
  Basis Set: (AUG-CC-PVTZ AUX)
    Blend: AUG-CC-PVTZ-JKFIT

    Orbital Energies [Eh]
    ---------------------

    Doubly Occupied:

       1A    -15.645406     2A    -15.588372     3A    -11.280786
       4A    -11.249864     5A    -11.223581     6A     -1.373987
       7A     -1.095113     8A     -1.055597     9A     -0.829473
      10A     -0.795819    11A     -0.742636    12A     -0.608366
      13A     -0.607632    14A     -0.588884    15A     -0.562309
      16A     -0.461948    17A     -0.370542    18A     -0.343615

  @DF-RHF Final Energy:  -224.86954743802036

   => Energetics <=

    Nuclear Repulsion Energy =            163.3301730404883187
    One-Electron Energy =                -627.5515836262195535
    Two-Electron Energy =                 239.3518631477108727
    Total Energy =                       -224.8695474380203621
  Basis Set: (AUG-CC-PVTZ AUX)
    Blend: AUG-CC-PVTZ-RI
    Molecular point group: c1

    Geometry (in Angstrom), charge = 0, multiplicity = 1:

       Center              X                  Y                   Z               Mass
    ------------   -----------------  -----------------  -----------------  -----------------
         N           -1.016576807777    -0.339126068018     0.000026601363    14.003074004430
         N            0.039165192223    -1.177470068018    -0.000024398637    14.003074004430
         C           -0.674932807777     0.977366931982     0.000006601363    12.000000000000
         C            0.710094492223     0.957355031982    -0.000004998637    12.000000000000
         C            1.099382192223    -0.344849068018    -0.000007398637    12.000000000000
         H           -1.419740807777     1.760919931982     0.000022601363     1.007825032230
         H            1.341252192223     1.882590931982    -0.000009398637     1.007825032230
         H           -1.946733807777    -0.737859068018     0.000040601363     1.007825032230
         H            2.096902192223    -0.763878068018    -0.000015398637     1.007825032230

  Basis Set: AUG-CC-PVTZ
    Blend: AUG-CC-PVTZ
  Basis Set: (AUG-CC-PVTZ AUX)
    Blend: AUG-CC-PVTZ-JKFIT
	 Reference Energy          =    -224.8695474380203621 [Eh]
	 Singles Energy            =      -0.0000000000000000 [Eh]
	 Same-Spin Energy          =      -0.2464324641545980 [Eh]
	 Opposite-Spin Energy      =      -0.7466566612692569 [Eh]
	 Correlation Energy        =      -0.9930891254238550 [Eh]
	 Total Energy              =    -225.8626365634442266 [Eh]

	 ================> DF-SCS-MP2 Energies <==================
	-----------------------------------------------------------
	 SCS Same-Spin Scale       =       0.3333333333333333 [-]
	 SCS Opposite-Spin Scale   =       1.2000000000000000 [-]
	 SCS Same-Spin Energy      =      -0.0821441547181993 [Eh]
	 SCS Opposite-Spin Energy  =      -0.8959879935231082 [Eh]
	 SCS Correlation Energy    =      -0.9781321482413076 [Eh]
	 SCS Total Energy          =    -225.8476795862616768 [Eh]
	-----------------------------------------------------------

  Dipole Moment: [D]
     X:    -1.5416      Y:     1.7499      Z:     0.0001     Total:     2.3321

*** Psi4 exiting successfully. Buy a developer a beer!
