                               Psi4 1.3.2 release

  ==> Input File <==

--------------------------------------------------------------------------
#psi4
#
memory 32 gb

molecule  {
0 1
  N       -1.0175820    -0.3767630     0.0000260
  N        0.0097478    -1.1775988    -0.0000243
  C       -0.6759380     0.9397300     0.0000060
  C        0.7089440     0.9680670    -0.0000050
  C        1.0983770    -0.3824860    -0.0000080
  H       -1.4207460     1.7232830     0.0000220
  H        1.3402470     1.8449540    -0.0000100
  H       -1.9477390    -0.7754960     0.0000400
  H        2.0958970    -0.8015150    -0.0000160
units angstrom
no_reorient  #important for SAPT in psi4, default
symmetry c1  #important for SAPT in psi4, default
}

set PROPERTIES_ORIGIN ["COM"]
properties('MP2/aug-cc-pvtz', properties = ['dipole'])
--------------------------------------------------------------------------

    Molecular point group: c1
  Charge       = 0
  Multiplicity = 1
  Basis Set: AUG-CC-PVTZ
    Blend: AUG-CC-PVTZ
  Basis Set: (AUG-CC-PVTZ AUX)
    Blend: AUG-CC-PVTZ-JKFIT

    Orbital Energies [Eh]
    ---------------------

    Doubly Occupied:

       1A    -15.646820     2A    -15.586691     3A    -11.276207
       4A    -11.252228     5A    -11.225370     6A     -1.391816
       7A     -1.089641     8A     -1.057085     9A     -0.826641
      10A     -0.805889    11A     -0.741525    12A     -0.617499
      13A     -0.615470    14A     -0.592714    15A     -0.563170
      16A     -0.455993    17A     -0.364172    18A     -0.343861

  @DF-RHF Final Energy:  -224.87404576700845

   => Energetics <=

    Nuclear Repulsion Energy =            163.6345693486562425
    One-Electron Energy =                -628.1116453063242488
    Two-Electron Energy =                 239.6030301906595810
    Total Energy =                       -224.8740457670084538
  Basis Set: (AUG-CC-PVTZ AUX)
    Blend: AUG-CC-PVTZ-RI
    Molecular point group: c1

    Geometry (in Angstrom), charge = 0, multiplicity = 1:

       Center              X                  Y                   Z               Mass
    ------------   -----------------  -----------------  -----------------  -----------------
         N           -1.010703546064    -0.355373251453     0.000026351469    14.003074004430
         N            0.016626253936    -1.156209051453    -0.000023948531    14.003074004430
         C           -0.669059546064     0.961119748547     0.000006351469    12.000000000000
         C            0.715822453936     0.989456748547    -0.000004648531    12.000000000000
         C            1.105255453936    -0.361096251453    -0.000007648531    12.000000000000
         H           -1.413867546064     1.744672748547     0.000022351469     1.007825032230
         H            1.347125453936     1.866343748547    -0.000009648531     1.007825032230
         H           -1.940860546064    -0.754106251453     0.000040351469     1.007825032230
         H            2.102775453936    -0.780125251453    -0.000015648531     1.007825032230

  Basis Set: AUG-CC-PVTZ
    Blend: AUG-CC-PVTZ
  Basis Set: (AUG-CC-PVTZ AUX)
    Blend: AUG-CC-PVTZ-JKFIT
	 Reference Energy          =    -224.8740457670084538 [Eh]
	 Singles Energy            =      -0.0000000000000000 [Eh]
	 Same-Spin Energy          =      -0.2457898761200380 [Eh]
	 Opposite-Spin Energy      =      -0.7447916760327712 [Eh]
	 Correlation Energy        =      -0.9905815521528092 [Eh]
	 Total Energy              =    -225.8646273191612579 [Eh]

	 ================> DF-SCS-MP2 Energies <==================
	-----------------------------------------------------------
	 SCS Same-Spin Scale       =       0.3333333333333333 [-]
	 SCS Opposite-Spin Scale   =       1.2000000000000000 [-]
	 SCS Same-Spin Energy      =      -0.0819299587066793 [Eh]
	 SCS Opposite-Spin Energy  =      -0.8937500112393254 [Eh]
	 SCS Correlation Energy    =      -0.9756799699460047 [Eh]
	 SCS Total Energy          =    -225.8497257369544684 [Eh]
	-----------------------------------------------------------

  Dipole Moment: [D]
     X:    -1.5362      Y:     1.6519      Z:     0.0001     Total:     2.2558

*** Psi4 exiting successfully. Buy a developer a beer!
