                               Psi4 1.3.2 release

  ==> Input File <==

--------------------------------------------------------------------------
#psi4
#
memory 32 gb

molecule  {
0 1
  N       -1.0175820    -0.3767630     0.0000260
  N        0.0381600    -1.2151070    -0.0000250
  C       -0.6759380     0.9397300     0.0000060
  C        0.7089440     0.9680670    -0.0000050
  C        1.1537895    -0.5746564    -0.0000084
  H       -1.4207460     1.7232830     0.0000220
  H        1.3402470     1.8449540    -0.0000100
  H       -1.9477390    -0.7754960     0.0000400
  H        2.0958970    -0.8015150    -0.0000160
units angstrom
no_reorient  #important for SAPT in psi4, default
symmetry c1  #important for SAPT in psi4, default
}

set PROPERTIES_ORIGIN ["COM"]
properties('MP2/aug-cc-pvtz', properties = ['dipole'])
--------------------------------------------------------------------------

    Molecular point group: c1
  Charge       = 0
  Multiplicity = 1
  Basis Set: AUG-CC-PVTZ
    Blend: AUG-CC-PVTZ
  Basis Set: (AUG-CC-PVTZ AUX)
    Blend: AUG-CC-PVTZ-JKFIT

    Orbital Energies [Eh]
    ---------------------

    Doubly Occupied:

       1A    -15.634214     2A    -15.596464     3A    -11.280107
       4A    -11.264337     5A    -11.233249     6A     -1.368591
       7A     -1.113141     8A     -1.024796     9A     -0.832745
      10A     -0.804345    11A     -0.734478    12A     -0.657243
      13A     -0.603365    14A     -0.583761    15A     -0.554604
      16A     -0.430927    17A     -0.376949    18A     -0.333042

  @DF-RHF Final Energy:  -224.83764254147636

   => Energetics <=

    Nuclear Repulsion Energy =            160.9880708598113301
    One-Electron Energy =                -622.7987122662897264
    Two-Electron Energy =                 236.9729988650020402
    Total Energy =                       -224.8376425414763560
  Basis Set: (AUG-CC-PVTZ AUX)
    Blend: AUG-CC-PVTZ-RI
    Molecular point group: c1

    Geometry (in Angstrom), charge = 0, multiplicity = 1:

       Center              X                  Y                   Z               Mass
    ------------   -----------------  -----------------  -----------------  -----------------
         N           -1.026324474954    -0.313759772731     0.000026566089    14.003074004430
         N            0.029417525046    -1.152103772731    -0.000024433911    14.003074004430
         C           -0.684680474954     1.002733227269     0.000006566089    12.000000000000
         C            0.700201525046     1.031070227269    -0.000004433911    12.000000000000
         C            1.145047025046    -0.511653172731    -0.000007833911    12.000000000000
         H           -1.429488474954     1.786286227269     0.000022566089     1.007825032230
         H            1.331504525046     1.907957227269    -0.000009433911     1.007825032230
         H           -1.956481474954    -0.712492772731     0.000040566089     1.007825032230
         H            2.087154525046    -0.738511772731    -0.000015433911     1.007825032230

  Basis Set: AUG-CC-PVTZ
    Blend: AUG-CC-PVTZ
  Basis Set: (AUG-CC-PVTZ AUX)
    Blend: AUG-CC-PVTZ-JKFIT
	 Reference Energy          =    -224.8376425414763560 [Eh]
	 Singles Energy            =      -0.0000000000000000 [Eh]
	 Same-Spin Energy          =      -0.2432204941649556 [Eh]
	 Opposite-Spin Energy      =      -0.7446291931543760 [Eh]
	 Correlation Energy        =      -0.9878496873193316 [Eh]
	 Total Energy              =    -225.8254922287956958 [Eh]

	 ================> DF-SCS-MP2 Energies <==================
	-----------------------------------------------------------
	 SCS Same-Spin Scale       =       0.3333333333333333 [-]
	 SCS Opposite-Spin Scale   =       1.2000000000000000 [-]
	 SCS Same-Spin Energy      =      -0.0810734980549852 [Eh]
	 SCS Opposite-Spin Energy  =      -0.8935550317852512 [Eh]
	 SCS Correlation Energy    =      -0.9746285298402364 [Eh]
	 SCS Total Energy          =    -225.8122710713165873 [Eh]
	-----------------------------------------------------------

  Dipole Moment: [D]
     X:    -1.3725      Y:     1.4646      Z:     0.0001     Total:     2.0072

*** Psi4 exiting successfully. Buy a developer a beer!
