                               Psi4 1.3.2 release

  ==> Input File <==

--------------------------------------------------------------------------
#psi4
#
memory 32 gb

molecule  {
0 1
  N       -1.0175820    -0.3767630     0.0000260
  N        0.0381600    -1.2151070    -0.0000250
  C       -0.6653894     0.7951256     0.0000059
  C        0.7089440     0.9680670    -0.0000050
  C        1.0983770    -0.3824860    -0.0000080
  H       -1.4207460     1.7232830     0.0000220
  H        1.3402470     1.8449540    -0.0000100
  H       -1.9477390    -0.7754960     0.0000400
  H        2.0958970    -0.8015150    -0.0000160
units angstrom
no_reorient  #important for SAPT in psi4, default
symmetry c1  #important for SAPT in psi4, default
}

set PROPERTIES_ORIGIN ["COM"]
properties('MP2/aug-cc-pvtz', properties = ['dipole'])
--------------------------------------------------------------------------

    Molecular point group: c1
  Charge       = 0
  Multiplicity = 1
  Basis Set: AUG-CC-PVTZ
    Blend: AUG-CC-PVTZ
  Basis Set: (AUG-CC-PVTZ AUX)
    Blend: AUG-CC-PVTZ-JKFIT

    Orbital Energies [Eh]
    ---------------------

    Doubly Occupied:

       1A    -15.646555     2A    -15.575712     3A    -11.280710
       4A    -11.256442     5A    -11.216066     6A     -1.408642
       7A     -1.117329     8A     -1.051476     9A     -0.836728
      10A     -0.811294    11A     -0.730509    12A     -0.633320
      13A     -0.625114    14A     -0.591318    15A     -0.525604
      16A     -0.456156    17A     -0.378975    18A     -0.339230

  @DF-RHF Final Energy:  -224.84825331371934

   => Energetics <=

    Nuclear Repulsion Energy =            165.2374262683892709
    One-Electron Energy =                -631.2090005059650366
    Two-Electron Energy =                 241.1233209238563973
    Total Energy =                       -224.8482533137193400
  Basis Set: (AUG-CC-PVTZ AUX)
    Blend: AUG-CC-PVTZ-RI
    Molecular point group: c1

    Geometry (in Angstrom), charge = 0, multiplicity = 1:

       Center              X                  Y                   Z               Mass
    ------------   -----------------  -----------------  -----------------  -----------------
         N           -1.018411673773    -0.322149152633     0.000026513177    14.003074004430
         N            0.037330326227    -1.160493152633    -0.000024486823    14.003074004430
         C           -0.666219073773     0.849739447367     0.000006413177    12.000000000000
         C            0.708114326227     1.022680847367    -0.000004486823    12.000000000000
         C            1.097547326227    -0.327872152633    -0.000007486823    12.000000000000
         H           -1.421575673773     1.777896847367     0.000022513177     1.007825032230
         H            1.339417326227     1.899567847367    -0.000009486823     1.007825032230
         H           -1.948568673773    -0.720882152633     0.000040513177     1.007825032230
         H            2.095067326227    -0.746901152633    -0.000015486823     1.007825032230

  Basis Set: AUG-CC-PVTZ
    Blend: AUG-CC-PVTZ
  Basis Set: (AUG-CC-PVTZ AUX)
    Blend: AUG-CC-PVTZ-JKFIT
	 Reference Energy          =    -224.8482533137193400 [Eh]
	 Singles Energy            =      -0.0000000000000000 [Eh]
	 Same-Spin Energy          =      -0.2449355415575656 [Eh]
	 Opposite-Spin Energy      =      -0.7429043741488615 [Eh]
	 Correlation Energy        =      -0.9878399157064270 [Eh]
	 Total Energy              =    -225.8360932294257566 [Eh]

	 ================> DF-SCS-MP2 Energies <==================
	-----------------------------------------------------------
	 SCS Same-Spin Scale       =       0.3333333333333333 [-]
	 SCS Opposite-Spin Scale   =       1.2000000000000000 [-]
	 SCS Same-Spin Energy      =      -0.0816451805191885 [Eh]
	 SCS Opposite-Spin Energy  =      -0.8914852489786337 [Eh]
	 SCS Correlation Energy    =      -0.9731304294978222 [Eh]
	 SCS Total Energy          =    -225.8213837432171545 [Eh]
	-----------------------------------------------------------

  Dipole Moment: [D]
     X:    -1.6949      Y:     1.6674      Z:     0.0001     Total:     2.3776

*** Psi4 exiting successfully. Buy a developer a beer!
