                               Psi4 1.4a3.dev225

  ==> Input File <==

--------------------------------------------------------------------------
#psi4
#
memory 32 gb

molecule  {
0 1
  N       -1.0175820    -0.3767630     0.0000260
  N        0.0381600    -1.2151070    -0.0000250
  C       -0.6759380     0.9397300     0.0000060
  C        0.7089440     0.9680670    -0.0000050
  C        1.0983770    -0.3824860    -0.0000080
  H       -1.4207460     1.7232830     0.0000220
  H        1.3285616     1.8287228    -0.0000099
  H       -1.9477390    -0.7754960     0.0000400
  H        2.0958970    -0.8015150    -0.0000160
units angstrom
no_reorient  #important for SAPT in psi4, default
symmetry c1  #important for SAPT in psi4, default
}

set PROPERTIES_ORIGIN ["COM"]
properties('MP2/aug-cc-pvtz', properties = ['dipole'])
--------------------------------------------------------------------------

    Molecular point group: c1
  Charge       = 0
  Multiplicity = 1
  Basis Set: AUG-CC-PVTZ
    Blend: AUG-CC-PVTZ
  Basis Set: (AUG-CC-PVTZ AUX)
    Blend: AUG-CC-PVTZ-JKFIT

    Orbital Energies [Eh]
    ---------------------

    Doubly Occupied:

       1A    -15.643391     2A    -15.590440     3A    -11.281922
       4A    -11.255555     5A    -11.223127     6A     -1.371490
       7A     -1.092351     8A     -1.053307     9A     -0.825869
      10A     -0.800031    11A     -0.743373    12A     -0.608526
      13A     -0.605547    14A     -0.595767    15A     -0.564094
      16A     -0.462708    17A     -0.364802    18A     -0.346155

  @DF-RHF Final Energy:  -224.87359473523298

   => Energetics <=

    Nuclear Repulsion Energy =            162.7040954980498100
    One-Electron Energy =                -626.2984676481811448
    Two-Electron Energy =                 238.7207774148983503
    Total Energy =                       -224.8735947352329845
  Basis Set: (AUG-CC-PVTZ AUX)
    Blend: AUG-CC-PVTZ-RI
    Molecular point group: c1

    Geometry (in Angstrom), charge = 0, multiplicity = 1:

       Center              X                  Y                   Z               Mass
    ------------   -----------------  -----------------  -----------------  -----------------
         N           -1.016378087235    -0.347413101200     0.000026494058    14.003074004430
         N            0.039363912765    -1.185757101200    -0.000024505942    14.003074004430
         C           -0.674734087235     0.969079898800     0.000006494058    12.000000000000
         C            0.710147912765     0.997416898800    -0.000004505942    12.000000000000
         C            1.099580912765    -0.353136101200    -0.000007505942    12.000000000000
         H           -1.419542087235     1.752632898800     0.000022494058     1.007825032230
         H            1.329765512765     1.858072698800    -0.000009405942     1.007825032230
         H           -1.946535087235    -0.746146101200     0.000040494058     1.007825032230
         H            2.097100912765    -0.772165101200    -0.000015505942     1.007825032230

  Basis Set: AUG-CC-PVTZ
    Blend: AUG-CC-PVTZ
  Basis Set: (AUG-CC-PVTZ AUX)
    Blend: AUG-CC-PVTZ-JKFIT
	 Reference Energy          =    -224.8735947352329845 [Eh]
	 Singles Energy            =      -0.0000000000000000 [Eh]
	 Same-Spin Energy          =      -0.2458163527165292 [Eh]
	 Opposite-Spin Energy      =      -0.7461040108979601 [Eh]
	 Correlation Energy        =      -0.9919203636144892 [Eh]
	 Total Energy              =    -225.8655150988474816 [Eh]

	 ================> DF-SCS-MP2 Energies <==================
	-----------------------------------------------------------
	 SCS Same-Spin Scale       =       0.3333333333333333 [-]
	 SCS Opposite-Spin Scale   =       1.2000000000000000 [-]
	 SCS Same-Spin Energy      =      -0.0819387842388430 [Eh]
	 SCS Opposite-Spin Energy  =      -0.8953248130775521 [Eh]
	 SCS Correlation Energy    =      -0.9772635973163951 [Eh]
	 SCS Total Energy          =    -225.8508583325493930 [Eh]
	-----------------------------------------------------------

  Dipole Moment: [D]
     X:    -1.5226      Y:     1.7414      Z:     0.0001     Total:     2.3131

*** Psi4 exiting successfully. Buy a developer a beer!
