                               Psi4 1.4a3.dev225

  ==> Input File <==

--------------------------------------------------------------------------
#psi4
#
memory 32 gb

molecule  {
0 1
  N       -1.0175820    -0.3767630     0.0000260
  N        0.0381600    -1.2151070    -0.0000250
  C       -0.6759380     0.9397300     0.0000060
  C        0.7089440     0.9680670    -0.0000050
  C        1.0983770    -0.3824860    -0.0000080
  H       -1.4207460     1.7232830     0.0000220
  H        1.3519324     1.8611852    -0.0000101
  H       -1.9477390    -0.7754960     0.0000400
  H        2.0958970    -0.8015150    -0.0000160
units angstrom
no_reorient  #important for SAPT in psi4, default
symmetry c1  #important for SAPT in psi4, default
}

set PROPERTIES_ORIGIN ["COM"]
properties('MP2/aug-cc-pvtz', properties = ['dipole'])
--------------------------------------------------------------------------

    Molecular point group: c1
  Charge       = 0
  Multiplicity = 1
  Basis Set: AUG-CC-PVTZ
    Blend: AUG-CC-PVTZ
  Basis Set: (AUG-CC-PVTZ AUX)
    Blend: AUG-CC-PVTZ-JKFIT

    Orbital Energies [Eh]
    ---------------------

    Doubly Occupied:

       1A    -15.643597     2A    -15.590696     3A    -11.282208
       4A    -11.255885     5A    -11.227663     6A     -1.371751
       7A     -1.092564     8A     -1.052330     9A     -0.824173
      10A     -0.798264    11A     -0.742129    12A     -0.607543
      13A     -0.605798    14A     -0.589129    15A     -0.564039
      16A     -0.462687    17A     -0.364996    18A     -0.346344

  @DF-RHF Final Energy:  -224.87285331005253

   => Energetics <=

    Nuclear Repulsion Energy =            162.5192299945482830
    One-Electron Energy =                -625.9405702406224918
    Two-Electron Energy =                 238.5484869360217033
    Total Energy =                       -224.8728533100525340
  Basis Set: (AUG-CC-PVTZ AUX)
    Blend: AUG-CC-PVTZ-RI
    Molecular point group: c1

    Geometry (in Angstrom), charge = 0, multiplicity = 1:

       Center              X                  Y                   Z               Mass
    ------------   -----------------  -----------------  -----------------  -----------------
         N           -1.016724274193    -0.347893960201     0.000026497021    14.003074004430
         N            0.039017725807    -1.186237960201    -0.000024502979    14.003074004430
         C           -0.675080274193     0.968599039799     0.000006497021    12.000000000000
         C            0.709801725807     0.996936039799    -0.000004502979    12.000000000000
         C            1.099234725807    -0.353616960201    -0.000007502979    12.000000000000
         H           -1.419888274193     1.752152039799     0.000022497021     1.007825032230
         H            1.352790125807     1.890054239799    -0.000009602979     1.007825032230
         H           -1.946881274193    -0.746626960201     0.000040497021     1.007825032230
         H            2.096754725807    -0.772645960201    -0.000015502979     1.007825032230

  Basis Set: AUG-CC-PVTZ
    Blend: AUG-CC-PVTZ
  Basis Set: (AUG-CC-PVTZ AUX)
    Blend: AUG-CC-PVTZ-JKFIT
	 Reference Energy          =    -224.8728533100525340 [Eh]
	 Singles Energy            =      -0.0000000000000000 [Eh]
	 Same-Spin Energy          =      -0.2458723499676314 [Eh]
	 Opposite-Spin Energy      =      -0.7463085318265693 [Eh]
	 Correlation Energy        =      -0.9921808817942007 [Eh]
	 Total Energy              =    -225.8650341918467461 [Eh]

	 ================> DF-SCS-MP2 Energies <==================
	-----------------------------------------------------------
	 SCS Same-Spin Scale       =       0.3333333333333333 [-]
	 SCS Opposite-Spin Scale   =       1.2000000000000000 [-]
	 SCS Same-Spin Energy      =      -0.0819574499892105 [Eh]
	 SCS Opposite-Spin Energy  =      -0.8955702381918832 [Eh]
	 SCS Correlation Energy    =      -0.9775276881810937 [Eh]
	 SCS Total Energy          =    -225.8503809982336179 [Eh]
	-----------------------------------------------------------

  Dipole Moment: [D]
     X:    -1.5228      Y:     1.7381      Z:     0.0001     Total:     2.3108

*** Psi4 exiting successfully. Buy a developer a beer!
