                               Psi4 1.3.2 release

  ==> Input File <==

--------------------------------------------------------------------------
#psi4
#
memory 32 gb

molecule  {
0 1
  N       -1.0027901    -0.3584654     0.0000265
  N        0.0381600    -1.2151070    -0.0000250
  C       -0.6759380     0.9397300     0.0000060
  C        0.7089440     0.9680670    -0.0000050
  C        1.0983770    -0.3824860    -0.0000080
  H       -1.4207460     1.7232830     0.0000220
  H        1.3402470     1.8449540    -0.0000100
  H       -1.9477390    -0.7754960     0.0000400
  H        2.0958970    -0.8015150    -0.0000160
units angstrom
no_reorient  #important for SAPT in psi4, default
symmetry c1  #important for SAPT in psi4, default
}

set PROPERTIES_ORIGIN ["COM"]
properties('MP2/aug-cc-pvtz', properties = ['dipole'])
--------------------------------------------------------------------------

    Molecular point group: c1
  Charge       = 0
  Multiplicity = 1
  Basis Set: AUG-CC-PVTZ
    Blend: AUG-CC-PVTZ
  Basis Set: (AUG-CC-PVTZ AUX)
    Blend: AUG-CC-PVTZ-JKFIT

    Orbital Energies [Eh]
    ---------------------

    Doubly Occupied:

       1A    -15.645145     2A    -15.589346     3A    -11.280417
       4A    -11.255174     5A    -11.223370     6A     -1.375722
       7A     -1.095252     8A     -1.051880     9A     -0.820546
      10A     -0.800089    11A     -0.745073    12A     -0.609073
      13A     -0.600975    14A     -0.593458    15A     -0.563823
      16A     -0.464880    17A     -0.365025    18A     -0.346057

  @DF-RHF Final Energy:  -224.87251183341209

   => Energetics <=

    Nuclear Repulsion Energy =            163.0034964923395933
    One-Electron Energy =                -626.9014088548744894
    Two-Electron Energy =                 239.0254005291228054
    Total Energy =                       -224.8725118334120907
  Basis Set: (AUG-CC-PVTZ AUX)
    Blend: AUG-CC-PVTZ-RI
    Molecular point group: c1

    Geometry (in Angstrom), charge = 0, multiplicity = 1:

       Center              X                  Y                   Z               Mass
    ------------   -----------------  -----------------  -----------------  -----------------
         N           -1.004803664006    -0.333121836887     0.000026892632    14.003074004430
         N            0.036146435994    -1.189763436887    -0.000024607368    14.003074004430
         C           -0.677951564006     0.965073563113     0.000006392632    12.000000000000
         C            0.706930435994     0.993410563113    -0.000004607368    12.000000000000
         C            1.096363435994    -0.357142436887    -0.000007607368    12.000000000000
         H           -1.422759564006     1.748626563113     0.000022392632     1.007825032230
         H            1.338233435994     1.870297563113    -0.000009607368     1.007825032230
         H           -1.949752564006    -0.750152436887     0.000040392632     1.007825032230
         H            2.093883435994    -0.776171436887    -0.000015607368     1.007825032230

  Basis Set: AUG-CC-PVTZ
    Blend: AUG-CC-PVTZ
  Basis Set: (AUG-CC-PVTZ AUX)
    Blend: AUG-CC-PVTZ-JKFIT
	 Reference Energy          =    -224.8725118334120907 [Eh]
	 Singles Energy            =      -0.0000000000000000 [Eh]
	 Same-Spin Energy          =      -0.2460030893302855 [Eh]
	 Opposite-Spin Energy      =      -0.7461518755129444 [Eh]
	 Correlation Energy        =      -0.9921549648432298 [Eh]
	 Total Energy              =    -225.8646667982553140 [Eh]

	 ================> DF-SCS-MP2 Energies <==================
	-----------------------------------------------------------
	 SCS Same-Spin Scale       =       0.3333333333333333 [-]
	 SCS Opposite-Spin Scale   =       1.2000000000000000 [-]
	 SCS Same-Spin Energy      =      -0.0820010297767618 [Eh]
	 SCS Opposite-Spin Energy  =      -0.8953822506155332 [Eh]
	 SCS Correlation Energy    =      -0.9773832803922951 [Eh]
	 SCS Total Energy          =    -225.8498951138043935 [Eh]
	-----------------------------------------------------------

  Dipole Moment: [D]
     X:    -1.5766      Y:     1.7266      Z:     0.0001     Total:     2.3382

*** Psi4 exiting successfully. Buy a developer a beer!
