                               Psi4 1.3.2 release

  ==> Input File <==

--------------------------------------------------------------------------
#psi4
#
memory 32 gb

molecule  {
0 1
  N       -1.0175820    -0.3767630     0.0000260
  N        0.0381600    -1.2151070    -0.0000250
  C       -0.6508190     1.0365238     0.0000045
  C        0.7089440     0.9680670    -0.0000050
  C        1.0983770    -0.3824860    -0.0000080
  H       -1.4207460     1.7232830     0.0000220
  H        1.3402470     1.8449540    -0.0000100
  H       -1.9477390    -0.7754960     0.0000400
  H        2.0958970    -0.8015150    -0.0000160
units angstrom
no_reorient  #important for SAPT in psi4, default
symmetry c1  #important for SAPT in psi4, default
}

set PROPERTIES_ORIGIN ["COM"]
properties('MP2/aug-cc-pvtz', properties = ['dipole'])
--------------------------------------------------------------------------

    Molecular point group: c1
  Charge       = 0
  Multiplicity = 1
  Basis Set: AUG-CC-PVTZ
    Blend: AUG-CC-PVTZ
  Basis Set: (AUG-CC-PVTZ AUX)
    Blend: AUG-CC-PVTZ-JKFIT

    Orbital Energies [Eh]
    ---------------------

    Doubly Occupied:

       1A    -15.636943     2A    -15.600895     3A    -11.283127
       4A    -11.255427     5A    -11.231333     6A     -1.355089
       7A     -1.075970     8A     -1.059233     9A     -0.826693
      10A     -0.795039    11A     -0.738874    12A     -0.619218
      13A     -0.592540    14A     -0.580107    15A     -0.573038
      16A     -0.464918    17A     -0.365592    18A     -0.345935

  @DF-RHF Final Energy:  -224.85921692878821

   => Energetics <=

    Nuclear Repulsion Energy =            161.3374025206099418
    One-Electron Energy =                -623.5932999234278213
    Two-Electron Energy =                 237.3966804740296652
    Total Energy =                       -224.8592169287882143
  Basis Set: (AUG-CC-PVTZ AUX)
    Blend: AUG-CC-PVTZ-RI
    Molecular point group: c1

    Geometry (in Angstrom), charge = 0, multiplicity = 1:

       Center              X                  Y                   Z               Mass
    ------------   -----------------  -----------------  -----------------  -----------------
         N           -1.020981505605    -0.364725387917     0.000026760099    14.003074004430
         N            0.034760494395    -1.203069387917    -0.000024239901    14.003074004430
         C           -0.654218505605     1.048561412083     0.000005260099    12.000000000000
         C            0.705544494395     0.980104612083    -0.000004239901    12.000000000000
         C            1.094977494395    -0.370448387917    -0.000007239901    12.000000000000
         H           -1.424145505605     1.735320612083     0.000022760099     1.007825032230
         H            1.336847494395     1.856991612083    -0.000009239901     1.007825032230
         H           -1.951138505605    -0.763458387917     0.000040760099     1.007825032230
         H            2.092497494395    -0.789477387917    -0.000015239901     1.007825032230

  Basis Set: AUG-CC-PVTZ
    Blend: AUG-CC-PVTZ
  Basis Set: (AUG-CC-PVTZ AUX)
    Blend: AUG-CC-PVTZ-JKFIT
	 Reference Energy          =    -224.8592169287882143 [Eh]
	 Singles Energy            =      -0.0000000000000000 [Eh]
	 Same-Spin Energy          =      -0.2465041936044819 [Eh]
	 Opposite-Spin Energy      =      -0.7489307912604162 [Eh]
	 Correlation Energy        =      -0.9954349848648981 [Eh]
	 Total Energy              =    -225.8546519136531003 [Eh]

	 ================> DF-SCS-MP2 Energies <==================
	-----------------------------------------------------------
	 SCS Same-Spin Scale       =       0.3333333333333333 [-]
	 SCS Opposite-Spin Scale   =       1.2000000000000000 [-]
	 SCS Same-Spin Energy      =      -0.0821680645348273 [Eh]
	 SCS Opposite-Spin Energy  =      -0.8987169495124994 [Eh]
	 SCS Correlation Energy    =      -0.9808850140473266 [Eh]
	 SCS Total Energy          =    -225.8401019428355312 [Eh]
	-----------------------------------------------------------

  Dipole Moment: [D]
     X:    -1.3789      Y:     1.8033      Z:     0.0001     Total:     2.2701

*** Psi4 exiting successfully. Buy a developer a beer!
