                               Psi4 1.3.2 release

  ==> Input File <==

--------------------------------------------------------------------------
#psi4
#
memory 32 gb

molecule  {
0 1
  N       -1.0175820    -0.3767630     0.0000260
  N        0.0381600    -1.2151070    -0.0000250
  C       -0.6759380     0.9397300     0.0000060
  C        0.7089440     0.9680670    -0.0000050
  C        1.0983770    -0.3824860    -0.0000080
  H       -1.4207460     1.7232830     0.0000220
  H        1.3402470     1.8449540    -0.0000100
  H       -1.9477390    -0.7754960     0.0000400
  H        1.9115052    -0.7240574    -0.0000145
units angstrom
no_reorient  #important for SAPT in psi4, default
symmetry c1  #important for SAPT in psi4, default
}

set PROPERTIES_ORIGIN ["COM"]
properties('MP2/aug-cc-pvtz', properties = ['dipole'])
--------------------------------------------------------------------------

    Molecular point group: c1
  Charge       = 0
  Multiplicity = 1
  Basis Set: AUG-CC-PVTZ
    Blend: AUG-CC-PVTZ
  Basis Set: (AUG-CC-PVTZ AUX)
    Blend: AUG-CC-PVTZ-JKFIT

    Orbital Energies [Eh]
    ---------------------

    Doubly Occupied:

       1A    -15.642929     2A    -15.590095     3A    -11.281100
       4A    -11.232679     5A    -11.224205     6A     -1.370830
       7A     -1.098030     8A     -1.052827     9A     -0.849471
      10A     -0.813799    11A     -0.742734    12A     -0.628285
      13A     -0.604862    14A     -0.592631    15A     -0.576954
      16A     -0.463207    17A     -0.364644    18A     -0.345432

  @DF-RHF Final Energy:  -224.83709474642617

   => Energetics <=

    Nuclear Repulsion Energy =            163.7010443966851483
    One-Electron Energy =                -628.1268532650371981
    Two-Electron Energy =                 239.5887141219259036
    Total Energy =                       -224.8370947464261747
  Basis Set: (AUG-CC-PVTZ AUX)
    Blend: AUG-CC-PVTZ-RI
    Molecular point group: c1

    Geometry (in Angstrom), charge = 0, multiplicity = 1:

       Center              X                  Y                   Z               Mass
    ------------   -----------------  -----------------  -----------------  -----------------
         N           -1.013819822075    -0.348800894547     0.000026473320    14.003074004430
         N            0.041922177925    -1.187144894547    -0.000024526680    14.003074004430
         C           -0.672175822075     0.967692105453     0.000006473320    12.000000000000
         C            0.712706177925     0.996029105453    -0.000004526680    12.000000000000
         C            1.102139177925    -0.354523894547    -0.000007526680    12.000000000000
         H           -1.416983822075     1.751245105453     0.000022473320     1.007825032230
         H            1.344009177925     1.872916105453    -0.000009526680     1.007825032230
         H           -1.943976822075    -0.747533894547     0.000040473320     1.007825032230
         H            1.915267377925    -0.696095294547    -0.000014026680     1.007825032230

  Basis Set: AUG-CC-PVTZ
    Blend: AUG-CC-PVTZ
  Basis Set: (AUG-CC-PVTZ AUX)
    Blend: AUG-CC-PVTZ-JKFIT
	 Reference Energy          =    -224.8370947464261747 [Eh]
	 Singles Energy            =      -0.0000000000000000 [Eh]
	 Same-Spin Energy          =      -0.2457668881614496 [Eh]
	 Opposite-Spin Energy      =      -0.7460407638702518 [Eh]
	 Correlation Energy        =      -0.9918076520317014 [Eh]
	 Total Energy              =    -225.8289023984578705 [Eh]

	 ================> DF-SCS-MP2 Energies <==================
	-----------------------------------------------------------
	 SCS Same-Spin Scale       =       0.3333333333333333 [-]
	 SCS Opposite-Spin Scale   =       1.2000000000000000 [-]
	 SCS Same-Spin Energy      =      -0.0819222960538165 [Eh]
	 SCS Opposite-Spin Energy  =      -0.8952489166443021 [Eh]
	 SCS Correlation Energy    =      -0.9771712126981186 [Eh]
	 SCS Total Energy          =    -225.8142659591242989 [Eh]
	-----------------------------------------------------------

  Dipole Moment: [D]
     X:    -1.5270      Y:     1.7473      Z:     0.0001     Total:     2.3205

*** Psi4 exiting successfully. Buy a developer a beer!
