                               Psi4 1.3.2 release

  ==> Input File <==

--------------------------------------------------------------------------
#psi4
#
memory 32 gb

molecule  {
0 1
  N       -1.0633188    -0.3640378     0.0000262
  N        0.0381600    -1.2151070    -0.0000250
  C       -0.6759380     0.9397300     0.0000060
  C        0.7089440     0.9680670    -0.0000050
  C        1.0983770    -0.3824860    -0.0000080
  H       -1.4207460     1.7232830     0.0000220
  H        1.3402470     1.8449540    -0.0000100
  H       -1.9477390    -0.7754960     0.0000400
  H        2.0958970    -0.8015150    -0.0000160
units angstrom
no_reorient  #important for SAPT in psi4, default
symmetry c1  #important for SAPT in psi4, default
}

set PROPERTIES_ORIGIN ["COM"]
properties('MP2/aug-cc-pvtz', properties = ['dipole'])
--------------------------------------------------------------------------

    Molecular point group: c1
  Charge       = 0
  Multiplicity = 1
  Basis Set: AUG-CC-PVTZ
    Blend: AUG-CC-PVTZ
  Basis Set: (AUG-CC-PVTZ AUX)
    Blend: AUG-CC-PVTZ-JKFIT

    Orbital Energies [Eh]
    ---------------------

    Doubly Occupied:

       1A    -15.638158     2A    -15.591132     3A    -11.286464
       4A    -11.260260     5A    -11.225976     6A     -1.355028
       7A     -1.098429     8A     -1.048350     9A     -0.835095
      10A     -0.794206    11A     -0.741216    12A     -0.614895
      13A     -0.597092    14A     -0.588986    15A     -0.565964
      16A     -0.458627    17A     -0.370595    18A     -0.344228

  @DF-RHF Final Energy:  -224.87017435570860

   => Energetics <=

    Nuclear Repulsion Energy =            161.7790029591297412
    One-Electron Energy =                -624.4689543760823653
    Two-Electron Energy =                 237.8197770612440252
    Total Energy =                       -224.8701743557085990
  Basis Set: (AUG-CC-PVTZ AUX)
    Blend: AUG-CC-PVTZ-RI
    Molecular point group: c1

    Geometry (in Angstrom), charge = 0, multiplicity = 1:

       Center              X                  Y                   Z               Mass
    ------------   -----------------  -----------------  -----------------  -----------------
         N           -1.052874697108    -0.337547357754     0.000026654376    14.003074004430
         N            0.048604102892    -1.188616557754    -0.000024545624    14.003074004430
         C           -0.665493897108     0.966220442246     0.000006454376    12.000000000000
         C            0.719388102892     0.994557442246    -0.000004545624    12.000000000000
         C            1.108821102892    -0.355995557754    -0.000007545624    12.000000000000
         H           -1.410301897108     1.749773442246     0.000022454376     1.007825032230
         H            1.350691102892     1.871444442246    -0.000009545624     1.007825032230
         H           -1.937294897108    -0.749005557754     0.000040454376     1.007825032230
         H            2.106341102892    -0.775024557754    -0.000015545624     1.007825032230

  Basis Set: AUG-CC-PVTZ
    Blend: AUG-CC-PVTZ
  Basis Set: (AUG-CC-PVTZ AUX)
    Blend: AUG-CC-PVTZ-JKFIT
	 Reference Energy          =    -224.8701743557085990 [Eh]
	 Singles Energy            =      -0.0000000000000000 [Eh]
	 Same-Spin Energy          =      -0.2453531917476199 [Eh]
	 Opposite-Spin Energy      =      -0.7465887167710265 [Eh]
	 Correlation Energy        =      -0.9919419085186464 [Eh]
	 Total Energy              =    -225.8621162642272395 [Eh]

	 ================> DF-SCS-MP2 Energies <==================
	-----------------------------------------------------------
	 SCS Same-Spin Scale       =       0.3333333333333333 [-]
	 SCS Opposite-Spin Scale   =       1.2000000000000000 [-]
	 SCS Same-Spin Energy      =      -0.0817843972492066 [Eh]
	 SCS Opposite-Spin Energy  =      -0.8959064601252317 [Eh]
	 SCS Correlation Energy    =      -0.9776908573744383 [Eh]
	 SCS Total Energy          =    -225.8478652130830255 [Eh]
	-----------------------------------------------------------

  Dipole Moment: [D]
     X:    -1.4141      Y:     1.7650      Z:     0.0001     Total:     2.2616

*** Psi4 exiting successfully. Buy a developer a beer!
