                               Psi4 1.3.2 release

  ==> Input File <==

--------------------------------------------------------------------------
#psi4
#
memory 32 gb

molecule  {
0 1
  N       -1.0175820    -0.3767630     0.0000260
  N        0.0381600    -1.2151070    -0.0000250
  C       -0.6759380     0.9397300     0.0000060
  C        0.7089440     0.9680670    -0.0000050
  C        1.0747473    -0.3890768    -0.0000078
  H       -1.4207460     1.7232830     0.0000220
  H        1.3402470     1.8449540    -0.0000100
  H       -1.9477390    -0.7754960     0.0000400
  H        2.0958970    -0.8015150    -0.0000160
units angstrom
no_reorient  #important for SAPT in psi4, default
symmetry c1  #important for SAPT in psi4, default
}

set PROPERTIES_ORIGIN ["COM"]
properties('MP2/aug-cc-pvtz', properties = ['dipole'])
--------------------------------------------------------------------------

    Molecular point group: c1
  Charge       = 0
  Multiplicity = 1
  Basis Set: AUG-CC-PVTZ
    Blend: AUG-CC-PVTZ
  Basis Set: (AUG-CC-PVTZ AUX)
    Blend: AUG-CC-PVTZ-JKFIT

    Orbital Energies [Eh]
    ---------------------

    Doubly Occupied:

       1A    -15.641560     2A    -15.588823     3A    -11.282550
       4A    -11.254888     5A    -11.224442     6A     -1.375311
       7A     -1.097065     8A     -1.052969     9A     -0.824050
      10A     -0.797076    11A     -0.744041    12A     -0.607909
      13A     -0.606274    14A     -0.594938    15A     -0.558681
      16A     -0.464196    17A     -0.366428    18A     -0.348040

  @DF-RHF Final Energy:  -224.87426711598388

   => Energetics <=

    Nuclear Repulsion Energy =            163.0237308358573785
    One-Electron Energy =                -626.9375137245190217
    Two-Electron Energy =                 239.0395157726777882
    Total Energy =                       -224.8742671159838835
  Basis Set: (AUG-CC-PVTZ AUX)
    Blend: AUG-CC-PVTZ-RI
    Molecular point group: c1

    Geometry (in Angstrom), charge = 0, multiplicity = 1:

       Center              X                  Y                   Z               Mass
    ------------   -----------------  -----------------  -----------------  -----------------
         N           -1.012383528814    -0.346491088513     0.000026460265    14.003074004430
         N            0.043358471186    -1.184835088513    -0.000024539735    14.003074004430
         C           -0.670739528814     0.970001911487     0.000006460265    12.000000000000
         C            0.714142471186     0.998338911487    -0.000004539735    12.000000000000
         C            1.079945771186    -0.358804888513    -0.000007339735    12.000000000000
         H           -1.415547528814     1.753554911487     0.000022460265     1.007825032230
         H            1.345445471186     1.875225911487    -0.000009539735     1.007825032230
         H           -1.942540528814    -0.745224088513     0.000040460265     1.007825032230
         H            2.101095471186    -0.771243088513    -0.000015539735     1.007825032230

  Basis Set: AUG-CC-PVTZ
    Blend: AUG-CC-PVTZ
  Basis Set: (AUG-CC-PVTZ AUX)
    Blend: AUG-CC-PVTZ-JKFIT
	 Reference Energy          =    -224.8742671159838835 [Eh]
	 Singles Energy            =      -0.0000000000000000 [Eh]
	 Same-Spin Energy          =      -0.2453584005879761 [Eh]
	 Opposite-Spin Energy      =      -0.7451923938641823 [Eh]
	 Correlation Energy        =      -0.9905507944521585 [Eh]
	 Total Energy              =    -225.8648179104360452 [Eh]

	 ================> DF-SCS-MP2 Energies <==================
	-----------------------------------------------------------
	 SCS Same-Spin Scale       =       0.3333333333333333 [-]
	 SCS Opposite-Spin Scale   =       1.2000000000000000 [-]
	 SCS Same-Spin Energy      =      -0.0817861335293254 [Eh]
	 SCS Opposite-Spin Energy  =      -0.8942308726370188 [Eh]
	 SCS Correlation Energy    =      -0.9760170061663442 [Eh]
	 SCS Total Energy          =    -225.8502841221502138 [Eh]
	-----------------------------------------------------------

  Dipole Moment: [D]
     X:    -1.5256      Y:     1.7382      Z:     0.0001     Total:     2.3128

*** Psi4 exiting successfully. Buy a developer a beer!
