                               Psi4 1.3.2 release

  ==> Input File <==

--------------------------------------------------------------------------
#psi4
#
memory 32 gb

molecule  {
0 1
  N       -1.0175820    -0.3767630     0.0000260
  N        0.0381600    -1.2151070    -0.0000250
  C       -0.6759380     0.9397300     0.0000060
  C        0.8041025     0.9919426    -0.0000058
  C        1.0983770    -0.3824860    -0.0000080
  H       -1.4207460     1.7232830     0.0000220
  H        1.3402470     1.8449540    -0.0000100
  H       -1.9477390    -0.7754960     0.0000400
  H        2.0958970    -0.8015150    -0.0000160
units angstrom
no_reorient  #important for SAPT in psi4, default
symmetry c1  #important for SAPT in psi4, default
}

set PROPERTIES_ORIGIN ["COM"]
properties('MP2/aug-cc-pvtz', properties = ['dipole'])
--------------------------------------------------------------------------

    Molecular point group: c1
  Charge       = 0
  Multiplicity = 1
  Basis Set: AUG-CC-PVTZ
    Blend: AUG-CC-PVTZ
  Basis Set: (AUG-CC-PVTZ AUX)
    Blend: AUG-CC-PVTZ-JKFIT

    Orbital Energies [Eh]
    ---------------------

    Doubly Occupied:

       1A    -15.652031     2A    -15.587606     3A    -11.294828
       4A    -11.258871     5A    -11.230529     6A     -1.369940
       7A     -1.094115     8A     -1.041108     9A     -0.835166
      10A     -0.799700    11A     -0.742592    12A     -0.623007
      13A     -0.604964    14A     -0.603365    15A     -0.538314
      16A     -0.464462    17A     -0.368923    18A     -0.334786

  @DF-RHF Final Energy:  -224.85821733919690

   => Energetics <=

    Nuclear Repulsion Energy =            161.2610295372105327
    One-Electron Energy =                -623.3498785172025691
    Two-Electron Energy =                 237.2306316407951101
    Total Energy =                       -224.8582173391968979
  Basis Set: (AUG-CC-PVTZ AUX)
    Blend: AUG-CC-PVTZ-RI
    Molecular point group: c1

    Geometry (in Angstrom), charge = 0, multiplicity = 1:

       Center              X                  Y                   Z               Mass
    ------------   -----------------  -----------------  -----------------  -----------------
         N           -1.033334614415    -0.351864552833     0.000026636638    14.003074004430
         N            0.022407385585    -1.190208552833    -0.000024363362    14.003074004430
         C           -0.691690614415     0.964628447167     0.000006636638    12.000000000000
         C            0.788349885585     1.016841047167    -0.000005163362    12.000000000000
         C            1.082624385585    -0.357587552833    -0.000007363362    12.000000000000
         H           -1.436498614415     1.748181447167     0.000022636638     1.007825032230
         H            1.324494385585     1.869852447167    -0.000009363362     1.007825032230
         H           -1.963491614415    -0.750597552833     0.000040636638     1.007825032230
         H            2.080144385585    -0.776616552833    -0.000015363362     1.007825032230

  Basis Set: AUG-CC-PVTZ
    Blend: AUG-CC-PVTZ
  Basis Set: (AUG-CC-PVTZ AUX)
    Blend: AUG-CC-PVTZ-JKFIT
	 Reference Energy          =    -224.8582173391968979 [Eh]
	 Singles Energy            =      -0.0000000000000000 [Eh]
	 Same-Spin Energy          =      -0.2464839016301744 [Eh]
	 Opposite-Spin Energy      =      -0.7481041479691171 [Eh]
	 Correlation Energy        =      -0.9945880495992915 [Eh]
	 Total Energy              =    -225.8528053887961846 [Eh]

	 ================> DF-SCS-MP2 Energies <==================
	-----------------------------------------------------------
	 SCS Same-Spin Scale       =       0.3333333333333333 [-]
	 SCS Opposite-Spin Scale   =       1.2000000000000000 [-]
	 SCS Same-Spin Energy      =      -0.0821613005433915 [Eh]
	 SCS Opposite-Spin Energy  =      -0.8977249775629405 [Eh]
	 SCS Correlation Energy    =      -0.9798862781063319 [Eh]
	 SCS Total Energy          =    -225.8381036173032328 [Eh]
	-----------------------------------------------------------

  Dipole Moment: [D]
     X:    -1.5832      Y:     1.6991      Z:     0.0001     Total:     2.3224

*** Psi4 exiting successfully. Buy a developer a beer!
