                               Psi4 1.3.2 release

  ==> Input File <==

--------------------------------------------------------------------------
#psi4
#
memory 32 gb

molecule  {
0 1
  N       -1.0175820    -0.3767630     0.0000260
  N        0.0381600    -1.2151070    -0.0000250
  C       -0.6759380     0.9397300     0.0000060
  C        0.7089440     0.9680670    -0.0000050
  C        0.9410840    -0.5060130    -0.0000105
  H       -1.4207460     1.7232830     0.0000220
  H        1.3402470     1.8449540    -0.0000100
  H       -1.9477390    -0.7754960     0.0000400
  H        2.0958970    -0.8015150    -0.0000160
units angstrom
no_reorient  #important for SAPT in psi4, default
symmetry c1  #important for SAPT in psi4, default
}

set PROPERTIES_ORIGIN ["COM"]
properties('MP2/aug-cc-pvtz', properties = ['dipole'])
--------------------------------------------------------------------------

    Molecular point group: c1
  Charge       = 0
  Multiplicity = 1
  Basis Set: AUG-CC-PVTZ
    Blend: AUG-CC-PVTZ
  Basis Set: (AUG-CC-PVTZ AUX)
    Blend: AUG-CC-PVTZ-JKFIT

    Orbital Energies [Eh]
    ---------------------

    Doubly Occupied:

       1A    -15.626624     2A    -15.575313     3A    -11.284731
       4A    -11.251498     5A    -11.223807     6A     -1.411810
       7A     -1.143867     8A     -1.037652     9A     -0.822469
      10A     -0.783709    11A     -0.749063    12A     -0.629267
      13A     -0.615664    14A     -0.591767    15A     -0.551647
      16A     -0.438476    17A     -0.402027    18A     -0.340024

  @DF-RHF Final Energy:  -224.82452301256009

   => Energetics <=

    Nuclear Repulsion Energy =            165.4022947842696567
    One-Electron Energy =                -631.4948063461524725
    Two-Electron Energy =                 241.2679885493227232
    Total Energy =                       -224.8245230125600926
  Basis Set: (AUG-CC-PVTZ AUX)
    Blend: AUG-CC-PVTZ-RI
    Molecular point group: c1

    Geometry (in Angstrom), charge = 0, multiplicity = 1:

       Center              X                  Y                   Z               Mass
    ------------   -----------------  -----------------  -----------------  -----------------
         N           -0.988808870388    -0.325866646557     0.000026936473    14.003074004430
         N            0.066933129612    -1.164210646557    -0.000024063527    14.003074004430
         C           -0.647164870388     0.990626353443     0.000006936473    12.000000000000
         C            0.737717129612     1.018963353443    -0.000004063527    12.000000000000
         C            0.969857129612    -0.455116646557    -0.000009563527    12.000000000000
         H           -1.391972870388     1.774179353443     0.000022936473     1.007825032230
         H            1.369020129612     1.895850353443    -0.000009063527     1.007825032230
         H           -1.918965870388    -0.724599646557     0.000040936473     1.007825032230
         H            2.124670129612    -0.750618646557    -0.000015063527     1.007825032230

  Basis Set: AUG-CC-PVTZ
    Blend: AUG-CC-PVTZ
  Basis Set: (AUG-CC-PVTZ AUX)
    Blend: AUG-CC-PVTZ-JKFIT
	 Reference Energy          =    -224.8245230125600926 [Eh]
	 Singles Energy            =      -0.0000000000000000 [Eh]
	 Same-Spin Energy          =      -0.2413461285733897 [Eh]
	 Opposite-Spin Energy      =      -0.7385042169632113 [Eh]
	 Correlation Energy        =      -0.9798503455366010 [Eh]
	 Total Energy              =    -225.8043733580966830 [Eh]

	 ================> DF-SCS-MP2 Energies <==================
	-----------------------------------------------------------
	 SCS Same-Spin Scale       =       0.3333333333333333 [-]
	 SCS Opposite-Spin Scale   =       1.2000000000000000 [-]
	 SCS Same-Spin Energy      =      -0.0804487095244632 [Eh]
	 SCS Opposite-Spin Energy  =      -0.8862050603558536 [Eh]
	 SCS Correlation Energy    =      -0.9666537698803168 [Eh]
	 SCS Total Energy          =    -225.7911767824404023 [Eh]
	-----------------------------------------------------------

  Dipole Moment: [D]
     X:    -1.5127      Y:     1.5660      Z:     0.0001     Total:     2.1773

*** Psi4 exiting successfully. Buy a developer a beer!
