                               Psi4 1.4a3.dev225

  ==> Input File <==

--------------------------------------------------------------------------
#psi4
#
memory 32 gb

molecule  {
0 1
  N       -1.0175820    -0.3767630     0.0000260
  N        0.0381600    -1.2151070    -0.0000250
  C       -0.6759380     0.9397300     0.0000060
  C        0.7089440     0.9680670    -0.0000050
  C        1.0983770    -0.3824860    -0.0000080
  H       -1.4551940     1.7595230     0.0000227
  H        1.3402470     1.8449540    -0.0000100
  H       -1.9477390    -0.7754960     0.0000400
  H        2.0958970    -0.8015150    -0.0000160
units angstrom
no_reorient  #important for SAPT in psi4, default
symmetry c1  #important for SAPT in psi4, default
}

set PROPERTIES_ORIGIN ["COM"]
properties('MP2/aug-cc-pvtz', properties = ['dipole'])
--------------------------------------------------------------------------

    Molecular point group: c1
  Charge       = 0
  Multiplicity = 1
  Basis Set: AUG-CC-PVTZ
    Blend: AUG-CC-PVTZ
  Basis Set: (AUG-CC-PVTZ AUX)
    Blend: AUG-CC-PVTZ-JKFIT

    Orbital Energies [Eh]
    ---------------------

    Doubly Occupied:

       1A    -15.643764     2A    -15.590712     3A    -11.287418
       4A    -11.255997     5A    -11.225711     6A     -1.371832
       7A     -1.091945     8A     -1.052190     9A     -0.823223
      10A     -0.798549    11A     -0.734829    12A     -0.607163
      13A     -0.605905    14A     -0.590442    15A     -0.561107
      16A     -0.462723    17A     -0.365110    18A     -0.346383

  @DF-RHF Final Energy:  -224.87097201866646

   => Energetics <=

    Nuclear Repulsion Energy =            162.3832098000287374
    One-Electron Energy =                -625.6783593087930058
    Two-Electron Energy =                 238.4241774900978044
    Total Energy =                       -224.8709720186664640
  Basis Set: (AUG-CC-PVTZ AUX)
    Blend: AUG-CC-PVTZ-RI
    Molecular point group: c1

    Geometry (in Angstrom), charge = 0, multiplicity = 1:

       Center              X                  Y                   Z               Mass
    ------------   -----------------  -----------------  -----------------  -----------------
         N           -1.016040909420    -0.348190346530     0.000026485170    14.003074004430
         N            0.039701090580    -1.186534346530    -0.000024514830    14.003074004430
         C           -0.674396909420     0.968302653470     0.000006485170    12.000000000000
         C            0.710485090580     0.996639653470    -0.000004514830    12.000000000000
         C            1.099918090580    -0.353913346530    -0.000007514830    12.000000000000
         H           -1.453652909420     1.788095653470     0.000023185170     1.007825032230
         H            1.341788090580     1.873526653470    -0.000009514830     1.007825032230
         H           -1.946197909420    -0.746923346530     0.000040485170     1.007825032230
         H            2.097438090580    -0.772942346530    -0.000015514830     1.007825032230

  Basis Set: AUG-CC-PVTZ
    Blend: AUG-CC-PVTZ
  Basis Set: (AUG-CC-PVTZ AUX)
    Blend: AUG-CC-PVTZ-JKFIT
	 Reference Energy          =    -224.8709720186664640 [Eh]
	 Singles Energy            =      -0.0000000000000000 [Eh]
	 Same-Spin Energy          =      -0.2459456302706871 [Eh]
	 Opposite-Spin Energy      =      -0.7465848982916584 [Eh]
	 Correlation Energy        =      -0.9925305285623455 [Eh]
	 Total Energy              =    -225.8635025472288191 [Eh]

	 ================> DF-SCS-MP2 Energies <==================
	-----------------------------------------------------------
	 SCS Same-Spin Scale       =       0.3333333333333333 [-]
	 SCS Opposite-Spin Scale   =       1.2000000000000000 [-]
	 SCS Same-Spin Energy      =      -0.0819818767568957 [Eh]
	 SCS Opposite-Spin Energy  =      -0.8959018779499901 [Eh]
	 SCS Correlation Energy    =      -0.9778837547068858 [Eh]
	 SCS Total Energy          =    -225.8488557733733444 [Eh]
	-----------------------------------------------------------

  Dipole Moment: [D]
     X:    -1.5216      Y:     1.7398      Z:     0.0001     Total:     2.3113

*** Psi4 exiting successfully. Buy a developer a beer!
