                               Psi4 1.3.2 release

  ==> Input File <==

--------------------------------------------------------------------------
#psi4
#
memory 32 gb

molecule  {
0 1
  N       -1.0175820    -0.3767630     0.0000260
  N        0.1164725    -1.2772934    -0.0000288
  C       -0.6759380     0.9397300     0.0000060
  C        0.7089440     0.9680670    -0.0000050
  C        1.0983770    -0.3824860    -0.0000080
  H       -1.4207460     1.7232830     0.0000220
  H        1.3402470     1.8449540    -0.0000100
  H       -1.9477390    -0.7754960     0.0000400
  H        2.0958970    -0.8015150    -0.0000160
units angstrom
no_reorient  #important for SAPT in psi4, default
symmetry c1  #important for SAPT in psi4, default
}

set PROPERTIES_ORIGIN ["COM"]
properties('MP2/aug-cc-pvtz', properties = ['dipole'])
--------------------------------------------------------------------------

    Molecular point group: c1
  Charge       = 0
  Multiplicity = 1
  Basis Set: AUG-CC-PVTZ
    Blend: AUG-CC-PVTZ
  Basis Set: (AUG-CC-PVTZ AUX)
    Blend: AUG-CC-PVTZ-JKFIT

    Orbital Energies [Eh]
    ---------------------

    Doubly Occupied:

       1A    -15.634472     2A    -15.597222     3A    -11.292508
       4A    -11.260837     5A    -11.224228     6A     -1.338171
       7A     -1.105001     8A     -1.042264     9A     -0.823728
      10A     -0.786499    11A     -0.743617    12A     -0.598248
      13A     -0.589666    14A     -0.585587    15A     -0.563265
      16A     -0.472233    17A     -0.376592    18A     -0.343781

  @DF-RHF Final Energy:  -224.86315023629732

   => Energetics <=

    Nuclear Repulsion Energy =            160.9520812630917135
    One-Electron Energy =                -622.8746286303402258
    Two-Electron Energy =                 237.0593971309511971
    Total Energy =                       -224.8631502362973151
  Basis Set: (AUG-CC-PVTZ AUX)
    Blend: AUG-CC-PVTZ-RI
    Molecular point group: c1

    Geometry (in Angstrom), charge = 0, multiplicity = 1:

       Center              X                  Y                   Z               Mass
    ------------   -----------------  -----------------  -----------------  -----------------
         N           -1.032669006455    -0.334854685577     0.000027277633    14.003074004430
         N            0.101385493545    -1.235385085577    -0.000027522367    14.003074004430
         C           -0.691025006455     0.981638314423     0.000007277633    12.000000000000
         C            0.693856993545     1.009975314423    -0.000003722367    12.000000000000
         C            1.083289993545    -0.340577685577    -0.000006722367    12.000000000000
         H           -1.435833006455     1.765191314423     0.000023277633     1.007825032230
         H            1.325159993545     1.886862314423    -0.000008722367     1.007825032230
         H           -1.962826006455    -0.733587685577     0.000041277633     1.007825032230
         H            2.080809993545    -0.759606685577    -0.000014722367     1.007825032230

  Basis Set: AUG-CC-PVTZ
    Blend: AUG-CC-PVTZ
  Basis Set: (AUG-CC-PVTZ AUX)
    Blend: AUG-CC-PVTZ-JKFIT
	 Reference Energy          =    -224.8631502362973151 [Eh]
	 Singles Energy            =      -0.0000000000000000 [Eh]
	 Same-Spin Energy          =      -0.2454120130875009 [Eh]
	 Opposite-Spin Energy      =      -0.7481284793981304 [Eh]
	 Correlation Energy        =      -0.9935404924856314 [Eh]
	 Total Energy              =    -225.8566907287829508 [Eh]

	 ================> DF-SCS-MP2 Energies <==================
	-----------------------------------------------------------
	 SCS Same-Spin Scale       =       0.3333333333333333 [-]
	 SCS Opposite-Spin Scale   =       1.2000000000000000 [-]
	 SCS Same-Spin Energy      =      -0.0818040043625003 [Eh]
	 SCS Opposite-Spin Energy  =      -0.8977541752777565 [Eh]
	 SCS Correlation Energy    =      -0.9795581796402568 [Eh]
	 SCS Total Energy          =    -225.8427084159375795 [Eh]
	-----------------------------------------------------------

  Dipole Moment: [D]
     X:    -1.4843      Y:     1.8420      Z:     0.0001     Total:     2.3656

*** Psi4 exiting successfully. Buy a developer a beer!
