                               Psi4 1.3.2 release

  ==> Input File <==

--------------------------------------------------------------------------
#psi4
#
memory 32 gb

molecule  {
0 1
  N       -1.0175820    -0.3767630     0.0000260
  N        0.0381600    -1.2151070    -0.0000250
  C       -0.7261760     0.7461424     0.0000089
  C        0.7089440     0.9680670    -0.0000050
  C        1.0983770    -0.3824860    -0.0000080
  H       -1.4207460     1.7232830     0.0000220
  H        1.3402470     1.8449540    -0.0000100
  H       -1.9477390    -0.7754960     0.0000400
  H        2.0958970    -0.8015150    -0.0000160
units angstrom
no_reorient  #important for SAPT in psi4, default
symmetry c1  #important for SAPT in psi4, default
}

set PROPERTIES_ORIGIN ["COM"]
properties('MP2/aug-cc-pvtz', properties = ['dipole'])
--------------------------------------------------------------------------

    Molecular point group: c1
  Charge       = 0
  Multiplicity = 1
  Basis Set: AUG-CC-PVTZ
    Blend: AUG-CC-PVTZ
  Basis Set: (AUG-CC-PVTZ AUX)
    Blend: AUG-CC-PVTZ-JKFIT

    Orbital Energies [Eh]
    ---------------------

    Doubly Occupied:

       1A    -15.651934     2A    -15.568242     3A    -11.282847
       4A    -11.256563     5A    -11.216833     6A     -1.428534
       7A     -1.135526     8A     -1.038001     9A     -0.844241
      10A     -0.813850    11A     -0.732319    12A     -0.647684
      13A     -0.623446    14A     -0.593886    15A     -0.510071
      16A     -0.453323    17A     -0.389871    18A     -0.325609

  @DF-RHF Final Energy:  -224.81793975536522

   => Energetics <=

    Nuclear Repulsion Energy =            165.6197327162101942
    One-Electron Energy =                -631.8497877223201158
    Two-Electron Energy =                 241.4121152507447050
    Total Energy =                       -224.8179397553652166
  Basis Set: (AUG-CC-PVTZ AUX)
    Blend: AUG-CC-PVTZ-RI
    Molecular point group: c1

    Geometry (in Angstrom), charge = 0, multiplicity = 1:

       Center              X                  Y                   Z               Mass
    ------------   -----------------  -----------------  -----------------  -----------------
         N           -1.007690530932    -0.313509816267     0.000025984056    14.003074004430
         N            0.048051469068    -1.151853816267    -0.000025015944    14.003074004430
         C           -0.716284530932     0.809395583733     0.000008884056    12.000000000000
         C            0.718835469068     1.031320183733    -0.000005015944    12.000000000000
         C            1.108268469068    -0.319232816267    -0.000008015944    12.000000000000
         H           -1.410854530932     1.786536183733     0.000021984056     1.007825032230
         H            1.350138469068     1.908207183733    -0.000010015944     1.007825032230
         H           -1.937847530932    -0.712242816267     0.000039984056     1.007825032230
         H            2.105788469068    -0.738261816267    -0.000016015944     1.007825032230

  Basis Set: AUG-CC-PVTZ
    Blend: AUG-CC-PVTZ
  Basis Set: (AUG-CC-PVTZ AUX)
    Blend: AUG-CC-PVTZ-JKFIT
	 Reference Energy          =    -224.8179397553652166 [Eh]
	 Singles Energy            =      -0.0000000000000000 [Eh]
	 Same-Spin Energy          =      -0.2445843969193846 [Eh]
	 Opposite-Spin Energy      =      -0.7418216464712568 [Eh]
	 Correlation Energy        =      -0.9864060433906414 [Eh]
	 Total Energy              =    -225.8043457987558611 [Eh]

	 ================> DF-SCS-MP2 Energies <==================
	-----------------------------------------------------------
	 SCS Same-Spin Scale       =       0.3333333333333333 [-]
	 SCS Opposite-Spin Scale   =       1.2000000000000000 [-]
	 SCS Same-Spin Energy      =      -0.0815281323064615 [Eh]
	 SCS Opposite-Spin Energy  =      -0.8901859757655082 [Eh]
	 SCS Correlation Energy    =      -0.9717141080719697 [Eh]
	 SCS Total Energy          =    -225.7896538634371950 [Eh]
	-----------------------------------------------------------

  Dipole Moment: [D]
     X:    -1.8802      Y:     1.6492      Z:     0.0001     Total:     2.5010

*** Psi4 exiting successfully. Buy a developer a beer!
