                               Psi4 1.3.2 release

  ==> Input File <==

--------------------------------------------------------------------------
#psi4
#
memory 32 gb

molecule  {
0 1
  N       -0.9249159    -0.3973880     0.0000234
  N        0.0381600    -1.2151070    -0.0000250
  C       -0.6759380     0.9397300     0.0000060
  C        0.7089440     0.9680670    -0.0000050
  C        1.0983770    -0.3824860    -0.0000080
  H       -1.4207460     1.7232830     0.0000220
  H        1.3402470     1.8449540    -0.0000100
  H       -1.9477390    -0.7754960     0.0000400
  H        2.0958970    -0.8015150    -0.0000160
units angstrom
no_reorient  #important for SAPT in psi4, default
symmetry c1  #important for SAPT in psi4, default
}

set PROPERTIES_ORIGIN ["COM"]
properties('MP2/aug-cc-pvtz', properties = ['dipole'])
--------------------------------------------------------------------------

    Molecular point group: c1
  Charge       = 0
  Multiplicity = 1
  Basis Set: AUG-CC-PVTZ
    Blend: AUG-CC-PVTZ
  Basis Set: (AUG-CC-PVTZ AUX)
    Blend: AUG-CC-PVTZ-JKFIT

    Orbital Energies [Eh]
    ---------------------

    Doubly Occupied:

       1A    -15.655106     2A    -15.590561     3A    -11.273916
       4A    -11.246826     5A    -11.224885     6A     -1.412903
       7A     -1.087541     8A     -1.058851     9A     -0.812112
      10A     -0.803467    11A     -0.747258    12A     -0.626899
      13A     -0.608004    14A     -0.581953    15A     -0.560347
      16A     -0.468394    17A     -0.360412    18A     -0.344614

  @DF-RHF Final Energy:  -224.85910398869990

   => Energetics <=

    Nuclear Repulsion Energy =            164.4237698233252161
    One-Electron Energy =                -629.6376497595642832
    Two-Electron Energy =                 240.3547759475391956
    Total Energy =                       -224.8591039886998999
  Basis Set: (AUG-CC-PVTZ AUX)
    Blend: AUG-CC-PVTZ-RI
    Molecular point group: c1

    Geometry (in Angstrom), charge = 0, multiplicity = 1:

       Center              X                  Y                   Z               Mass
    ------------   -----------------  -----------------  -----------------  -----------------
         N           -0.942957081377    -0.364033612508     0.000024430656    14.003074004430
         N            0.020118818623    -1.181752612508    -0.000023969344    14.003074004430
         C           -0.693979181377     0.973084387492     0.000007030656    12.000000000000
         C            0.690902818623     1.001421387492    -0.000003969344    12.000000000000
         C            1.080335818623    -0.349131612508    -0.000006969344    12.000000000000
         H           -1.438787181377     1.756637387492     0.000023030656     1.007825032230
         H            1.322205818623     1.878308387492    -0.000008969344     1.007825032230
         H           -1.965780181377    -0.742141612508     0.000041030656     1.007825032230
         H            2.077855818623    -0.768160612508    -0.000014969344     1.007825032230

  Basis Set: AUG-CC-PVTZ
    Blend: AUG-CC-PVTZ
  Basis Set: (AUG-CC-PVTZ AUX)
    Blend: AUG-CC-PVTZ-JKFIT
	 Reference Energy          =    -224.8591039886998999 [Eh]
	 Singles Energy            =      -0.0000000000000000 [Eh]
	 Same-Spin Energy          =      -0.2471256996632795 [Eh]
	 Opposite-Spin Energy      =      -0.7464210666150630 [Eh]
	 Correlation Energy        =      -0.9935467662783425 [Eh]
	 Total Energy              =    -225.8526507549782423 [Eh]

	 ================> DF-SCS-MP2 Energies <==================
	-----------------------------------------------------------
	 SCS Same-Spin Scale       =       0.3333333333333333 [-]
	 SCS Opposite-Spin Scale   =       1.2000000000000000 [-]
	 SCS Same-Spin Energy      =      -0.0823752332210932 [Eh]
	 SCS Opposite-Spin Energy  =      -0.8957052799380756 [Eh]
	 SCS Correlation Energy    =      -0.9780805131591688 [Eh]
	 SCS Total Energy          =    -225.8371845018590705 [Eh]
	-----------------------------------------------------------

  Dipole Moment: [D]
     X:    -1.6863      Y:     1.6729      Z:     0.0001     Total:     2.3753

*** Psi4 exiting successfully. Buy a developer a beer!
