                               Psi4 1.4a3.dev225

  ==> Input File <==

--------------------------------------------------------------------------
#psi4
#
memory 32 gb

molecule  {
0 1
  N       -1.0175820    -0.3767630     0.0000260
  N        0.0381600    -1.2151070    -0.0000250
  C       -0.6759380     0.9397300     0.0000060
  C        0.7089440     0.9680670    -0.0000050
  C        1.0845239    -0.3344434    -0.0000079
  H       -1.4207460     1.7232830     0.0000220
  H        1.3402470     1.8449540    -0.0000100
  H       -1.9477390    -0.7754960     0.0000400
  H        2.0958970    -0.8015150    -0.0000160
units angstrom
no_reorient  #important for SAPT in psi4, default
symmetry c1  #important for SAPT in psi4, default
}

set PROPERTIES_ORIGIN ["COM"]
properties('MP2/aug-cc-pvtz', properties = ['dipole'])
--------------------------------------------------------------------------

    Molecular point group: c1
  Charge       = 0
  Multiplicity = 1
  Basis Set: AUG-CC-PVTZ
    Blend: AUG-CC-PVTZ
  Basis Set: (AUG-CC-PVTZ AUX)
    Blend: AUG-CC-PVTZ-JKFIT

    Orbital Energies [Eh]
    ---------------------

    Doubly Occupied:

       1A    -15.646864     2A    -15.589250     3A    -11.282491
       4A    -11.253791     5A    -11.222019     6A     -1.372516
       7A     -1.088248     8A     -1.061602     9A     -0.830960
      10A     -0.792331    11A     -0.744919    12A     -0.606786
      13A     -0.606259    14A     -0.593354    15A     -0.554960
      16A     -0.467232    17A     -0.370936    18A     -0.342612

  @DF-RHF Final Energy:  -224.86787714603844

   => Energetics <=

    Nuclear Repulsion Energy =            163.0586504083620127
    One-Electron Energy =                -626.9987955037504435
    Two-Electron Energy =                 239.0722679493499641
    Total Energy =                       -224.8678771460384382
  Basis Set: (AUG-CC-PVTZ AUX)
    Blend: AUG-CC-PVTZ-RI
    Molecular point group: c1

    Geometry (in Angstrom), charge = 0, multiplicity = 1:

       Center              X                  Y                   Z               Mass
    ------------   -----------------  -----------------  -----------------  -----------------
         N           -1.014107861563    -0.356126970192     0.000026477902    14.003074004430
         N            0.041634138437    -1.194470970192    -0.000024522098    14.003074004430
         C           -0.672463861563     0.960366029808     0.000006477902    12.000000000000
         C            0.712418138437     0.988703029808    -0.000004522098    12.000000000000
         C            1.087998038437    -0.313807370192    -0.000007422098    12.000000000000
         H           -1.417271861563     1.743919029808     0.000022477902     1.007825032230
         H            1.343721138437     1.865590029808    -0.000009522098     1.007825032230
         H           -1.944264861563    -0.754859970192     0.000040477902     1.007825032230
         H            2.099371138437    -0.780878970192    -0.000015522098     1.007825032230

  Basis Set: AUG-CC-PVTZ
    Blend: AUG-CC-PVTZ
  Basis Set: (AUG-CC-PVTZ AUX)
    Blend: AUG-CC-PVTZ-JKFIT
	 Reference Energy          =    -224.8678771460384382 [Eh]
	 Singles Energy            =      -0.0000000000000000 [Eh]
	 Same-Spin Energy          =      -0.2468289159065223 [Eh]
	 Opposite-Spin Energy      =      -0.7475573983301063 [Eh]
	 Correlation Energy        =      -0.9943863142366285 [Eh]
	 Total Energy              =    -225.8622634602750736 [Eh]

	 ================> DF-SCS-MP2 Energies <==================
	-----------------------------------------------------------
	 SCS Same-Spin Scale       =       0.3333333333333333 [-]
	 SCS Opposite-Spin Scale   =       1.2000000000000000 [-]
	 SCS Same-Spin Energy      =      -0.0822763053021741 [Eh]
	 SCS Opposite-Spin Energy  =      -0.8970688779961274 [Eh]
	 SCS Correlation Energy    =      -0.9793451832983016 [Eh]
	 SCS Total Energy          =    -225.8472223293367449 [Eh]
	-----------------------------------------------------------

  Dipole Moment: [D]
     X:    -1.5607      Y:     1.7910      Z:     0.0001     Total:     2.3756

*** Psi4 exiting successfully. Buy a developer a beer!
