                               Psi4 1.3.2 release

  ==> Input File <==

--------------------------------------------------------------------------
#psi4
#
memory 32 gb

molecule  {
0 1
  N       -1.0175820    -0.3767630     0.0000260
  N        0.0381600    -1.2151070    -0.0000250
  C       -0.6759380     0.9397300     0.0000060
  C        0.7089440     0.9680670    -0.0000050
  C        1.0983770    -0.3824860    -0.0000080
  H       -1.4207460     1.7232830     0.0000220
  H        1.3402470     1.8449540    -0.0000100
  H       -2.1315613    -0.8542956     0.0000428
  H        2.0958970    -0.8015150    -0.0000160
units angstrom
no_reorient  #important for SAPT in psi4, default
symmetry c1  #important for SAPT in psi4, default
}

set PROPERTIES_ORIGIN ["COM"]
properties('MP2/aug-cc-pvtz', properties = ['dipole'])
--------------------------------------------------------------------------

    Molecular point group: c1
  Charge       = 0
  Multiplicity = 1
  Basis Set: AUG-CC-PVTZ
    Blend: AUG-CC-PVTZ
  Basis Set: (AUG-CC-PVTZ AUX)
    Blend: AUG-CC-PVTZ-JKFIT

    Orbital Energies [Eh]
    ---------------------

    Doubly Occupied:

       1A    -15.657587     2A    -15.589465     3A    -11.280561
       4A    -11.254073     5A    -11.223761     6A     -1.363903
       7A     -1.079925     8A     -1.043951     9A     -0.801291
      10A     -0.789515    11A     -0.731499    12A     -0.602668
      13A     -0.591318    14A     -0.582797    15A     -0.562259
      16A     -0.459993    17A     -0.361448    18A     -0.344636

  @DF-RHF Final Energy:  -224.84255469465029

   => Energetics <=

    Nuclear Repulsion Energy =            161.6167865336858824
    One-Electron Energy =                -624.2773842579154007
    Two-Electron Energy =                 237.8180430295792576
    Total Energy =                       -224.8425546946502891
  Basis Set: (AUG-CC-PVTZ AUX)
    Blend: AUG-CC-PVTZ-RI
    Molecular point group: c1

    Geometry (in Angstrom), charge = 0, multiplicity = 1:

       Center              X                  Y                   Z               Mass
    ------------   -----------------  -----------------  -----------------  -----------------
         N           -1.013828257963    -0.346486288077     0.000026454063    14.003074004430
         N            0.041913742037    -1.184830288077    -0.000024545937    14.003074004430
         C           -0.672184257963     0.970006711923     0.000006454063    12.000000000000
         C            0.712697742037     0.998343711923    -0.000004545937    12.000000000000
         C            1.102130742037    -0.352209288077    -0.000007545937    12.000000000000
         H           -1.416992257963     1.753559711923     0.000022454063     1.007825032230
         H            1.344000742037     1.875230711923    -0.000009545937     1.007825032230
         H           -2.127807557963    -0.824018888077     0.000043254063     1.007825032230
         H            2.099650742037    -0.771238288077    -0.000015545937     1.007825032230

  Basis Set: AUG-CC-PVTZ
    Blend: AUG-CC-PVTZ
  Basis Set: (AUG-CC-PVTZ AUX)
    Blend: AUG-CC-PVTZ-JKFIT
	 Reference Energy          =    -224.8425546946502891 [Eh]
	 Singles Energy            =      -0.0000000000000000 [Eh]
	 Same-Spin Energy          =      -0.2476162069894256 [Eh]
	 Opposite-Spin Energy      =      -0.7505580828715135 [Eh]
	 Correlation Energy        =      -0.9981742898609391 [Eh]
	 Total Energy              =    -225.8407289845112302 [Eh]

	 ================> DF-SCS-MP2 Energies <==================
	-----------------------------------------------------------
	 SCS Same-Spin Scale       =       0.3333333333333333 [-]
	 SCS Opposite-Spin Scale   =       1.2000000000000000 [-]
	 SCS Same-Spin Energy      =      -0.0825387356631419 [Eh]
	 SCS Opposite-Spin Energy  =      -0.9006696994458161 [Eh]
	 SCS Correlation Energy    =      -0.9832084351089579 [Eh]
	 SCS Total Energy          =    -225.8257631297592525 [Eh]
	-----------------------------------------------------------

  Dipole Moment: [D]
     X:    -1.7590      Y:     1.6133      Z:     0.0001     Total:     2.3868

*** Psi4 exiting successfully. Buy a developer a beer!
