                               Psi4 1.3.2 release

  ==> Input File <==

--------------------------------------------------------------------------
#psi4
#
memory 32 gb

molecule  {
0 1
  N       -1.0175820    -0.3767630     0.0000260
  N        0.0381600    -1.2151070    -0.0000250
  C       -0.6759380     0.9397300     0.0000060
  C        0.7089440     0.9680670    -0.0000050
  C        1.0032185    -0.4063616    -0.0000073
  H       -1.4207460     1.7232830     0.0000220
  H        1.3402470     1.8449540    -0.0000100
  H       -1.9477390    -0.7754960     0.0000400
  H        2.0958970    -0.8015150    -0.0000160
units angstrom
no_reorient  #important for SAPT in psi4, default
symmetry c1  #important for SAPT in psi4, default
}

set PROPERTIES_ORIGIN ["COM"]
properties('MP2/aug-cc-pvtz', properties = ['dipole'])
--------------------------------------------------------------------------

    Molecular point group: c1
  Charge       = 0
  Multiplicity = 1
  Basis Set: AUG-CC-PVTZ
    Blend: AUG-CC-PVTZ
  Basis Set: (AUG-CC-PVTZ AUX)
    Blend: AUG-CC-PVTZ-JKFIT

    Orbital Energies [Eh]
    ---------------------

    Doubly Occupied:

       1A    -15.636353     2A    -15.583425     3A    -11.284305
       4A    -11.252821     5A    -11.222322     6A     -1.389179
       7A     -1.112001     8A     -1.053773     9A     -0.824644
      10A     -0.789093    11A     -0.748648    12A     -0.616200
      13A     -0.604075    14A     -0.599554    15A     -0.544502
      16A     -0.464071    17A     -0.375291    18A     -0.350429

  @DF-RHF Final Energy:  -224.86536124777041

   => Energetics <=

    Nuclear Repulsion Energy =            164.3379269918827958
    One-Electron Energy =                -629.5052056583044759
    Two-Electron Energy =                 240.3019174186512714
    Total Energy =                       -224.8653612477704087
  Basis Set: (AUG-CC-PVTZ AUX)
    Blend: AUG-CC-PVTZ-RI
    Molecular point group: c1

    Geometry (in Angstrom), charge = 0, multiplicity = 1:

       Center              X                  Y                   Z               Mass
    ------------   -----------------  -----------------  -----------------  -----------------
         N           -0.999767747013    -0.343442508567     0.000026372078    14.003074004430
         N            0.055974252987    -1.181786508567    -0.000024627922    14.003074004430
         C           -0.658123747013     0.973050491433     0.000006372078    12.000000000000
         C            0.726758252987     1.001387491433    -0.000004627922    12.000000000000
         C            1.021032752987    -0.373041108567    -0.000006927922    12.000000000000
         H           -1.402931747013     1.756603491433     0.000022372078     1.007825032230
         H            1.358061252987     1.878274491433    -0.000009627922     1.007825032230
         H           -1.929924747013    -0.742175508567     0.000040372078     1.007825032230
         H            2.113711252987    -0.768194508567    -0.000015627922     1.007825032230

  Basis Set: AUG-CC-PVTZ
    Blend: AUG-CC-PVTZ
  Basis Set: (AUG-CC-PVTZ AUX)
    Blend: AUG-CC-PVTZ-JKFIT
	 Reference Energy          =    -224.8653612477704087 [Eh]
	 Singles Energy            =      -0.0000000000000000 [Eh]
	 Same-Spin Energy          =      -0.2441101920695847 [Eh]
	 Opposite-Spin Energy      =      -0.7426982146969004 [Eh]
	 Correlation Energy        =      -0.9868084067664852 [Eh]
	 Total Energy              =    -225.8521696545368798 [Eh]

	 ================> DF-SCS-MP2 Energies <==================
	-----------------------------------------------------------
	 SCS Same-Spin Scale       =       0.3333333333333333 [-]
	 SCS Opposite-Spin Scale   =       1.2000000000000000 [-]
	 SCS Same-Spin Energy      =      -0.0813700640231949 [Eh]
	 SCS Opposite-Spin Energy  =      -0.8912378576362805 [Eh]
	 SCS Correlation Energy    =      -0.9726079216594754 [Eh]
	 SCS Total Energy          =    -225.8379691694298970 [Eh]
	-----------------------------------------------------------

  Dipole Moment: [D]
     X:    -1.5589      Y:     1.7379      Z:     0.0001     Total:     2.3347

*** Psi4 exiting successfully. Buy a developer a beer!
