                               Psi4 1.4a3.dev225

  ==> Input File <==

--------------------------------------------------------------------------
#psi4
#
memory 32 gb

molecule  {
0 1
  N       -1.0175820    -0.3767630     0.0000260
  N        0.0381600    -1.2151070    -0.0000250
  C       -0.6809618     0.9203712     0.0000063
  C        0.7089440     0.9680670    -0.0000050
  C        1.0983770    -0.3824860    -0.0000080
  H       -1.4207460     1.7232830     0.0000220
  H        1.3402470     1.8449540    -0.0000100
  H       -1.9477390    -0.7754960     0.0000400
  H        2.0958970    -0.8015150    -0.0000160
units angstrom
no_reorient  #important for SAPT in psi4, default
symmetry c1  #important for SAPT in psi4, default
}

set PROPERTIES_ORIGIN ["COM"]
properties('MP2/aug-cc-pvtz', properties = ['dipole'])
--------------------------------------------------------------------------

    Molecular point group: c1
  Charge       = 0
  Multiplicity = 1
  Basis Set: AUG-CC-PVTZ
    Blend: AUG-CC-PVTZ
  Basis Set: (AUG-CC-PVTZ AUX)
    Blend: AUG-CC-PVTZ-JKFIT

    Orbital Energies [Eh]
    ---------------------

    Doubly Occupied:

       1A    -15.644641     2A    -15.588389     3A    -11.282028
       4A    -11.255771     5A    -11.224365     6A     -1.375715
       7A     -1.096234     8A     -1.051410     9A     -0.825437
      10A     -0.800472    11A     -0.742733    12A     -0.608788
      13A     -0.607846    14A     -0.594198    15A     -0.560073
      16A     -0.461993    17A     -0.366531    18A     -0.344701

  @DF-RHF Final Energy:  -224.87380313854413

   => Energetics <=

    Nuclear Repulsion Energy =            162.8792733980974958
    One-Electron Energy =                -626.6435020715023256
    Two-Electron Energy =                 238.8904255348606966
    Total Energy =                       -224.8738031385441332
  Basis Set: (AUG-CC-PVTZ AUX)
    Blend: AUG-CC-PVTZ-RI
    Molecular point group: c1

    Geometry (in Angstrom), charge = 0, multiplicity = 1:

       Center              X                  Y                   Z               Mass
    ------------   -----------------  -----------------  -----------------  -----------------
         N           -1.015665115736    -0.344239152202     0.000026442627    14.003074004430
         N            0.040076884264    -1.182583152202    -0.000024557373    14.003074004430
         C           -0.679044915736     0.952895047798     0.000006742627    12.000000000000
         C            0.710860884264     1.000590847798    -0.000004557373    12.000000000000
         C            1.100293884264    -0.349962152202    -0.000007557373    12.000000000000
         H           -1.418829115736     1.755806847798     0.000022442627     1.007825032230
         H            1.342163884264     1.877477847798    -0.000009557373     1.007825032230
         H           -1.945822115736    -0.742972152202     0.000040442627     1.007825032230
         H            2.097813884264    -0.768991152202    -0.000015557373     1.007825032230

  Basis Set: AUG-CC-PVTZ
    Blend: AUG-CC-PVTZ
  Basis Set: (AUG-CC-PVTZ AUX)
    Blend: AUG-CC-PVTZ-JKFIT
	 Reference Energy          =    -224.8738031385441332 [Eh]
	 Singles Energy            =      -0.0000000000000000 [Eh]
	 Same-Spin Energy          =      -0.2457235519760290 [Eh]
	 Opposite-Spin Energy      =      -0.7457022715811820 [Eh]
	 Correlation Energy        =      -0.9914258235572110 [Eh]
	 Total Energy              =    -225.8652289621013551 [Eh]

	 ================> DF-SCS-MP2 Energies <==================
	-----------------------------------------------------------
	 SCS Same-Spin Scale       =       0.3333333333333333 [-]
	 SCS Opposite-Spin Scale   =       1.2000000000000000 [-]
	 SCS Same-Spin Energy      =      -0.0819078506586763 [Eh]
	 SCS Opposite-Spin Energy  =      -0.8948427258974183 [Eh]
	 SCS Correlation Energy    =      -0.9767505765560947 [Eh]
	 SCS Total Energy          =    -225.8505537151002329 [Eh]
	-----------------------------------------------------------

  Dipole Moment: [D]
     X:    -1.5534      Y:     1.7288      Z:     0.0001     Total:     2.3242

*** Psi4 exiting successfully. Buy a developer a beer!
