                               Psi4 1.3.2 release

  ==> Input File <==

--------------------------------------------------------------------------
#psi4
#
memory 32 gb

molecule  {
0 1
  N       -1.0175820    -0.3767630     0.0000260
  N        0.0381600    -1.2151070    -0.0000250
  C       -0.6759380     0.9397300     0.0000060
  C        0.7043195     0.8231522    -0.0000068
  C        1.0983770    -0.3824860    -0.0000080
  H       -1.4207460     1.7232830     0.0000220
  H        1.3402470     1.8449540    -0.0000100
  H       -1.9477390    -0.7754960     0.0000400
  H        2.0958970    -0.8015150    -0.0000160
units angstrom
no_reorient  #important for SAPT in psi4, default
symmetry c1  #important for SAPT in psi4, default
}

set PROPERTIES_ORIGIN ["COM"]
properties('MP2/aug-cc-pvtz', properties = ['dipole'])
--------------------------------------------------------------------------

    Molecular point group: c1
  Charge       = 0
  Multiplicity = 1
  Basis Set: AUG-CC-PVTZ
    Blend: AUG-CC-PVTZ
  Basis Set: (AUG-CC-PVTZ AUX)
    Blend: AUG-CC-PVTZ-JKFIT

    Orbital Energies [Eh]
    ---------------------

    Doubly Occupied:

       1A    -15.650054     2A    -15.584544     3A    -11.279195
       4A    -11.237428     5A    -11.220206     6A     -1.380590
       7A     -1.104833     8A     -1.059620     9A     -0.842273
      10A     -0.790558    11A     -0.739870    12A     -0.613244
      13A     -0.613171    14A     -0.602768    15A     -0.532950
      16A     -0.458077    17A     -0.384319    18A     -0.338618

  @DF-RHF Final Energy:  -224.83961834229868

   => Energetics <=

    Nuclear Repulsion Energy =            164.9121956127898159
    One-Electron Energy =                -630.6389914700052941
    Two-Electron Energy =                 240.8871775149168286
    Total Energy =                       -224.8396183422986780
  Basis Set: (AUG-CC-PVTZ AUX)
    Blend: AUG-CC-PVTZ-RI
    Molecular point group: c1

    Geometry (in Angstrom), charge = 0, multiplicity = 1:

       Center              X                  Y                   Z               Mass
    ------------   -----------------  -----------------  -----------------  -----------------
         N           -1.015735541658    -0.322094406312     0.000026813011    14.003074004430
         N            0.040006458342    -1.160438406312    -0.000024186989    14.003074004430
         C           -0.674091541658     0.994398593688     0.000006813011    12.000000000000
         C            0.706165958342     0.877820793688    -0.000005986989    12.000000000000
         C            1.100223458342    -0.327817406312    -0.000007186989    12.000000000000
         H           -1.418899541658     1.777951593688     0.000022813011     1.007825032230
         H            1.342093458342     1.899622593688    -0.000009186989     1.007825032230
         H           -1.945892541658    -0.720827406312     0.000040813011     1.007825032230
         H            2.097743458342    -0.746846406312    -0.000015186989     1.007825032230

  Basis Set: AUG-CC-PVTZ
    Blend: AUG-CC-PVTZ
  Basis Set: (AUG-CC-PVTZ AUX)
    Blend: AUG-CC-PVTZ-JKFIT
	 Reference Energy          =    -224.8396183422986780 [Eh]
	 Singles Energy            =      -0.0000000000000000 [Eh]
	 Same-Spin Energy          =      -0.2479195045584817 [Eh]
	 Opposite-Spin Energy      =      -0.7485797571353053 [Eh]
	 Correlation Energy        =      -0.9964992616937870 [Eh]
	 Total Energy              =    -225.8361176039924771 [Eh]

	 ================> DF-SCS-MP2 Energies <==================
	-----------------------------------------------------------
	 SCS Same-Spin Scale       =       0.3333333333333333 [-]
	 SCS Opposite-Spin Scale   =       1.2000000000000000 [-]
	 SCS Same-Spin Energy      =      -0.0826398348528272 [Eh]
	 SCS Opposite-Spin Energy  =      -0.8982957085623664 [Eh]
	 SCS Correlation Energy    =      -0.9809355434151936 [Eh]
	 SCS Total Energy          =    -225.8205538857138777 [Eh]
	-----------------------------------------------------------

  Dipole Moment: [D]
     X:    -1.5896      Y:     1.7195      Z:     0.0001     Total:     2.3416

*** Psi4 exiting successfully. Buy a developer a beer!
