                               Psi4 1.3.2 release

  ==> Input File <==

--------------------------------------------------------------------------
#psi4
#
memory 32 gb

molecule  {
0 1
  N       -1.0175820    -0.3767630     0.0000260
  N        0.0381600    -1.2151070    -0.0000250
  C       -0.6759380     0.9397300     0.0000060
  C        0.6983954     1.1126714    -0.0000031
  C        1.0983770    -0.3824860    -0.0000080
  H       -1.4207460     1.7232830     0.0000220
  H        1.3402470     1.8449540    -0.0000100
  H       -1.9477390    -0.7754960     0.0000400
  H        2.0958970    -0.8015150    -0.0000160
units angstrom
no_reorient  #important for SAPT in psi4, default
symmetry c1  #important for SAPT in psi4, default
}

set PROPERTIES_ORIGIN ["COM"]
properties('MP2/aug-cc-pvtz', properties = ['dipole'])
--------------------------------------------------------------------------

    Molecular point group: c1
  Charge       = 0
  Multiplicity = 1
  Basis Set: AUG-CC-PVTZ
    Blend: AUG-CC-PVTZ
  Basis Set: (AUG-CC-PVTZ AUX)
    Blend: AUG-CC-PVTZ-JKFIT

    Orbital Energies [Eh]
    ---------------------

    Doubly Occupied:

       1A    -15.639237     2A    -15.597318     3A    -11.287754
       4A    -11.270401     5A    -11.231561     6A     -1.367204
       7A     -1.090018     8A     -1.044077     9A     -0.828072
      10A     -0.802569    11A     -0.738976    12A     -0.638076
      13A     -0.602047    14A     -0.601817    15A     -0.536874
      16A     -0.459366    17A     -0.358091    18A     -0.348526

  @DF-RHF Final Energy:  -224.84883162516800

   => Energetics <=

    Nuclear Repulsion Energy =            160.7072721751859774
    One-Electron Energy =                -622.2282384844573926
    Two-Electron Energy =                 236.6721346841034403
    Total Energy =                       -224.8488316251680033
  Basis Set: (AUG-CC-PVTZ AUX)
    Blend: AUG-CC-PVTZ-RI
    Molecular point group: c1

    Geometry (in Angstrom), charge = 0, multiplicity = 1:

       Center              X                  Y                   Z               Mass
    ------------   -----------------  -----------------  -----------------  -----------------
         N           -1.014690687655    -0.373157908767     0.000026160430    14.003074004430
         N            0.041051312345    -1.211501908767    -0.000024839570    14.003074004430
         C           -0.673046687655     0.943335091233     0.000006160430    12.000000000000
         C            0.701286712345     1.116276491233    -0.000002939570    12.000000000000
         C            1.101268312345    -0.378880908767    -0.000007839570    12.000000000000
         H           -1.417854687655     1.726888091233     0.000022160430     1.007825032230
         H            1.343138312345     1.848559091233    -0.000009839570     1.007825032230
         H           -1.944847687655    -0.771890908767     0.000040160430     1.007825032230
         H            2.098788312345    -0.797909908767    -0.000015839570     1.007825032230

  Basis Set: AUG-CC-PVTZ
    Blend: AUG-CC-PVTZ
  Basis Set: (AUG-CC-PVTZ AUX)
    Blend: AUG-CC-PVTZ-JKFIT
	 Reference Energy          =    -224.8488316251680033 [Eh]
	 Singles Energy            =      -0.0000000000000000 [Eh]
	 Same-Spin Energy          =      -0.2447579714136554 [Eh]
	 Opposite-Spin Energy      =      -0.7468649029108143 [Eh]
	 Correlation Energy        =      -0.9916228743244697 [Eh]
	 Total Energy              =    -225.8404544994924663 [Eh]

	 ================> DF-SCS-MP2 Energies <==================
	-----------------------------------------------------------
	 SCS Same-Spin Scale       =       0.3333333333333333 [-]
	 SCS Opposite-Spin Scale   =       1.2000000000000000 [-]
	 SCS Same-Spin Energy      =      -0.0815859904712185 [Eh]
	 SCS Opposite-Spin Energy  =      -0.8962378834929772 [Eh]
	 SCS Correlation Energy    =      -0.9778238739641957 [Eh]
	 SCS Total Energy          =    -225.8266554991321868 [Eh]
	-----------------------------------------------------------

  Dipole Moment: [D]
     X:    -1.4743      Y:     1.6415      Z:     0.0001     Total:     2.2064

*** Psi4 exiting successfully. Buy a developer a beer!
