                               Psi4 1.3.2 release

  ==> Input File <==

--------------------------------------------------------------------------
#psi4
#
memory 32 gb

molecule  {
0 1
  N       -1.0175820    -0.3767630     0.0000260
  N        0.0381600    -1.2151070    -0.0000250
  C       -0.6759380     0.9397300     0.0000060
  C        0.9089021     0.9721585    -0.0000066
  C        1.0983770    -0.3824860    -0.0000080
  H       -1.4207460     1.7232830     0.0000220
  H        1.3402470     1.8449540    -0.0000100
  H       -1.9477390    -0.7754960     0.0000400
  H        2.0958970    -0.8015150    -0.0000160
units angstrom
no_reorient  #important for SAPT in psi4, default
symmetry c1  #important for SAPT in psi4, default
}

set PROPERTIES_ORIGIN ["COM"]
properties('MP2/aug-cc-pvtz', properties = ['dipole'])
--------------------------------------------------------------------------

    Molecular point group: c1
  Charge       = 0
  Multiplicity = 1
  Basis Set: AUG-CC-PVTZ
    Blend: AUG-CC-PVTZ
  Basis Set: (AUG-CC-PVTZ AUX)
    Blend: AUG-CC-PVTZ-JKFIT

    Orbital Energies [Eh]
    ---------------------

    Doubly Occupied:

       1A    -15.661754     2A    -15.582030     3A    -11.303699
       4A    -11.258066     5A    -11.235030     6A     -1.369864
       7A     -1.097941     8A     -1.034678     9A     -0.846509
      10A     -0.799784    11A     -0.744312    12A     -0.642484
      13A     -0.603800    14A     -0.602575    15A     -0.508126
      16A     -0.465205    17A     -0.378339    18A     -0.323733

  @DF-RHF Final Energy:  -224.82636980154072

   => Energetics <=

    Nuclear Repulsion Energy =            160.4926134656348893
    One-Electron Energy =                -621.7221108831033689
    Two-Electron Energy =                 236.4031276159277297
    Total Energy =                       -224.8263698015407215
  Basis Set: (AUG-CC-PVTZ AUX)
    Blend: AUG-CC-PVTZ-RI
    Molecular point group: c1

    Geometry (in Angstrom), charge = 0, multiplicity = 1:

       Center              X                  Y                   Z               Mass
    ------------   -----------------  -----------------  -----------------  -----------------
         N           -1.051818482262    -0.348375162703     0.000026777737    14.003074004430
         N            0.003923517738    -1.186719162703    -0.000024222263    14.003074004430
         C           -0.710174482262     0.968117837297     0.000006777737    12.000000000000
         C            0.874665617738     1.000546337297    -0.000005822263    12.000000000000
         C            1.064140517738    -0.354098162703    -0.000007222263    12.000000000000
         H           -1.454982482262     1.751670837297     0.000022777737     1.007825032230
         H            1.306010517738     1.873341837297    -0.000009222263     1.007825032230
         H           -1.981975482262    -0.747108162703     0.000040777737     1.007825032230
         H            2.061660517738    -0.773127162703    -0.000015222263     1.007825032230

  Basis Set: AUG-CC-PVTZ
    Blend: AUG-CC-PVTZ
  Basis Set: (AUG-CC-PVTZ AUX)
    Blend: AUG-CC-PVTZ-JKFIT
	 Reference Energy          =    -224.8263698015407215 [Eh]
	 Singles Energy            =      -0.0000000000000000 [Eh]
	 Same-Spin Energy          =      -0.2475648120894300 [Eh]
	 Opposite-Spin Energy      =      -0.7508047467795547 [Eh]
	 Correlation Energy        =      -0.9983695588689846 [Eh]
	 Total Energy              =    -225.8247393604096942 [Eh]

	 ================> DF-SCS-MP2 Energies <==================
	-----------------------------------------------------------
	 SCS Same-Spin Scale       =       0.3333333333333333 [-]
	 SCS Opposite-Spin Scale   =       1.2000000000000000 [-]
	 SCS Same-Spin Energy      =      -0.0825216040298100 [Eh]
	 SCS Opposite-Spin Energy  =      -0.9009656961354655 [Eh]
	 SCS Correlation Energy    =      -0.9834873001652755 [Eh]
	 SCS Total Energy          =    -225.8098571017060010 [Eh]
	-----------------------------------------------------------

  Dipole Moment: [D]
     X:    -1.6373      Y:     1.6723      Z:     0.0001     Total:     2.3404

*** Psi4 exiting successfully. Buy a developer a beer!
