                               Psi4 1.3.2 release

  ==> Input File <==

--------------------------------------------------------------------------
#psi4
#
memory 32 gb

molecule  {
0 1
  N       -1.0175820    -0.3767630     0.0000260
  N        0.0381600    -1.2151070    -0.0000250
  C       -0.5401986     0.8968066     0.0000052
  C        0.7089440     0.9680670    -0.0000050
  C        1.0983770    -0.3824860    -0.0000080
  H       -1.4207460     1.7232830     0.0000220
  H        1.3402470     1.8449540    -0.0000100
  H       -1.9477390    -0.7754960     0.0000400
  H        2.0958970    -0.8015150    -0.0000160
units angstrom
no_reorient  #important for SAPT in psi4, default
symmetry c1  #important for SAPT in psi4, default
}

set PROPERTIES_ORIGIN ["COM"]
properties('MP2/aug-cc-pvtz', properties = ['dipole'])
--------------------------------------------------------------------------

    Molecular point group: c1
  Charge       = 0
  Multiplicity = 1
  Basis Set: AUG-CC-PVTZ
    Blend: AUG-CC-PVTZ
  Basis Set: (AUG-CC-PVTZ AUX)
    Blend: AUG-CC-PVTZ-JKFIT

    Orbital Energies [Eh]
    ---------------------

    Doubly Occupied:

       1A    -15.632177     2A    -15.590090     3A    -11.274644
       4A    -11.255779     5A    -11.211499     6A     -1.377655
       7A     -1.089249     8A     -1.078704     9A     -0.822303
      10A     -0.803819    11A     -0.727266    12A     -0.631826
      13A     -0.612515    14A     -0.585210    15A     -0.536561
      16A     -0.460109    17A     -0.378817    18A     -0.353018

  @DF-RHF Final Energy:  -224.84419027380432

   => Energetics <=

    Nuclear Repulsion Energy =            164.7690098125046632
    One-Electron Energy =                -630.3839172193565901
    Two-Electron Energy =                 240.7707171330475830
    Total Energy =                       -224.8441902738043154
  Basis Set: (AUG-CC-PVTZ AUX)
    Blend: AUG-CC-PVTZ-RI
    Molecular point group: c1

    Geometry (in Angstrom), charge = 0, multiplicity = 1:

       Center              X                  Y                   Z               Mass
    ------------   -----------------  -----------------  -----------------  -----------------
         N           -1.040492008076    -0.340082982214     0.000026636638    14.003074004430
         N            0.015249991924    -1.178426982214    -0.000024363362    14.003074004430
         C           -0.563108608076     0.933486617786     0.000005836638    12.000000000000
         C            0.686033991924     1.004747017786    -0.000004363362    12.000000000000
         C            1.075466991924    -0.345805982214    -0.000007363362    12.000000000000
         H           -1.443656008076     1.759963017786     0.000022636638     1.007825032230
         H            1.317336991924     1.881634017786    -0.000009363362     1.007825032230
         H           -1.970649008076    -0.738815982214     0.000040636638     1.007825032230
         H            2.072986991924    -0.764834982214    -0.000015363362     1.007825032230

  Basis Set: AUG-CC-PVTZ
    Blend: AUG-CC-PVTZ
  Basis Set: (AUG-CC-PVTZ AUX)
    Blend: AUG-CC-PVTZ-JKFIT
	 Reference Energy          =    -224.8441902738043154 [Eh]
	 Singles Energy            =      -0.0000000000000000 [Eh]
	 Same-Spin Energy          =      -0.2450242141654411 [Eh]
	 Opposite-Spin Energy      =      -0.7450140509842202 [Eh]
	 Correlation Energy        =      -0.9900382651496613 [Eh]
	 Total Energy              =    -225.8342285389539654 [Eh]

	 ================> DF-SCS-MP2 Energies <==================
	-----------------------------------------------------------
	 SCS Same-Spin Scale       =       0.3333333333333333 [-]
	 SCS Opposite-Spin Scale   =       1.2000000000000000 [-]
	 SCS Same-Spin Energy      =      -0.0816747380551470 [Eh]
	 SCS Opposite-Spin Energy  =      -0.8940168611810643 [Eh]
	 SCS Correlation Energy    =      -0.9756915992362113 [Eh]
	 SCS Total Energy          =    -225.8198818730405151 [Eh]
	-----------------------------------------------------------

  Dipole Moment: [D]
     X:    -1.3463      Y:     1.8013      Z:     0.0001     Total:     2.2488

*** Psi4 exiting successfully. Buy a developer a beer!
