                               Psi4 1.3.2 release

  ==> Input File <==

--------------------------------------------------------------------------
#psi4
#
memory 32 gb

molecule  {
0 1
  N       -1.0175820    -0.3767630     0.0000260
  N        0.0381600    -1.2151070    -0.0000250
  C       -0.6759380     0.9397300     0.0000060
  C        0.7089440     0.9680670    -0.0000050
  C        1.1452734    -0.3680723    -0.0000084
  H       -1.4207460     1.7232830     0.0000220
  H        1.3402470     1.8449540    -0.0000100
  H       -1.9477390    -0.7754960     0.0000400
  H        2.0958970    -0.8015150    -0.0000160
units angstrom
no_reorient  #important for SAPT in psi4, default
symmetry c1  #important for SAPT in psi4, default
}

set PROPERTIES_ORIGIN ["COM"]
properties('MP2/aug-cc-pvtz', properties = ['dipole'])
--------------------------------------------------------------------------

    Molecular point group: c1
  Charge       = 0
  Multiplicity = 1
  Basis Set: AUG-CC-PVTZ
    Blend: AUG-CC-PVTZ
  Basis Set: (AUG-CC-PVTZ AUX)
    Blend: AUG-CC-PVTZ-JKFIT

    Orbital Energies [Eh]
    ---------------------

    Doubly Occupied:

       1A    -15.647553     2A    -15.593879     3A    -11.281177
       4A    -11.257510     5A    -11.227700     6A     -1.365442
       7A     -1.083940     8A     -1.052498     9A     -0.828659
      10A     -0.802088    11A     -0.740508    12A     -0.611567
      13A     -0.601845    14A     -0.587697    15A     -0.574628
      16A     -0.458286    17A     -0.363877    18A     -0.341224

  @DF-RHF Final Energy:  -224.86693447661176

   => Energetics <=

    Nuclear Repulsion Energy =            161.8197530122448597
    One-Electron Energy =                -624.5332187827134476
    Two-Electron Energy =                 237.8465312938568275
    Total Energy =                       -224.8669344766117604
  Basis Set: (AUG-CC-PVTZ AUX)
    Blend: AUG-CC-PVTZ-RI
    Molecular point group: c1

    Geometry (in Angstrom), charge = 0, multiplicity = 1:

       Center              X                  Y                   Z               Mass
    ------------   -----------------  -----------------  -----------------  -----------------
         N           -1.024822460949    -0.350195724811     0.000026566089    14.003074004430
         N            0.030919539051    -1.188539724811    -0.000024433911    14.003074004430
         C           -0.683178460949     0.966297275189     0.000006566089    12.000000000000
         C            0.701703539051     0.994634275189    -0.000004433911    12.000000000000
         C            1.138032939051    -0.341505024811    -0.000007833911    12.000000000000
         H           -1.427986460949     1.749850275189     0.000022566089     1.007825032230
         H            1.333006539051     1.871521275189    -0.000009433911     1.007825032230
         H           -1.954979460949    -0.748928724811     0.000040566089     1.007825032230
         H            2.088656539051    -0.774947724811    -0.000015433911     1.007825032230

  Basis Set: AUG-CC-PVTZ
    Blend: AUG-CC-PVTZ
  Basis Set: (AUG-CC-PVTZ AUX)
    Blend: AUG-CC-PVTZ-JKFIT
	 Reference Energy          =    -224.8669344766117604 [Eh]
	 Singles Energy            =      -0.0000000000000000 [Eh]
	 Same-Spin Energy          =      -0.2469055372833937 [Eh]
	 Opposite-Spin Energy      =      -0.7484609813654950 [Eh]
	 Correlation Energy        =      -0.9953665186488887 [Eh]
	 Total Energy              =    -225.8623009952606537 [Eh]

	 ================> DF-SCS-MP2 Energies <==================
	-----------------------------------------------------------
	 SCS Same-Spin Scale       =       0.3333333333333333 [-]
	 SCS Opposite-Spin Scale   =       1.2000000000000000 [-]
	 SCS Same-Spin Energy      =      -0.0823018457611312 [Eh]
	 SCS Opposite-Spin Energy  =      -0.8981531776385939 [Eh]
	 SCS Correlation Energy    =      -0.9804550233997251 [Eh]
	 SCS Total Energy          =    -225.8473895000114737 [Eh]
	-----------------------------------------------------------

  Dipole Moment: [D]
     X:    -1.5251      Y:     1.7455      Z:     0.0001     Total:     2.3179

*** Psi4 exiting successfully. Buy a developer a beer!
