                               Psi4 1.3.2 release

  ==> Input File <==

--------------------------------------------------------------------------
#psi4
#
memory 32 gb

molecule  {
0 1
  N       -1.0175820    -0.3767630     0.0000260
  N        0.0082591    -1.2514412    -0.0000234
  C       -0.6759380     0.9397300     0.0000060
  C        0.7089440     0.9680670    -0.0000050
  C        1.0983770    -0.3824860    -0.0000080
  H       -1.4207460     1.7232830     0.0000220
  H        1.3402470     1.8449540    -0.0000100
  H       -1.9477390    -0.7754960     0.0000400
  H        2.0958970    -0.8015150    -0.0000160
units angstrom
no_reorient  #important for SAPT in psi4, default
symmetry c1  #important for SAPT in psi4, default
}

set PROPERTIES_ORIGIN ["COM"]
properties('MP2/aug-cc-pvtz', properties = ['dipole'])
--------------------------------------------------------------------------

    Molecular point group: c1
  Charge       = 0
  Multiplicity = 1
  Basis Set: AUG-CC-PVTZ
    Blend: AUG-CC-PVTZ
  Basis Set: (AUG-CC-PVTZ AUX)
    Blend: AUG-CC-PVTZ-JKFIT

    Orbital Energies [Eh]
    ---------------------

    Doubly Occupied:

       1A    -15.646769     2A    -15.596415     3A    -11.283210
       4A    -11.260934     5A    -11.228417     6A     -1.367555
       7A     -1.081319     8A     -1.057316     9A     -0.825238
      10A     -0.796919    11A     -0.743451    12A     -0.603157
      13A     -0.602810    14A     -0.592083    15A     -0.562145
      16A     -0.468648    17A     -0.362805    18A     -0.343717

  @DF-RHF Final Energy:  -224.86672121917934

   => Energetics <=

    Nuclear Repulsion Energy =            161.7428010712542914
    One-Electron Energy =                -624.3732308965719540
    Two-Electron Energy =                 237.7637086061383229
    Total Energy =                       -224.8667212191793396
  Basis Set: (AUG-CC-PVTZ AUX)
    Blend: AUG-CC-PVTZ-RI
    Molecular point group: c1

    Geometry (in Angstrom), charge = 0, multiplicity = 1:

       Center              X                  Y                   Z               Mass
    ------------   -----------------  -----------------  -----------------  -----------------
         N           -1.010397150442    -0.340175435836     0.000026166236    14.003074004430
         N            0.015443949558    -1.214853635836    -0.000023233764    14.003074004430
         C           -0.668753150442     0.976317564164     0.000006166236    12.000000000000
         C            0.716128849558     1.004654564164    -0.000004833764    12.000000000000
         C            1.105561849558    -0.345898435836    -0.000007833764    12.000000000000
         H           -1.413561150442     1.759870564164     0.000022166236     1.007825032230
         H            1.347431849558     1.881541564164    -0.000009833764     1.007825032230
         H           -1.940554150442    -0.738908435836     0.000040166236     1.007825032230
         H            2.103081849558    -0.764927435836    -0.000015833764     1.007825032230

  Basis Set: AUG-CC-PVTZ
    Blend: AUG-CC-PVTZ
  Basis Set: (AUG-CC-PVTZ AUX)
    Blend: AUG-CC-PVTZ-JKFIT
	 Reference Energy          =    -224.8667212191793396 [Eh]
	 Singles Energy            =      -0.0000000000000000 [Eh]
	 Same-Spin Energy          =      -0.2471100041374827 [Eh]
	 Opposite-Spin Energy      =      -0.7489652060780422 [Eh]
	 Correlation Energy        =      -0.9960752102155248 [Eh]
	 Total Energy              =    -225.8627964293948764 [Eh]

	 ================> DF-SCS-MP2 Energies <==================
	-----------------------------------------------------------
	 SCS Same-Spin Scale       =       0.3333333333333333 [-]
	 SCS Opposite-Spin Scale   =       1.2000000000000000 [-]
	 SCS Same-Spin Energy      =      -0.0823700013791609 [Eh]
	 SCS Opposite-Spin Energy  =      -0.8987582472936506 [Eh]
	 SCS Correlation Energy    =      -0.9811282486728115 [Eh]
	 SCS Total Energy          =    -225.8478494678521429 [Eh]
	-----------------------------------------------------------

  Dipole Moment: [D]
     X:    -1.5145      Y:     1.8271      Z:     0.0001     Total:     2.3732

*** Psi4 exiting successfully. Buy a developer a beer!
