                               Psi4 1.4a3.dev225

  ==> Input File <==

--------------------------------------------------------------------------
#psi4
#
memory 32 gb

molecule  {
0 1
  N       -1.0175820    -0.3767630     0.0000260
  N        0.0381600    -1.2151070    -0.0000250
  C       -0.6759380     0.9397300     0.0000060
  C        0.7089440     0.9680670    -0.0000050
  C        1.1039182    -0.4017030    -0.0000080
  H       -1.4207460     1.7232830     0.0000220
  H        1.3402470     1.8449540    -0.0000100
  H       -1.9477390    -0.7754960     0.0000400
  H        2.0958970    -0.8015150    -0.0000160
units angstrom
no_reorient  #important for SAPT in psi4, default
symmetry c1  #important for SAPT in psi4, default
}

set PROPERTIES_ORIGIN ["COM"]
properties('MP2/aug-cc-pvtz', properties = ['dipole'])
--------------------------------------------------------------------------

    Molecular point group: c1
  Charge       = 0
  Multiplicity = 1
  Basis Set: AUG-CC-PVTZ
    Blend: AUG-CC-PVTZ
  Basis Set: (AUG-CC-PVTZ AUX)
    Blend: AUG-CC-PVTZ-JKFIT

    Orbital Energies [Eh]
    ---------------------

    Doubly Occupied:

       1A    -15.642250     2A    -15.591084     3A    -11.281891
       4A    -11.256459     5A    -11.226611     6A     -1.371280
       7A     -1.094457     8A     -1.049315     9A     -0.822952
      10A     -0.801695    11A     -0.741798    12A     -0.610827
      13A     -0.605292    14A     -0.591877    15A     -0.565695
      16A     -0.460500    17A     -0.363718    18A     -0.346760

  @DF-RHF Final Energy:  -224.87385590180781

   => Energetics <=

    Nuclear Repulsion Energy =            162.4379107465438210
    One-Electron Energy =                -625.7746113791897642
    Two-Electron Energy =                 238.4628447308381283
    Total Energy =                       -224.8738559018078149
  Basis Set: (AUG-CC-PVTZ AUX)
    Blend: AUG-CC-PVTZ-RI
    Molecular point group: c1

    Geometry (in Angstrom), charge = 0, multiplicity = 1:

       Center              X                  Y                   Z               Mass
    ------------   -----------------  -----------------  -----------------  -----------------
         N           -1.017528501319    -0.344264161958     0.000026495539    14.003074004430
         N            0.038213498681    -1.182608161958    -0.000024504461    14.003074004430
         C           -0.675884501319     0.972228838042     0.000006495539    12.000000000000
         C            0.708997498681     1.000565838042    -0.000004504461    12.000000000000
         C            1.103971698681    -0.369204161958    -0.000007504461    12.000000000000
         H           -1.420692501319     1.755781838042     0.000022495539     1.007825032230
         H            1.340300498681     1.877452838042    -0.000009504461     1.007825032230
         H           -1.947685501319    -0.742997161958     0.000040495539     1.007825032230
         H            2.095950498681    -0.769016161958    -0.000015504461     1.007825032230

  Basis Set: AUG-CC-PVTZ
    Blend: AUG-CC-PVTZ
  Basis Set: (AUG-CC-PVTZ AUX)
    Blend: AUG-CC-PVTZ-JKFIT
	 Reference Energy          =    -224.8738559018078149 [Eh]
	 Singles Energy            =      -0.0000000000000000 [Eh]
	 Same-Spin Energy          =      -0.2454732205686974 [Eh]
	 Opposite-Spin Energy      =      -0.7457574960592994 [Eh]
	 Correlation Energy        =      -0.9912307166279968 [Eh]
	 Total Energy              =    -225.8650866184358108 [Eh]

	 ================> DF-SCS-MP2 Energies <==================
	-----------------------------------------------------------
	 SCS Same-Spin Scale       =       0.3333333333333333 [-]
	 SCS Opposite-Spin Scale   =       1.2000000000000000 [-]
	 SCS Same-Spin Energy      =      -0.0818244068562324 [Eh]
	 SCS Opposite-Spin Energy  =      -0.8949089952711593 [Eh]
	 SCS Correlation Energy    =      -0.9767334021273918 [Eh]
	 SCS Total Energy          =    -225.8505893039352088 [Eh]
	-----------------------------------------------------------

  Dipole Moment: [D]
     X:    -1.5071      Y:     1.7178      Z:     0.0001     Total:     2.2852

*** Psi4 exiting successfully. Buy a developer a beer!
