                               Psi4 1.4a3.dev225

  ==> Input File <==

--------------------------------------------------------------------------
#psi4
#
memory 32 gb

molecule  {
0 1
  N       -1.0175820    -0.3767630     0.0000260
  N        0.0381600    -1.2151070    -0.0000250
  C       -0.6759380     0.9397300     0.0000060
  C        0.7089440     0.9680670    -0.0000050
  C        1.0983770    -0.3824860    -0.0000080
  H       -1.4207460     1.7232830     0.0000220
  H        1.3110335     1.8043761    -0.0000098
  H       -1.9477390    -0.7754960     0.0000400
  H        2.0958970    -0.8015150    -0.0000160
units angstrom
no_reorient  #important for SAPT in psi4, default
symmetry c1  #important for SAPT in psi4, default
}

set PROPERTIES_ORIGIN ["COM"]
properties('MP2/aug-cc-pvtz', properties = ['dipole'])
--------------------------------------------------------------------------

    Molecular point group: c1
  Charge       = 0
  Multiplicity = 1
  Basis Set: AUG-CC-PVTZ
    Blend: AUG-CC-PVTZ
  Basis Set: (AUG-CC-PVTZ AUX)
    Blend: AUG-CC-PVTZ-JKFIT

    Orbital Energies [Eh]
    ---------------------

    Doubly Occupied:

       1A    -15.643255     2A    -15.590265     3A    -11.281739
       4A    -11.255335     5A    -11.219657     6A     -1.371312
       7A     -1.092213     8A     -1.054188     9A     -0.827581
      10A     -0.801380    11A     -0.744336    12A     -0.610319
      13A     -0.605378    14A     -0.599655    15A     -0.564048
      16A     -0.462720    17A     -0.364680    18A     -0.346039

  @DF-RHF Final Energy:  -224.87259045331675

   => Energetics <=

    Nuclear Repulsion Energy =            162.8494982302189840
    One-Electron Energy =                -626.5759763657841859
    Two-Electron Energy =                 238.8538876822484838
    Total Energy =                       -224.8725904533167466
  Basis Set: (AUG-CC-PVTZ AUX)
    Blend: AUG-CC-PVTZ-RI
    Molecular point group: c1

    Geometry (in Angstrom), charge = 0, multiplicity = 1:

       Center              X                  Y                   Z               Mass
    ------------   -----------------  -----------------  -----------------  -----------------
         N           -1.016118447015    -0.347052458431     0.000026492577    14.003074004430
         N            0.039623552985    -1.185396458431    -0.000024507423    14.003074004430
         C           -0.674474447015     0.969440541569     0.000006492577    12.000000000000
         C            0.710407552985     0.997777541569    -0.000004507423    12.000000000000
         C            1.099840552985    -0.352775458431    -0.000007507423    12.000000000000
         H           -1.419282447015     1.752993541569     0.000022492577     1.007825032230
         H            1.312497052985     1.834086641569    -0.000009307423     1.007825032230
         H           -1.946275447015    -0.745785458431     0.000040492577     1.007825032230
         H            2.097360552985    -0.771804458431    -0.000015507423     1.007825032230

  Basis Set: AUG-CC-PVTZ
    Blend: AUG-CC-PVTZ
  Basis Set: (AUG-CC-PVTZ AUX)
    Blend: AUG-CC-PVTZ-JKFIT
	 Reference Energy          =    -224.8725904533167466 [Eh]
	 Singles Energy            =      -0.0000000000000000 [Eh]
	 Same-Spin Energy          =      -0.2457813636024434 [Eh]
	 Opposite-Spin Energy      =      -0.7459978852329154 [Eh]
	 Correlation Energy        =      -0.9917792488353588 [Eh]
	 Total Energy              =    -225.8643697021521177 [Eh]

	 ================> DF-SCS-MP2 Energies <==================
	-----------------------------------------------------------
	 SCS Same-Spin Scale       =       0.3333333333333333 [-]
	 SCS Opposite-Spin Scale   =       1.2000000000000000 [-]
	 SCS Same-Spin Energy      =      -0.0819271212008145 [Eh]
	 SCS Opposite-Spin Energy  =      -0.8951974622794985 [Eh]
	 SCS Correlation Energy    =      -0.9771245834803129 [Eh]
	 SCS Total Energy          =    -225.8497150367970505 [Eh]
	-----------------------------------------------------------

  Dipole Moment: [D]
     X:    -1.5230      Y:     1.7429      Z:     0.0001     Total:     2.3146

*** Psi4 exiting successfully. Buy a developer a beer!
