                               Psi4 1.3.2 release

  ==> Input File <==

--------------------------------------------------------------------------
#psi4
#
memory 32 gb

molecule  {
0 1
  N       -1.0175820    -0.3767630     0.0000260
  N        0.0381600    -1.2151070    -0.0000250
  C       -0.6759380     0.9397300     0.0000060
  C        0.7089440     0.9680670    -0.0000050
  C        1.0983770    -0.3824860    -0.0000080
  H       -1.4207460     1.7232830     0.0000220
  H        1.2818199     1.7637981    -0.0000095
  H       -1.9477390    -0.7754960     0.0000400
  H        2.0958970    -0.8015150    -0.0000160
units angstrom
no_reorient  #important for SAPT in psi4, default
symmetry c1  #important for SAPT in psi4, default
}

set PROPERTIES_ORIGIN ["COM"]
properties('MP2/aug-cc-pvtz', properties = ['dipole'])
--------------------------------------------------------------------------

    Molecular point group: c1
  Charge       = 0
  Multiplicity = 1
  Basis Set: AUG-CC-PVTZ
    Blend: AUG-CC-PVTZ
  Basis Set: (AUG-CC-PVTZ AUX)
    Blend: AUG-CC-PVTZ-JKFIT

    Orbital Energies [Eh]
    ---------------------

    Doubly Occupied:

       1A    -15.643064     2A    -15.590004     3A    -11.281493
       4A    -11.255022     5A    -11.213797     6A     -1.371051
       7A     -1.092025     8A     -1.055978     9A     -0.831487
      10A     -0.803535    11A     -0.745964    12A     -0.616320
      13A     -0.605134    14A     -0.602855    15A     -0.563913
      16A     -0.462740    17A     -0.364522    18A     -0.345893

  @DF-RHF Final Energy:  -224.86720807603916

   => Energetics <=

    Nuclear Repulsion Energy =            163.1060611665030251
    One-Electron Energy =                -627.0569424586376499
    Two-Electron Energy =                 239.0836732160954625
    Total Energy =                       -224.8672080760391623
  Basis Set: (AUG-CC-PVTZ AUX)
    Blend: AUG-CC-PVTZ-RI
    Molecular point group: c1

    Geometry (in Angstrom), charge = 0, multiplicity = 1:

       Center              X                  Y                   Z               Mass
    ------------   -----------------  -----------------  -----------------  -----------------
         N           -1.015685711835    -0.346451384680     0.000026488133    14.003074004430
         N            0.040056288165    -1.184795384680    -0.000024511867    14.003074004430
         C           -0.674041711835     0.970041615320     0.000006488133    12.000000000000
         C            0.710840288165     0.998378615320    -0.000004511867    12.000000000000
         C            1.100273288165    -0.352174384680    -0.000007511867    12.000000000000
         H           -1.418849711835     1.753594615320     0.000022488133     1.007825032230
         H            1.283716188165     1.794109715320    -0.000009011867     1.007825032230
         H           -1.945842711835    -0.745184384680     0.000040488133     1.007825032230
         H            2.097793288165    -0.771203384680    -0.000015511867     1.007825032230

  Basis Set: AUG-CC-PVTZ
    Blend: AUG-CC-PVTZ
  Basis Set: (AUG-CC-PVTZ AUX)
    Blend: AUG-CC-PVTZ-JKFIT
	 Reference Energy          =    -224.8672080760391623 [Eh]
	 Singles Energy            =      -0.0000000000000000 [Eh]
	 Same-Spin Energy          =      -0.2457389491233142 [Eh]
	 Opposite-Spin Energy      =      -0.7459102504646669 [Eh]
	 Correlation Energy        =      -0.9916491995879810 [Eh]
	 Total Energy              =    -225.8588572756271446 [Eh]

	 ================> DF-SCS-MP2 Energies <==================
	-----------------------------------------------------------
	 SCS Same-Spin Scale       =       0.3333333333333333 [-]
	 SCS Opposite-Spin Scale   =       1.2000000000000000 [-]
	 SCS Same-Spin Energy      =      -0.0819129830411047 [Eh]
	 SCS Opposite-Spin Energy  =      -0.8950923005576003 [Eh]
	 SCS Correlation Energy    =      -0.9770052835987050 [Eh]
	 SCS Total Energy          =    -225.8442133596378767 [Eh]
	-----------------------------------------------------------

  Dipole Moment: [D]
     X:    -1.5249      Y:     1.7437      Z:     0.0001     Total:     2.3165

*** Psi4 exiting successfully. Buy a developer a beer!
