                               Psi4 1.3.2 release

  ==> Input File <==

--------------------------------------------------------------------------
#psi4
#
memory 32 gb

molecule  {
0 1
  N       -1.0175820    -0.3767630     0.0000260
  N        0.0381600    -1.2151070    -0.0000250
  C       -0.8154206     0.9682296     0.0000070
  C        0.7089440     0.9680670    -0.0000050
  C        1.0983770    -0.3824860    -0.0000080
  H       -1.4207460     1.7232830     0.0000220
  H        1.3402470     1.8449540    -0.0000100
  H       -1.9477390    -0.7754960     0.0000400
  H        2.0958970    -0.8015150    -0.0000160
units angstrom
no_reorient  #important for SAPT in psi4, default
symmetry c1  #important for SAPT in psi4, default
}

set PROPERTIES_ORIGIN ["COM"]
properties('MP2/aug-cc-pvtz', properties = ['dipole'])
--------------------------------------------------------------------------

    Molecular point group: c1
  Charge       = 0
  Multiplicity = 1
  Basis Set: AUG-CC-PVTZ
    Blend: AUG-CC-PVTZ
  Basis Set: (AUG-CC-PVTZ AUX)
    Blend: AUG-CC-PVTZ-JKFIT

    Orbital Energies [Eh]
    ---------------------

    Doubly Occupied:

       1A    -15.657666     2A    -15.591996     3A    -11.290140
       4A    -11.257789     5A    -11.237346     6A     -1.369370
       7A     -1.104054     8A     -1.030337     9A     -0.837510
      10A     -0.797059    11A     -0.764443    12A     -0.616963
      13A     -0.603281    14A     -0.596369    15A     -0.539767
      16A     -0.464953    17A     -0.370134    18A     -0.328207

  @DF-RHF Final Energy:  -224.83978579531313

   => Energetics <=

    Nuclear Repulsion Energy =            160.8420537279023108
    One-Electron Energy =                -622.4489108350620654
    Two-Electron Energy =                 236.7670713118465926
    Total Energy =                       -224.8397857953131336
  Basis Set: (AUG-CC-PVTZ AUX)
    Blend: AUG-CC-PVTZ-RI
    Molecular point group: c1

    Geometry (in Angstrom), charge = 0, multiplicity = 1:

       Center              X                  Y                   Z               Mass
    ------------   -----------------  -----------------  -----------------  -----------------
         N           -0.991950152224    -0.352680103703     0.000026319166    14.003074004430
         N            0.063791847776    -1.191024103703    -0.000024680834    14.003074004430
         C           -0.789788752224     0.992312496297     0.000007319166    12.000000000000
         C            0.734575847776     0.992149896297    -0.000004680834    12.000000000000
         C            1.124008847776    -0.358403103703    -0.000007680834    12.000000000000
         H           -1.395114152224     1.747365896297     0.000022319166     1.007825032230
         H            1.365878847776     1.869036896297    -0.000009680834     1.007825032230
         H           -1.922107152224    -0.751413103703     0.000040319166     1.007825032230
         H            2.121528847776    -0.777432103703    -0.000015680834     1.007825032230

  Basis Set: AUG-CC-PVTZ
    Blend: AUG-CC-PVTZ
  Basis Set: (AUG-CC-PVTZ AUX)
    Blend: AUG-CC-PVTZ-JKFIT
	 Reference Energy          =    -224.8397857953131336 [Eh]
	 Singles Energy            =      -0.0000000000000000 [Eh]
	 Same-Spin Energy          =      -0.2475647513225227 [Eh]
	 Opposite-Spin Energy      =      -0.7503180482157448 [Eh]
	 Correlation Energy        =      -0.9978827995382675 [Eh]
	 Total Energy              =    -225.8376685948514080 [Eh]

	 ================> DF-SCS-MP2 Energies <==================
	-----------------------------------------------------------
	 SCS Same-Spin Scale       =       0.3333333333333333 [-]
	 SCS Opposite-Spin Scale   =       1.2000000000000000 [-]
	 SCS Same-Spin Energy      =      -0.0825215837741742 [Eh]
	 SCS Opposite-Spin Energy  =      -0.9003816578588937 [Eh]
	 SCS Correlation Energy    =      -0.9829032416330679 [Eh]
	 SCS Total Energy          =    -225.8226890369462012 [Eh]
	-----------------------------------------------------------

  Dipole Moment: [D]
     X:    -1.5608      Y:     1.5883      Z:     0.0001     Total:     2.2269

*** Psi4 exiting successfully. Buy a developer a beer!
