                               Psi4 1.3.2 release

  ==> Input File <==

--------------------------------------------------------------------------
#psi4
#
memory 32 gb

molecule  {
0 1
  N       -1.0175820    -0.3767630     0.0000260
  N       -0.0430646    -1.0997230    -0.0000253
  C       -0.6759380     0.9397300     0.0000060
  C        0.7089440     0.9680670    -0.0000050
  C        1.0983770    -0.3824860    -0.0000080
  H       -1.4207460     1.7232830     0.0000220
  H        1.3402470     1.8449540    -0.0000100
  H       -1.9477390    -0.7754960     0.0000400
  H        2.0958970    -0.8015150    -0.0000160
units angstrom
no_reorient  #important for SAPT in psi4, default
symmetry c1  #important for SAPT in psi4, default
}

set PROPERTIES_ORIGIN ["COM"]
properties('MP2/aug-cc-pvtz', properties = ['dipole'])
--------------------------------------------------------------------------

    Molecular point group: c1
  Charge       = 0
  Multiplicity = 1
  Basis Set: AUG-CC-PVTZ
    Blend: AUG-CC-PVTZ
  Basis Set: (AUG-CC-PVTZ AUX)
    Blend: AUG-CC-PVTZ-JKFIT

    Orbital Energies [Eh]
    ---------------------

    Doubly Occupied:

       1A    -15.653034     2A    -15.579421     3A    -11.263390
       4A    -11.245500     5A    -11.225282     6A     -1.439569
       7A     -1.087190     8A     -1.064006     9A     -0.833605
      10A     -0.819524    11A     -0.738302    12A     -0.639274
      13A     -0.636463    14A     -0.591826    15A     -0.559497
      16A     -0.440563    17A     -0.367839    18A     -0.334160

  @DF-RHF Final Energy:  -224.85973294383575

   => Energetics <=

    Nuclear Repulsion Energy =            165.8542499433777380
    One-Electron Energy =                -632.3910784451726386
    Two-Electron Energy =                 241.6770955579591487
    Total Energy =                       -224.8597329438357519
  Basis Set: (AUG-CC-PVTZ AUX)
    Blend: AUG-CC-PVTZ-RI
    Molecular point group: c1

    Geometry (in Angstrom), charge = 0, multiplicity = 1:

       Center              X                  Y                   Z               Mass
    ------------   -----------------  -----------------  -----------------  -----------------
         N           -0.999834003396    -0.371401198127     0.000026557283    14.003074004430
         N           -0.025316603396    -1.094361198127    -0.000024742717    14.003074004430
         C           -0.658190003396     0.945091801873     0.000006557283    12.000000000000
         C            0.726691996604     0.973428801873    -0.000004442717    12.000000000000
         C            1.116124996604    -0.377124198127    -0.000007442717    12.000000000000
         H           -1.402998003396     1.728644801873     0.000022557283     1.007825032230
         H            1.357994996604     1.850315801873    -0.000009442717     1.007825032230
         H           -1.929991003396    -0.770134198127     0.000040557283     1.007825032230
         H            2.113644996604    -0.796153198127    -0.000015442717     1.007825032230

  Basis Set: AUG-CC-PVTZ
    Blend: AUG-CC-PVTZ
  Basis Set: (AUG-CC-PVTZ AUX)
    Blend: AUG-CC-PVTZ-JKFIT
	 Reference Energy          =    -224.8597329438357519 [Eh]
	 Singles Energy            =      -0.0000000000000000 [Eh]
	 Same-Spin Energy          =      -0.2456735193410465 [Eh]
	 Opposite-Spin Energy      =      -0.7421203044517310 [Eh]
	 Correlation Energy        =      -0.9877938237927775 [Eh]
	 Total Energy              =    -225.8475267676285227 [Eh]

	 ================> DF-SCS-MP2 Energies <==================
	-----------------------------------------------------------
	 SCS Same-Spin Scale       =       0.3333333333333333 [-]
	 SCS Opposite-Spin Scale   =       1.2000000000000000 [-]
	 SCS Same-Spin Energy      =      -0.0818911731136822 [Eh]
	 SCS Opposite-Spin Energy  =      -0.8905443653420773 [Eh]
	 SCS Correlation Energy    =      -0.9724355384557595 [Eh]
	 SCS Total Energy          =    -225.8321684822915074 [Eh]
	-----------------------------------------------------------

  Dipole Moment: [D]
     X:    -1.5504      Y:     1.4106      Z:     0.0001     Total:     2.0961

*** Psi4 exiting successfully. Buy a developer a beer!
