                               Psi4 1.3.2 release

  ==> Input File <==

--------------------------------------------------------------------------
#psi4
#
memory 32 gb

molecule  {
0 1
  N       -1.0175820    -0.3767630     0.0000260
  N        0.0381600    -1.2151070    -0.0000250
  C       -0.6759380     0.9397300     0.0000060
  C        0.7089440     0.9680670    -0.0000050
  C        1.0983770    -0.3824860    -0.0000080
  H       -1.4207460     1.7232830     0.0000220
  H        1.3402470     1.8449540    -0.0000100
  H       -2.0396501    -0.8148958     0.0000414
  H        2.0958970    -0.8015150    -0.0000160
units angstrom
no_reorient  #important for SAPT in psi4, default
symmetry c1  #important for SAPT in psi4, default
}

set PROPERTIES_ORIGIN ["COM"]
properties('MP2/aug-cc-pvtz', properties = ['dipole'])
--------------------------------------------------------------------------

    Molecular point group: c1
  Charge       = 0
  Multiplicity = 1
  Basis Set: AUG-CC-PVTZ
    Blend: AUG-CC-PVTZ
  Basis Set: (AUG-CC-PVTZ AUX)
    Blend: AUG-CC-PVTZ-JKFIT

    Orbital Energies [Eh]
    ---------------------

    Doubly Occupied:

       1A    -15.651373     2A    -15.589949     3A    -11.281241
       4A    -11.254821     5A    -11.224530     6A     -1.367151
       7A     -1.084739     8A     -1.048212     9A     -0.809026
      10A     -0.796122    11A     -0.737652    12A     -0.604073
      13A     -0.597090    14A     -0.591022    15A     -0.563139
      16A     -0.461378    17A     -0.363064    18A     -0.345407

  @DF-RHF Final Energy:  -224.86255288254085

   => Energetics <=

    Nuclear Repulsion Energy =            162.0806193985742141
    One-Electron Energy =                -625.1463658422776462
    Two-Electron Energy =                 238.2031935611626068
    Total Energy =                       -224.8625528825408537
  Basis Set: (AUG-CC-PVTZ AUX)
    Blend: AUG-CC-PVTZ-RI
    Molecular point group: c1

    Geometry (in Angstrom), charge = 0, multiplicity = 1:

       Center              X                  Y                   Z               Mass
    ------------   -----------------  -----------------  -----------------  -----------------
         N           -1.015189720079    -0.347069909389     0.000026474801    14.003074004430
         N            0.040552279921    -1.185413909389    -0.000024525199    14.003074004430
         C           -0.673545720079     0.969423090611     0.000006474801    12.000000000000
         C            0.711336279921     0.997760090611    -0.000004525199    12.000000000000
         C            1.100769279921    -0.352792909389    -0.000007525199    12.000000000000
         H           -1.418353720079     1.752976090611     0.000022474801     1.007825032230
         H            1.342639279921     1.874647090611    -0.000009525199     1.007825032230
         H           -2.037257820079    -0.785202709389     0.000041874801     1.007825032230
         H            2.098289279921    -0.771821909389    -0.000015525199     1.007825032230

  Basis Set: AUG-CC-PVTZ
    Blend: AUG-CC-PVTZ
  Basis Set: (AUG-CC-PVTZ AUX)
    Blend: AUG-CC-PVTZ-JKFIT
	 Reference Energy          =    -224.8625528825408537 [Eh]
	 Singles Energy            =      -0.0000000000000000 [Eh]
	 Same-Spin Energy          =      -0.2467046258419908 [Eh]
	 Opposite-Spin Energy      =      -0.7481969192657810 [Eh]
	 Correlation Energy        =      -0.9949015451077718 [Eh]
	 Total Energy              =    -225.8574544276486336 [Eh]

	 ================> DF-SCS-MP2 Energies <==================
	-----------------------------------------------------------
	 SCS Same-Spin Scale       =       0.3333333333333333 [-]
	 SCS Opposite-Spin Scale   =       1.2000000000000000 [-]
	 SCS Same-Spin Energy      =      -0.0822348752806636 [Eh]
	 SCS Opposite-Spin Energy  =      -0.8978363031189373 [Eh]
	 SCS Correlation Energy    =      -0.9800711783996008 [Eh]
	 SCS Total Energy          =    -225.8426240609404658 [Eh]
	-----------------------------------------------------------

  Dipole Moment: [D]
     X:    -1.6444      Y:     1.6757      Z:     0.0001     Total:     2.3478

*** Psi4 exiting successfully. Buy a developer a beer!
