                               Psi4 1.3.2 release

  ==> Input File <==

--------------------------------------------------------------------------
#psi4
#
memory 32 gb

molecule  {
0 1
  N       -1.0175820    -0.3767630     0.0000260
  N        0.0381600    -1.2151070    -0.0000250
  C       -0.6762216     0.9639038     0.0000060
  C        0.7089440     0.9680670    -0.0000050
  C        1.0983770    -0.3824860    -0.0000080
  H       -1.4207460     1.7232830     0.0000220
  H        1.3402470     1.8449540    -0.0000100
  H       -1.9477390    -0.7754960     0.0000400
  H        2.0958970    -0.8015150    -0.0000160
units angstrom
no_reorient  #important for SAPT in psi4, default
symmetry c1  #important for SAPT in psi4, default
}

set PROPERTIES_ORIGIN ["COM"]
properties('MP2/aug-cc-pvtz', properties = ['dipole'])
--------------------------------------------------------------------------

    Molecular point group: c1
  Charge       = 0
  Multiplicity = 1
  Basis Set: AUG-CC-PVTZ
    Blend: AUG-CC-PVTZ
  Basis Set: (AUG-CC-PVTZ AUX)
    Blend: AUG-CC-PVTZ-JKFIT

    Orbital Energies [Eh]
    ---------------------

    Doubly Occupied:

       1A    -15.642663     2A    -15.593128     3A    -11.282520
       4A    -11.255723     5A    -11.227309     6A     -1.367050
       7A     -1.088734     8A     -1.053119     9A     -0.825152
      10A     -0.797697    11A     -0.743212    12A     -0.608833
      13A     -0.602079    14A     -0.590399    15A     -0.567833
      16A     -0.463539    17A     -0.363510    18A     -0.346852

  @DF-RHF Final Energy:  -224.87160736869626

   => Energetics <=

    Nuclear Repulsion Energy =            162.2168821336655640
    One-Electron Energy =                -625.3382738073339624
    Two-Electron Energy =                 238.2497843049721666
    Total Energy =                       -224.8716073686962602
  Basis Set: (AUG-CC-PVTZ AUX)
    Blend: AUG-CC-PVTZ-RI
    Molecular point group: c1

    Geometry (in Angstrom), charge = 0, multiplicity = 1:

       Center              X                  Y                   Z               Mass
    ------------   -----------------  -----------------  -----------------  -----------------
         N           -1.016501161201    -0.351917147399     0.000026495539    14.003074004430
         N            0.039240838799    -1.190261147399    -0.000024504461    14.003074004430
         C           -0.675140761201     0.988749652601     0.000006495539    12.000000000000
         C            0.710024838799     0.992912852601    -0.000004504461    12.000000000000
         C            1.099457838799    -0.357640147399    -0.000007504461    12.000000000000
         H           -1.419665161201     1.748128852601     0.000022495539     1.007825032230
         H            1.341327838799     1.869799852601    -0.000009504461     1.007825032230
         H           -1.946658161201    -0.750650147399     0.000040495539     1.007825032230
         H            2.096977838799    -0.776669147399    -0.000015504461     1.007825032230

  Basis Set: AUG-CC-PVTZ
    Blend: AUG-CC-PVTZ
  Basis Set: (AUG-CC-PVTZ AUX)
    Blend: AUG-CC-PVTZ-JKFIT
	 Reference Energy          =    -224.8716073686962602 [Eh]
	 Singles Energy            =      -0.0000000000000000 [Eh]
	 Same-Spin Energy          =      -0.2460502881198287 [Eh]
	 Opposite-Spin Energy      =      -0.7469275714360724 [Eh]
	 Correlation Energy        =      -0.9929778595559010 [Eh]
	 Total Energy              =    -225.8645852282521673 [Eh]

	 ================> DF-SCS-MP2 Energies <==================
	-----------------------------------------------------------
	 SCS Same-Spin Scale       =       0.3333333333333333 [-]
	 SCS Opposite-Spin Scale   =       1.2000000000000000 [-]
	 SCS Same-Spin Energy      =      -0.0820167627066096 [Eh]
	 SCS Opposite-Spin Energy  =      -0.8963130857232868 [Eh]
	 SCS Correlation Energy    =      -0.9783298484298963 [Eh]
	 SCS Total Energy          =    -225.8499372171261541 [Eh]
	-----------------------------------------------------------

  Dipole Moment: [D]
     X:    -1.4915      Y:     1.7477      Z:     0.0001     Total:     2.2976

*** Psi4 exiting successfully. Buy a developer a beer!
