                               Psi4 1.3.2 release

  ==> Input File <==

--------------------------------------------------------------------------
#psi4
#
memory 32 gb

molecule  {
0 1
  N       -1.0175820    -0.3767630     0.0000260
  N        0.0381600    -1.2151070    -0.0000250
  C       -0.7010570     0.8429362     0.0000075
  C        0.7089440     0.9680670    -0.0000050
  C        1.0983770    -0.3824860    -0.0000080
  H       -1.4207460     1.7232830     0.0000220
  H        1.3402470     1.8449540    -0.0000100
  H       -1.9477390    -0.7754960     0.0000400
  H        2.0958970    -0.8015150    -0.0000160
units angstrom
no_reorient  #important for SAPT in psi4, default
symmetry c1  #important for SAPT in psi4, default
}

set PROPERTIES_ORIGIN ["COM"]
properties('MP2/aug-cc-pvtz', properties = ['dipole'])
--------------------------------------------------------------------------

    Molecular point group: c1
  Charge       = 0
  Multiplicity = 1
  Basis Set: AUG-CC-PVTZ
    Blend: AUG-CC-PVTZ
  Basis Set: (AUG-CC-PVTZ AUX)
    Blend: AUG-CC-PVTZ-JKFIT

    Orbital Energies [Eh]
    ---------------------

    Doubly Occupied:

       1A    -15.648627     2A    -15.579444     3A    -11.282263
       4A    -11.256031     5A    -11.220605     6A     -1.395397
       7A     -1.112760     8A     -1.045631     9A     -0.830853
      10A     -0.806439    11A     -0.740069    12A     -0.623386
      13A     -0.614284    14A     -0.594978    15A     -0.540018
      16A     -0.458597    17A     -0.375679    18A     -0.336633

  @DF-RHF Final Energy:  -224.86387170455444

   => Energetics <=

    Nuclear Repulsion Energy =            164.0171721508172311
    One-Electron Energy =                -628.8387036969824067
    Two-Electron Energy =                 239.9576598416107061
    Total Energy =                       -224.8638717045544411
  Basis Set: (AUG-CC-PVTZ AUX)
    Blend: AUG-CC-PVTZ-RI
    Molecular point group: c1

    Geometry (in Angstrom), charge = 0, multiplicity = 1:

       Center              X                  Y                   Z               Mass
    ------------   -----------------  -----------------  -----------------  -----------------
         N           -1.012120855823    -0.330581673483     0.000026230979    14.003074004430
         N            0.043621144177    -1.168925673483    -0.000024769021    14.003074004430
         C           -0.695595855823     0.889117526517     0.000007730979    12.000000000000
         C            0.714405144177     1.014248326517    -0.000004769021    12.000000000000
         C            1.103838144177    -0.336304673483    -0.000007769021    12.000000000000
         H           -1.415284855823     1.769464326517     0.000022230979     1.007825032230
         H            1.345708144177     1.891135326517    -0.000009769021     1.007825032230
         H           -1.942277855823    -0.729314673483     0.000040230979     1.007825032230
         H            2.101358144177    -0.755333673483    -0.000015769021     1.007825032230

  Basis Set: AUG-CC-PVTZ
    Blend: AUG-CC-PVTZ
  Basis Set: (AUG-CC-PVTZ AUX)
    Blend: AUG-CC-PVTZ-JKFIT
	 Reference Energy          =    -224.8638717045544411 [Eh]
	 Singles Energy            =      -0.0000000000000000 [Eh]
	 Same-Spin Energy          =      -0.2452422102426057 [Eh]
	 Opposite-Spin Energy      =      -0.7438606929011431 [Eh]
	 Correlation Energy        =      -0.9891029031437488 [Eh]
	 Total Energy              =    -225.8529746076982008 [Eh]

	 ================> DF-SCS-MP2 Energies <==================
	-----------------------------------------------------------
	 SCS Same-Spin Scale       =       0.3333333333333333 [-]
	 SCS Opposite-Spin Scale   =       1.2000000000000000 [-]
	 SCS Same-Spin Energy      =      -0.0817474034142019 [Eh]
	 SCS Opposite-Spin Energy  =      -0.8926328314813717 [Eh]
	 SCS Correlation Energy    =      -0.9743802348955737 [Eh]
	 SCS Total Energy          =    -225.8382519394500036 [Eh]
	-----------------------------------------------------------

  Dipole Moment: [D]
     X:    -1.6865      Y:     1.6899      Z:     0.0001     Total:     2.3875

*** Psi4 exiting successfully. Buy a developer a beer!
