                               Psi4 1.4a3.dev225

  ==> Input File <==

--------------------------------------------------------------------------
#psi4
#
memory 32 gb

molecule  {
0 1
  N       -1.0175820    -0.3767630     0.0000260
  N        0.0381600    -1.2151070    -0.0000250
  C       -0.6884975     0.8913331     0.0000067
  C        0.7089440     0.9680670    -0.0000050
  C        1.0983770    -0.3824860    -0.0000080
  H       -1.4207460     1.7232830     0.0000220
  H        1.3402470     1.8449540    -0.0000100
  H       -1.9477390    -0.7754960     0.0000400
  H        2.0958970    -0.8015150    -0.0000160
units angstrom
no_reorient  #important for SAPT in psi4, default
symmetry c1  #important for SAPT in psi4, default
}

set PROPERTIES_ORIGIN ["COM"]
properties('MP2/aug-cc-pvtz', properties = ['dipole'])
--------------------------------------------------------------------------

    Molecular point group: c1
  Charge       = 0
  Multiplicity = 1
  Basis Set: AUG-CC-PVTZ
    Blend: AUG-CC-PVTZ
  Basis Set: (AUG-CC-PVTZ AUX)
    Blend: AUG-CC-PVTZ-JKFIT

    Orbital Energies [Eh]
    ---------------------

    Doubly Occupied:

       1A    -15.646257     2A    -15.585072     3A    -11.282061
       4A    -11.255859     5A    -11.222879     6A     -1.382450
       7A     -1.102184     8A     -1.049288     9A     -0.826807
      10A     -0.802653    11A     -0.742202    12A     -0.613840
      13A     -0.609452    14A     -0.595213    15A     -0.553196
      16A     -0.460817    17A     -0.369592    18A     -0.341906

  @DF-RHF Final Energy:  -224.87231747003071

   => Energetics <=

    Nuclear Repulsion Energy =            163.2935040579484678
    One-Electron Energy =                -627.4481909264582100
    Two-Electron Energy =                 239.2823693984790623
    Total Energy =                       -224.8723174700307084
  Basis Set: (AUG-CC-PVTZ AUX)
    Blend: AUG-CC-PVTZ-RI
    Molecular point group: c1

    Geometry (in Angstrom), charge = 0, multiplicity = 1:

       Center              X                  Y                   Z               Mass
    ------------   -----------------  -----------------  -----------------  -----------------
         N           -1.014336018269    -0.339117602092     0.000026372078    14.003074004430
         N            0.041405981731    -1.177461602092    -0.000024627922    14.003074004430
         C           -0.685251518269     0.928978497908     0.000007072078    12.000000000000
         C            0.712189981731     1.005712397908    -0.000004627922    12.000000000000
         C            1.101622981731    -0.344840602092    -0.000007627922    12.000000000000
         H           -1.417500018269     1.760928397908     0.000022372078     1.007825032230
         H            1.343492981731     1.882599397908    -0.000009627922     1.007825032230
         H           -1.944493018269    -0.737850602092     0.000040372078     1.007825032230
         H            2.099142981731    -0.763869602092    -0.000015627922     1.007825032230

  Basis Set: AUG-CC-PVTZ
    Blend: AUG-CC-PVTZ
  Basis Set: (AUG-CC-PVTZ AUX)
    Blend: AUG-CC-PVTZ-JKFIT
	 Reference Energy          =    -224.8723174700307084 [Eh]
	 Singles Energy            =      -0.0000000000000000 [Eh]
	 Same-Spin Energy          =      -0.2455454871912754 [Eh]
	 Opposite-Spin Energy      =      -0.7449874235407213 [Eh]
	 Correlation Energy        =      -0.9905329107319967 [Eh]
	 Total Energy              =    -225.8628503807626942 [Eh]

	 ================> DF-SCS-MP2 Energies <==================
	-----------------------------------------------------------
	 SCS Same-Spin Scale       =       0.3333333333333333 [-]
	 SCS Opposite-Spin Scale   =       1.2000000000000000 [-]
	 SCS Same-Spin Energy      =      -0.0818484957304251 [Eh]
	 SCS Opposite-Spin Energy  =      -0.8939849082488656 [Eh]
	 SCS Correlation Energy    =      -0.9758334039792906 [Eh]
	 SCS Total Energy          =    -225.8481508740100026 [Eh]
	-----------------------------------------------------------

  Dipole Moment: [D]
     X:    -1.6013      Y:     1.7132      Z:     0.0001     Total:     2.3451

*** Psi4 exiting successfully. Buy a developer a beer!
