                               Psi4 1.3.2 release

  ==> Input File <==

--------------------------------------------------------------------------
#psi4
#
memory 32 gb

molecule  {
0 1
  N       -0.9876811    -0.3404288     0.0000270
  N        0.0381600    -1.2151070    -0.0000250
  C       -0.6759380     0.9397300     0.0000060
  C        0.7089440     0.9680670    -0.0000050
  C        1.0983770    -0.3824860    -0.0000080
  H       -1.4207460     1.7232830     0.0000220
  H        1.3402470     1.8449540    -0.0000100
  H       -1.9477390    -0.7754960     0.0000400
  H        2.0958970    -0.8015150    -0.0000160
units angstrom
no_reorient  #important for SAPT in psi4, default
symmetry c1  #important for SAPT in psi4, default
}

set PROPERTIES_ORIGIN ["COM"]
properties('MP2/aug-cc-pvtz', properties = ['dipole'])
--------------------------------------------------------------------------

    Molecular point group: c1
  Charge       = 0
  Multiplicity = 1
  Basis Set: AUG-CC-PVTZ
    Blend: AUG-CC-PVTZ
  Basis Set: (AUG-CC-PVTZ AUX)
    Blend: AUG-CC-PVTZ-JKFIT

    Orbital Energies [Eh]
    ---------------------

    Doubly Occupied:

       1A    -15.646755     2A    -15.588179     3A    -11.278763
       4A    -11.254677     5A    -11.221361     6A     -1.380130
       7A     -1.099250     8A     -1.050279     9A     -0.816765
      10A     -0.800460    11A     -0.747414    12A     -0.612699
      13A     -0.594599    14A     -0.593483    15A     -0.563515
      16A     -0.466963    17A     -0.365873    18A     -0.345274

  @DF-RHF Final Energy:  -224.86960516923500

   => Energetics <=

    Nuclear Repulsion Energy =            163.4083386613183677
    One-Electron Energy =                -627.7030109733980225
    Two-Electron Energy =                 239.4250671428446822
    Total Energy =                       -224.8696051692350011
  Basis Set: (AUG-CC-PVTZ AUX)
    Blend: AUG-CC-PVTZ-RI
    Molecular point group: c1

    Geometry (in Angstrom), charge = 0, multiplicity = 1:

       Center              X                  Y                   Z               Mass
    ------------   -----------------  -----------------  -----------------  -----------------
         N           -0.992804310986    -0.318797425564     0.000027289725    14.003074004430
         N            0.033036789014    -1.193475625564    -0.000024710275    14.003074004430
         C           -0.681061210986     0.961361374436     0.000006289725    12.000000000000
         C            0.703820789014     0.989698374436    -0.000004710275    12.000000000000
         C            1.093253789014    -0.360854625564    -0.000007710275    12.000000000000
         H           -1.425869210986     1.744914374436     0.000022289725     1.007825032230
         H            1.335123789014     1.866585374436    -0.000009710275     1.007825032230
         H           -1.952862210986    -0.753864625564     0.000040289725     1.007825032230
         H            2.090773789014    -0.779883625564    -0.000015710275     1.007825032230

  Basis Set: AUG-CC-PVTZ
    Blend: AUG-CC-PVTZ
  Basis Set: (AUG-CC-PVTZ AUX)
    Blend: AUG-CC-PVTZ-JKFIT
	 Reference Energy          =    -224.8696051692350011 [Eh]
	 Singles Energy            =      -0.0000000000000000 [Eh]
	 Same-Spin Energy          =      -0.2461766193249466 [Eh]
	 Opposite-Spin Energy      =      -0.7461796201113612 [Eh]
	 Correlation Energy        =      -0.9923562394363077 [Eh]
	 Total Energy              =    -225.8619614086713057 [Eh]

	 ================> DF-SCS-MP2 Energies <==================
	-----------------------------------------------------------
	 SCS Same-Spin Scale       =       0.3333333333333333 [-]
	 SCS Opposite-Spin Scale   =       1.2000000000000000 [-]
	 SCS Same-Spin Energy      =      -0.0820588731083155 [Eh]
	 SCS Opposite-Spin Energy  =      -0.8954155441336334 [Eh]
	 SCS Correlation Energy    =      -0.9774744172419489 [Eh]
	 SCS Total Energy          =    -225.8470795864769514 [Eh]
	-----------------------------------------------------------

  Dipole Moment: [D]
     X:    -1.6293      Y:     1.7155      Z:     0.0001     Total:     2.3660

*** Psi4 exiting successfully. Buy a developer a beer!
