                               Psi4 1.3.2 release

  ==> Input File <==

--------------------------------------------------------------------------
#psi4
#
memory 32 gb

molecule  {
0 1
  N       -1.0175820    -0.3767630     0.0000260
  N        0.0381600    -1.2151070    -0.0000250
  C       -0.6302012     0.9270048     0.0000057
  C        0.7089440     0.9680670    -0.0000050
  C        1.0983770    -0.3824860    -0.0000080
  H       -1.4207460     1.7232830     0.0000220
  H        1.3402470     1.8449540    -0.0000100
  H       -1.9477390    -0.7754960     0.0000400
  H        2.0958970    -0.8015150    -0.0000160
units angstrom
no_reorient  #important for SAPT in psi4, default
symmetry c1  #important for SAPT in psi4, default
}

set PROPERTIES_ORIGIN ["COM"]
properties('MP2/aug-cc-pvtz', properties = ['dipole'])
--------------------------------------------------------------------------

    Molecular point group: c1
  Charge       = 0
  Multiplicity = 1
  Basis Set: AUG-CC-PVTZ
    Blend: AUG-CC-PVTZ
  Basis Set: (AUG-CC-PVTZ AUX)
    Blend: AUG-CC-PVTZ-JKFIT

    Orbital Energies [Eh]
    ---------------------

    Doubly Occupied:

       1A    -15.639340     2A    -15.590254     3A    -11.279452
       4A    -11.255409     5A    -11.220852     6A     -1.373124
       7A     -1.088857     8A     -1.062608     9A     -0.823332
      10A     -0.800265    11A     -0.736526    12A     -0.614260
      13A     -0.607341    14A     -0.587949    15A     -0.560976
      16A     -0.461901    17A     -0.365969    18A     -0.351129

  @DF-RHF Final Energy:  -224.87143274559102

   => Energetics <=

    Nuclear Repulsion Energy =            163.2841881067517988
    One-Electron Energy =                -627.4721529854987239
    Two-Electron Energy =                 239.3165321331559028
    Total Energy =                       -224.8714327455910222
  Basis Set: (AUG-CC-PVTZ AUX)
    Blend: AUG-CC-PVTZ-RI
    Molecular point group: c1

    Geometry (in Angstrom), charge = 0, multiplicity = 1:

       Center              X                  Y                   Z               Mass
    ------------   -----------------  -----------------  -----------------  -----------------
         N           -1.024617938287    -0.345409143173     0.000026548451    14.003074004430
         N            0.031124061713    -1.183753143173    -0.000024451549    14.003074004430
         C           -0.637237138287     0.958358656827     0.000006248451    12.000000000000
         C            0.701908061713     0.999420856827    -0.000004451549    12.000000000000
         C            1.091341061713    -0.351132143173    -0.000007451549    12.000000000000
         H           -1.427781938287     1.754636856827     0.000022548451     1.007825032230
         H            1.333211061713     1.876307856827    -0.000009451549     1.007825032230
         H           -1.954774938287    -0.744142143173     0.000040548451     1.007825032230
         H            2.088861061713    -0.770161143173    -0.000015451549     1.007825032230

  Basis Set: AUG-CC-PVTZ
    Blend: AUG-CC-PVTZ
  Basis Set: (AUG-CC-PVTZ AUX)
    Blend: AUG-CC-PVTZ-JKFIT
	 Reference Energy          =    -224.8714327455910222 [Eh]
	 Singles Energy            =      -0.0000000000000000 [Eh]
	 Same-Spin Energy          =      -0.2454604630316272 [Eh]
	 Opposite-Spin Energy      =      -0.7454855651929617 [Eh]
	 Correlation Energy        =      -0.9909460282245889 [Eh]
	 Total Energy              =    -225.8623787738156068 [Eh]

	 ================> DF-SCS-MP2 Energies <==================
	-----------------------------------------------------------
	 SCS Same-Spin Scale       =       0.3333333333333333 [-]
	 SCS Opposite-Spin Scale   =       1.2000000000000000 [-]
	 SCS Same-Spin Energy      =      -0.0818201543438757 [Eh]
	 SCS Opposite-Spin Energy  =      -0.8945826782315540 [Eh]
	 SCS Correlation Energy    =      -0.9764028325754297 [Eh]
	 SCS Total Energy          =    -225.8478355781664391 [Eh]
	-----------------------------------------------------------

  Dipole Moment: [D]
     X:    -1.4820      Y:     1.7730      Z:     0.0001     Total:     2.3108

*** Psi4 exiting successfully. Buy a developer a beer!
