                               Psi4 1.4a3.dev225

  ==> Input File <==

--------------------------------------------------------------------------
#psi4
#
memory 32 gb

molecule  {
0 1
  N       -1.0175820    -0.3767630     0.0000260
  N        0.0381600    -1.2151070    -0.0000250
  C       -0.6759380     0.9397300     0.0000060
  C        0.7089440     0.9680670    -0.0000050
  C        1.0983770    -0.3824860    -0.0000080
  H       -1.4207460     1.7232830     0.0000220
  H        1.3402470     1.8449540    -0.0000100
  H       -1.9936946    -0.7951959     0.0000407
  H        2.0958970    -0.8015150    -0.0000160
units angstrom
no_reorient  #important for SAPT in psi4, default
symmetry c1  #important for SAPT in psi4, default
}

set PROPERTIES_ORIGIN ["COM"]
properties('MP2/aug-cc-pvtz', properties = ['dipole'])
--------------------------------------------------------------------------

    Molecular point group: c1
  Charge       = 0
  Multiplicity = 1
  Basis Set: AUG-CC-PVTZ
    Blend: AUG-CC-PVTZ
  Basis Set: (AUG-CC-PVTZ AUX)
    Blend: AUG-CC-PVTZ-JKFIT

    Orbital Energies [Eh]
    ---------------------

    Doubly Occupied:

       1A    -15.647645     2A    -15.590240     3A    -11.281632
       4A    -11.255251     5A    -11.224957     6A     -1.369200
       7A     -1.088136     8A     -1.050494     9A     -0.816174
      10A     -0.797899    11A     -0.740350    12A     -0.604847
      13A     -0.602610    14A     -0.591904    15A     -0.563606
      16A     -0.462044    17A     -0.363953    18A     -0.345819

  @DF-RHF Final Energy:  -224.86956446922784

   => Energetics <=

    Nuclear Repulsion Energy =            162.3362692906637506
    One-Electron Energy =                -625.6181452960117895
    Two-Electron Energy =                 238.4123115361202281
    Total Energy =                       -224.8695644692278393
  Basis Set: (AUG-CC-PVTZ AUX)
    Blend: AUG-CC-PVTZ-RI
    Molecular point group: c1

    Geometry (in Angstrom), charge = 0, multiplicity = 1:

       Center              X                  Y                   Z               Mass
    ------------   -----------------  -----------------  -----------------  -----------------
         N           -1.015870449656    -0.347361720044     0.000026485170    14.003074004430
         N            0.039871550344    -1.185705720044    -0.000024514830    14.003074004430
         C           -0.674226449656     0.969131279956     0.000006485170    12.000000000000
         C            0.710655550344     0.997468279956    -0.000004514830    12.000000000000
         C            1.100088550344    -0.353084720044    -0.000007514830    12.000000000000
         H           -1.419034449656     1.752684279956     0.000022485170     1.007825032230
         H            1.341958550344     1.874355279956    -0.000009514830     1.007825032230
         H           -1.991983049656    -0.765794620044     0.000041185170     1.007825032230
         H            2.097608550344    -0.772113720044    -0.000015514830     1.007825032230

  Basis Set: AUG-CC-PVTZ
    Blend: AUG-CC-PVTZ
  Basis Set: (AUG-CC-PVTZ AUX)
    Blend: AUG-CC-PVTZ-JKFIT
	 Reference Energy          =    -224.8695644692278393 [Eh]
	 Singles Energy            =      -0.0000000000000000 [Eh]
	 Same-Spin Energy          =      -0.2462662009730519 [Eh]
	 Opposite-Spin Energy      =      -0.7471479540517417 [Eh]
	 Correlation Energy        =      -0.9934141550247937 [Eh]
	 Total Energy              =    -225.8629786242526336 [Eh]

	 ================> DF-SCS-MP2 Energies <==================
	-----------------------------------------------------------
	 SCS Same-Spin Scale       =       0.3333333333333333 [-]
	 SCS Opposite-Spin Scale   =       1.2000000000000000 [-]
	 SCS Same-Spin Energy      =      -0.0820887336576840 [Eh]
	 SCS Opposite-Spin Energy  =      -0.8965775448620901 [Eh]
	 SCS Correlation Energy    =      -0.9786662785197741 [Eh]
	 SCS Total Energy          =    -225.8482307477476070 [Eh]
	-----------------------------------------------------------

  Dipole Moment: [D]
     X:    -1.5842      Y:     1.7077      Z:     0.0001     Total:     2.3294

*** Psi4 exiting successfully. Buy a developer a beer!
