                               Psi4 1.3.2 release

  ==> Input File <==

--------------------------------------------------------------------------
#psi4
#
memory 32 gb

molecule  {
0 1
  N       -1.0175820    -0.3767630     0.0000260
  N        0.0381600    -1.2151070    -0.0000250
  C       -0.6759380     0.9397300     0.0000060
  C        0.7563149     0.9808353    -0.0000054
  C        1.0983770    -0.3824860    -0.0000080
  H       -1.4207460     1.7232830     0.0000220
  H        1.3402470     1.8449540    -0.0000100
  H       -1.9477390    -0.7754960     0.0000400
  H        2.0958970    -0.8015150    -0.0000160
units angstrom
no_reorient  #important for SAPT in psi4, default
symmetry c1  #important for SAPT in psi4, default
}

set PROPERTIES_ORIGIN ["COM"]
properties('MP2/aug-cc-pvtz', properties = ['dipole'])
--------------------------------------------------------------------------

    Molecular point group: c1
  Charge       = 0
  Multiplicity = 1
  Basis Set: AUG-CC-PVTZ
    Blend: AUG-CC-PVTZ
  Basis Set: (AUG-CC-PVTZ AUX)
    Blend: AUG-CC-PVTZ-JKFIT

    Orbital Energies [Eh]
    ---------------------

    Doubly Occupied:

       1A    -15.647768     2A    -15.589044     3A    -11.288717
       4A    -11.257125     5A    -11.227924     6A     -1.370564
       7A     -1.093168     8A     -1.046570     9A     -0.829646
      10A     -0.799433    11A     -0.742411    12A     -0.610576
      13A     -0.604326    14A     -0.604294    15A     -0.551546
      16A     -0.463661    17A     -0.366771    18A     -0.340254

  @DF-RHF Final Energy:  -224.86897327797280

   => Energetics <=

    Nuclear Repulsion Energy =            161.9138470965972374
    One-Electron Energy =                -624.6980433030688573
    Two-Electron Energy =                 237.9152229284988209
    Total Energy =                       -224.8689732779727990
  Basis Set: (AUG-CC-PVTZ AUX)
    Blend: AUG-CC-PVTZ-RI
    Molecular point group: c1

    Geometry (in Angstrom), charge = 0, multiplicity = 1:

       Center              X                  Y                   Z               Mass
    ------------   -----------------  -----------------  -----------------  -----------------
         N           -1.024906150154    -0.349905519924     0.000026566089    14.003074004430
         N            0.030835849846    -1.188249519924    -0.000024433911    14.003074004430
         C           -0.683262150154     0.966587480076     0.000006566089    12.000000000000
         C            0.748990749846     1.007692780076    -0.000004833911    12.000000000000
         C            1.091052849846    -0.355628519924    -0.000007433911    12.000000000000
         H           -1.428070150154     1.750140480076     0.000022566089     1.007825032230
         H            1.332922849846     1.871811480076    -0.000009433911     1.007825032230
         H           -1.955063150154    -0.748638519924     0.000040566089     1.007825032230
         H            2.088572849846    -0.774657519924    -0.000015433911     1.007825032230

  Basis Set: AUG-CC-PVTZ
    Blend: AUG-CC-PVTZ
  Basis Set: (AUG-CC-PVTZ AUX)
    Blend: AUG-CC-PVTZ-JKFIT
	 Reference Energy          =    -224.8689732779727990 [Eh]
	 Singles Energy            =      -0.0000000000000000 [Eh]
	 Same-Spin Energy          =      -0.2461336341573476 [Eh]
	 Opposite-Spin Energy      =      -0.7470252674798685 [Eh]
	 Correlation Energy        =      -0.9931589016372162 [Eh]
	 Total Energy              =    -225.8621321796100290 [Eh]

	 ================> DF-SCS-MP2 Energies <==================
	-----------------------------------------------------------
	 SCS Same-Spin Scale       =       0.3333333333333333 [-]
	 SCS Opposite-Spin Scale   =       1.2000000000000000 [-]
	 SCS Same-Spin Energy      =      -0.0820445447191159 [Eh]
	 SCS Opposite-Spin Energy  =      -0.8964303209758422 [Eh]
	 SCS Correlation Energy    =      -0.9784748656949580 [Eh]
	 SCS Total Energy          =    -225.8474481436677479 [Eh]
	-----------------------------------------------------------

  Dipole Moment: [D]
     X:    -1.5525      Y:     1.7223      Z:     0.0001     Total:     2.3188

*** Psi4 exiting successfully. Buy a developer a beer!
