                               Psi4 1.4a3.dev225

  ==> Input File <==

--------------------------------------------------------------------------
#psi4
#
memory 32 gb

molecule  {
0 1
  N       -1.0175820    -0.3767630     0.0000260
  N       -0.0009963    -1.1840138    -0.0000231
  C       -0.6759380     0.9397300     0.0000060
  C        0.7089440     0.9680670    -0.0000050
  C        1.0983770    -0.3824860    -0.0000080
  H       -1.4207460     1.7232830     0.0000220
  H        1.3402470     1.8449540    -0.0000100
  H       -1.9477390    -0.7754960     0.0000400
  H        2.0958970    -0.8015150    -0.0000160
units angstrom
no_reorient  #important for SAPT in psi4, default
symmetry c1  #important for SAPT in psi4, default
}

set PROPERTIES_ORIGIN ["COM"]
properties('MP2/aug-cc-pvtz', properties = ['dipole'])
--------------------------------------------------------------------------

    Molecular point group: c1
  Charge       = 0
  Multiplicity = 1
  Basis Set: AUG-CC-PVTZ
    Blend: AUG-CC-PVTZ
  Basis Set: (AUG-CC-PVTZ AUX)
    Blend: AUG-CC-PVTZ-JKFIT

    Orbital Energies [Eh]
    ---------------------

    Doubly Occupied:

       1A    -15.648074     2A    -15.588053     3A    -11.275873
       4A    -11.253259     5A    -11.226203     6A     -1.392918
       7A     -1.086237     8A     -1.058893     9A     -0.826949
      10A     -0.805664    11A     -0.741596    12A     -0.616437
      13A     -0.615797    14A     -0.593189    15A     -0.562594
      16A     -0.457290    17A     -0.364089    18A     -0.342419

  @DF-RHF Final Energy:  -224.87279215809414

   => Energetics <=

    Nuclear Repulsion Energy =            163.4936932686159707
    One-Electron Energy =                -627.8219011170505155
    Two-Electron Energy =                 239.4554156903404021
    Total Energy =                       -224.8727921580941427
  Basis Set: (AUG-CC-PVTZ AUX)
    Blend: AUG-CC-PVTZ-RI
    Molecular point group: c1

    Geometry (in Angstrom), charge = 0, multiplicity = 1:

       Center              X                  Y                   Z               Mass
    ------------   -----------------  -----------------  -----------------  -----------------
         N           -1.008492257553    -0.354052953262     0.000026104492    14.003074004430
         N            0.008093442447    -1.161303753262    -0.000022995508    14.003074004430
         C           -0.666848257553     0.962440046738     0.000006104492    12.000000000000
         C            0.718033742447     0.990777046738    -0.000004895508    12.000000000000
         C            1.107466742447    -0.359775953262    -0.000007895508    12.000000000000
         H           -1.411656257553     1.745993046738     0.000022104492     1.007825032230
         H            1.349336742447     1.867664046738    -0.000009895508     1.007825032230
         H           -1.938649257553    -0.752785953262     0.000040104492     1.007825032230
         H            2.104986742447    -0.778804953262    -0.000015895508     1.007825032230

  Basis Set: AUG-CC-PVTZ
    Blend: AUG-CC-PVTZ
  Basis Set: (AUG-CC-PVTZ AUX)
    Blend: AUG-CC-PVTZ-JKFIT
	 Reference Energy          =    -224.8727921580941427 [Eh]
	 Singles Energy            =      -0.0000000000000000 [Eh]
	 Same-Spin Energy          =      -0.2460849117545164 [Eh]
	 Opposite-Spin Energy      =      -0.7453190993382265 [Eh]
	 Correlation Energy        =      -0.9914040110927429 [Eh]
	 Total Energy              =    -225.8641961691868971 [Eh]

	 ================> DF-SCS-MP2 Energies <==================
	-----------------------------------------------------------
	 SCS Same-Spin Scale       =       0.3333333333333333 [-]
	 SCS Opposite-Spin Scale   =       1.2000000000000000 [-]
	 SCS Same-Spin Energy      =      -0.0820283039181721 [Eh]
	 SCS Opposite-Spin Energy  =      -0.8943829192058718 [Eh]
	 SCS Correlation Energy    =      -0.9764112231240439 [Eh]
	 SCS Total Energy          =    -225.8492033812181887 [Eh]
	-----------------------------------------------------------

  Dipole Moment: [D]
     X:    -1.5340      Y:     1.6700      Z:     0.0001     Total:     2.2676

*** Psi4 exiting successfully. Buy a developer a beer!
