                               Psi4 1.3.2 release

  ==> Input File <==

--------------------------------------------------------------------------
#psi4
#
memory 32 gb

molecule  {
0 1
  N       -1.0175820    -0.3767630     0.0000260
  N        0.0381600    -1.2151070    -0.0000250
  C       -0.6759380     0.9397300     0.0000060
  C        0.7089440     0.9680670    -0.0000050
  C        1.0429645    -0.1903156    -0.0000076
  H       -1.4207460     1.7232830     0.0000220
  H        1.3402470     1.8449540    -0.0000100
  H       -1.9477390    -0.7754960     0.0000400
  H        2.0958970    -0.8015150    -0.0000160
units angstrom
no_reorient  #important for SAPT in psi4, default
symmetry c1  #important for SAPT in psi4, default
}

set PROPERTIES_ORIGIN ["COM"]
properties('MP2/aug-cc-pvtz', properties = ['dipole'])
--------------------------------------------------------------------------

    Molecular point group: c1
  Charge       = 0
  Multiplicity = 1
  Basis Set: AUG-CC-PVTZ
    Blend: AUG-CC-PVTZ
  Basis Set: (AUG-CC-PVTZ AUX)
    Blend: AUG-CC-PVTZ-JKFIT

    Orbital Energies [Eh]
    ---------------------

    Doubly Occupied:

       1A    -15.658912     2A    -15.585049     3A    -11.284238
       4A    -11.246648     5A    -11.208869     6A     -1.376036
       7A     -1.108646     8A     -1.063516     9A     -0.853018
      10A     -0.773873    11A     -0.746324    12A     -0.619793
      13A     -0.612191    14A     -0.597922    15A     -0.508705
      16A     -0.469779    17A     -0.401855    18A     -0.327050

  @DF-RHF Final Energy:  -224.80076588838520

   => Energetics <=

    Nuclear Repulsion Energy =            164.6070046739900192
    One-Electron Energy =                -629.9306978533434176
    Two-Electron Energy =                 240.5229272909682265
    Total Energy =                       -224.8007658883852002
  Basis Set: (AUG-CC-PVTZ AUX)
    Blend: AUG-CC-PVTZ-RI
    Molecular point group: c1

    Geometry (in Angstrom), charge = 0, multiplicity = 1:

       Center              X                  Y                   Z               Mass
    ------------   -----------------  -----------------  -----------------  -----------------
         N           -1.006777886474    -0.381547288669     0.000026424990    14.003074004430
         N            0.048964113526    -1.219891288669    -0.000024575010    14.003074004430
         C           -0.665133886474     0.934945711331     0.000006424990    12.000000000000
         C            0.719748113526     0.963282711331    -0.000004575010    12.000000000000
         C            1.053768613526    -0.195099888669    -0.000007175010    12.000000000000
         H           -1.409941886474     1.718498711331     0.000022424990     1.007825032230
         H            1.351051113526     1.840169711331    -0.000009575010     1.007825032230
         H           -1.936934886474    -0.780280288669     0.000040424990     1.007825032230
         H            2.106701113526    -0.806299288669    -0.000015575010     1.007825032230

  Basis Set: AUG-CC-PVTZ
    Blend: AUG-CC-PVTZ
  Basis Set: (AUG-CC-PVTZ AUX)
    Blend: AUG-CC-PVTZ-JKFIT
	 Reference Energy          =    -224.8007658883852002 [Eh]
	 Singles Energy            =      -0.0000000000000000 [Eh]
	 Same-Spin Energy          =      -0.2500294611706148 [Eh]
	 Opposite-Spin Energy      =      -0.7535275978161844 [Eh]
	 Correlation Energy        =      -1.0035570589867993 [Eh]
	 Total Energy              =    -225.8043229473719862 [Eh]

	 ================> DF-SCS-MP2 Energies <==================
	-----------------------------------------------------------
	 SCS Same-Spin Scale       =       0.3333333333333333 [-]
	 SCS Opposite-Spin Scale   =       1.2000000000000000 [-]
	 SCS Same-Spin Energy      =      -0.0833431537235382 [Eh]
	 SCS Opposite-Spin Energy  =      -0.9042331173794212 [Eh]
	 SCS Correlation Energy    =      -0.9875762711029595 [Eh]
	 SCS Total Energy          =    -225.7883421594881668 [Eh]
	-----------------------------------------------------------

  Dipole Moment: [D]
     X:    -1.6680      Y:     1.9185      Z:     0.0001     Total:     2.5422

*** Psi4 exiting successfully. Buy a developer a beer!
