                               Psi4 1.3.2 release

  ==> Input File <==

--------------------------------------------------------------------------
#psi4
#
memory 32 gb

molecule  {
0 1
  N       -1.0734902    -0.4524500     0.0000238
  N        0.0381600    -1.2151070    -0.0000250
  C       -0.6759380     0.9397300     0.0000060
  C        0.7089440     0.9680670    -0.0000050
  C        1.0983770    -0.3824860    -0.0000080
  H       -1.4207460     1.7232830     0.0000220
  H        1.3402470     1.8449540    -0.0000100
  H       -1.9477390    -0.7754960     0.0000400
  H        2.0958970    -0.8015150    -0.0000160
units angstrom
no_reorient  #important for SAPT in psi4, default
symmetry c1  #important for SAPT in psi4, default
}

set PROPERTIES_ORIGIN ["COM"]
properties('MP2/aug-cc-pvtz', properties = ['dipole'])
--------------------------------------------------------------------------

    Molecular point group: c1
  Charge       = 0
  Multiplicity = 1
  Basis Set: AUG-CC-PVTZ
    Blend: AUG-CC-PVTZ
  Basis Set: (AUG-CC-PVTZ AUX)
    Blend: AUG-CC-PVTZ-JKFIT

    Orbital Energies [Eh]
    ---------------------

    Doubly Occupied:

       1A    -15.636542     2A    -15.595868     3A    -11.288311
       4A    -11.258278     5A    -11.233599     6A     -1.357956
       7A     -1.094386     8A     -1.048830     9A     -0.844556
      10A     -0.793753    11A     -0.733245    12A     -0.632259
      13A     -0.594086    14A     -0.588889    15A     -0.564737
      16A     -0.452896    17A     -0.370156    18A     -0.342284

  @DF-RHF Final Energy:  -224.85856406145473

   => Energetics <=

    Nuclear Repulsion Energy =            161.1544842945151004
    One-Electron Energy =                -623.1648375503548323
    Two-Electron Energy =                 237.1517891943850032
    Total Energy =                       -224.8585640614547287
  Basis Set: (AUG-CC-PVTZ AUX)
    Blend: AUG-CC-PVTZ-RI
    Molecular point group: c1

    Geometry (in Angstrom), charge = 0, multiplicity = 1:

       Center              X                  Y                   Z               Mass
    ------------   -----------------  -----------------  -----------------  -----------------
         N           -1.060952678398    -0.407763070181     0.000024748331    14.003074004430
         N            0.050697521602    -1.170420070181    -0.000024051669    14.003074004430
         C           -0.663400478398     0.984416929819     0.000006948331    12.000000000000
         C            0.721481521602     1.012753929819    -0.000004051669    12.000000000000
         C            1.110914521602    -0.337799070181    -0.000007051669    12.000000000000
         H           -1.408208478398     1.767969929819     0.000022948331     1.007825032230
         H            1.352784521602     1.889640929819    -0.000009051669     1.007825032230
         H           -1.935201478398    -0.730809070181     0.000040948331     1.007825032230
         H            2.108434521602    -0.756828070181    -0.000015051669     1.007825032230

  Basis Set: AUG-CC-PVTZ
    Blend: AUG-CC-PVTZ
  Basis Set: (AUG-CC-PVTZ AUX)
    Blend: AUG-CC-PVTZ-JKFIT
	 Reference Energy          =    -224.8585640614547287 [Eh]
	 Singles Energy            =      -0.0000000000000000 [Eh]
	 Same-Spin Energy          =      -0.2453751101383312 [Eh]
	 Opposite-Spin Energy      =      -0.7471431260685862 [Eh]
	 Correlation Energy        =      -0.9925182362069174 [Eh]
	 Total Energy              =    -225.8510822976616339 [Eh]

	 ================> DF-SCS-MP2 Energies <==================
	-----------------------------------------------------------
	 SCS Same-Spin Scale       =       0.3333333333333333 [-]
	 SCS Opposite-Spin Scale   =       1.2000000000000000 [-]
	 SCS Same-Spin Energy      =      -0.0817917033794437 [Eh]
	 SCS Opposite-Spin Energy  =      -0.8965717512823035 [Eh]
	 SCS Correlation Energy    =      -0.9783634546617472 [Eh]
	 SCS Total Energy          =    -225.8369275161164751 [Eh]
	-----------------------------------------------------------

  Dipole Moment: [D]
     X:    -1.2987      Y:     1.8084      Z:     0.0001     Total:     2.2264

*** Psi4 exiting successfully. Buy a developer a beer!
