                               Psi4 1.4a3.dev225

  ==> Input File <==

--------------------------------------------------------------------------
#psi4
#
memory 32 gb

molecule  {
0 1
  N       -1.0175820    -0.3767630     0.0000260
  N        0.0381600    -1.2151070    -0.0000250
  C       -0.6759380     0.9397300     0.0000060
  C        0.6589545     0.9670441    -0.0000046
  C        1.0983770    -0.3824860    -0.0000080
  H       -1.4207460     1.7232830     0.0000220
  H        1.3402470     1.8449540    -0.0000100
  H       -1.9477390    -0.7754960     0.0000400
  H        2.0958970    -0.8015150    -0.0000160
units angstrom
no_reorient  #important for SAPT in psi4, default
symmetry c1  #important for SAPT in psi4, default
}

set PROPERTIES_ORIGIN ["COM"]
properties('MP2/aug-cc-pvtz', properties = ['dipole'])
--------------------------------------------------------------------------

    Molecular point group: c1
  Charge       = 0
  Multiplicity = 1
  Basis Set: AUG-CC-PVTZ
    Blend: AUG-CC-PVTZ
  Basis Set: (AUG-CC-PVTZ AUX)
    Blend: AUG-CC-PVTZ-JKFIT

    Orbital Energies [Eh]
    ---------------------

    Doubly Occupied:

       1A    -15.638482     2A    -15.592864     3A    -11.274861
       4A    -11.256124     5A    -11.223331     6A     -1.372543
       7A     -1.091684     8A     -1.059106     9A     -0.820121
      10A     -0.798999    11A     -0.743607    12A     -0.608826
      13A     -0.607010    14A     -0.581050    15A     -0.572121
      16A     -0.461562    17A     -0.362022    18A     -0.353704

  @DF-RHF Final Energy:  -224.87142185446115

   => Energetics <=

    Nuclear Repulsion Energy =            163.1911083664931255
    One-Electron Energy =                -627.2890261878246747
    Two-Electron Energy =                 239.2264959668703739
    Total Energy =                       -224.8714218544611469
  Basis Set: (AUG-CC-PVTZ AUX)
    Blend: AUG-CC-PVTZ-RI
    Molecular point group: c1

    Geometry (in Angstrom), charge = 0, multiplicity = 1:

       Center              X                  Y                   Z               Mass
    ------------   -----------------  -----------------  -----------------  -----------------
         N           -1.007734359736    -0.347473118290     0.000026424990    14.003074004430
         N            0.048007640264    -1.185817118290    -0.000024575010    14.003074004430
         C           -0.666090359736     0.969019881710     0.000006424990    12.000000000000
         C            0.668802140264     0.996333981710    -0.000004175010    12.000000000000
         C            1.108224640264    -0.353196118290    -0.000007575010    12.000000000000
         H           -1.410898359736     1.752572881710     0.000022424990     1.007825032230
         H            1.350094640264     1.874243881710    -0.000009575010     1.007825032230
         H           -1.937891359736    -0.746206118290     0.000040424990     1.007825032230
         H            2.105744640264    -0.772225118290    -0.000015575010     1.007825032230

  Basis Set: AUG-CC-PVTZ
    Blend: AUG-CC-PVTZ
  Basis Set: (AUG-CC-PVTZ AUX)
    Blend: AUG-CC-PVTZ-JKFIT
	 Reference Energy          =    -224.8714218544611469 [Eh]
	 Singles Energy            =      -0.0000000000000000 [Eh]
	 Same-Spin Energy          =      -0.2454378381465584 [Eh]
	 Opposite-Spin Energy      =      -0.7454903839847804 [Eh]
	 Correlation Energy        =      -0.9909282221313388 [Eh]
	 Total Energy              =    -225.8623500765924916 [Eh]

	 ================> DF-SCS-MP2 Energies <==================
	-----------------------------------------------------------
	 SCS Same-Spin Scale       =       0.3333333333333333 [-]
	 SCS Opposite-Spin Scale   =       1.2000000000000000 [-]
	 SCS Same-Spin Energy      =      -0.0818126127155195 [Eh]
	 SCS Opposite-Spin Energy  =      -0.8945884607817365 [Eh]
	 SCS Correlation Energy    =      -0.9764010734972559 [Eh]
	 SCS Total Energy          =    -225.8478229279583900 [Eh]
	-----------------------------------------------------------

  Dipole Moment: [D]
     X:    -1.4847      Y:     1.7491      Z:     0.0001     Total:     2.2943

*** Psi4 exiting successfully. Buy a developer a beer!
