                               Psi4 1.3.2 release

  ==> Input File <==

--------------------------------------------------------------------------
#psi4
#
memory 32 gb

molecule  {
0 1
  N       -1.0175820    -0.3767630     0.0000260
  N        0.0381600    -1.2151070    -0.0000250
  C       -0.6759380     0.9397300     0.0000060
  C        0.7089440     0.9680670    -0.0000050
  C        1.0197305    -0.4442495    -0.0000093
  H       -1.4207460     1.7232830     0.0000220
  H        1.3402470     1.8449540    -0.0000100
  H       -1.9477390    -0.7754960     0.0000400
  H        2.0958970    -0.8015150    -0.0000160
units angstrom
no_reorient  #important for SAPT in psi4, default
symmetry c1  #important for SAPT in psi4, default
}

set PROPERTIES_ORIGIN ["COM"]
properties('MP2/aug-cc-pvtz', properties = ['dipole'])
--------------------------------------------------------------------------

    Molecular point group: c1
  Charge       = 0
  Multiplicity = 1
  Basis Set: AUG-CC-PVTZ
    Blend: AUG-CC-PVTZ
  Basis Set: (AUG-CC-PVTZ AUX)
    Blend: AUG-CC-PVTZ-JKFIT

    Orbital Energies [Eh]
    ---------------------

    Doubly Occupied:

       1A    -15.634151     2A    -15.583941     3A    -11.283424
       4A    -11.253781     5A    -11.224265     6A     -1.387526
       7A     -1.116260     8A     -1.045693     9A     -0.820050
      10A     -0.794002    11A     -0.746006    12A     -0.614818
      13A     -0.609801    14A     -0.595482    15A     -0.551885
      16A     -0.458367    17A     -0.377861    18A     -0.346402

  @DF-RHF Final Energy:  -224.86758927644235

   => Energetics <=

    Nuclear Repulsion Energy =            163.9028854105012556
    One-Electron Energy =                -628.6535242095312697
    Two-Electron Energy =                 239.8830495225876689
    Total Energy =                       -224.8675892764423452
  Basis Set: (AUG-CC-PVTZ AUX)
    Blend: AUG-CC-PVTZ-RI
    Molecular point group: c1

    Geometry (in Angstrom), charge = 0, multiplicity = 1:

       Center              X                  Y                   Z               Mass
    ------------   -----------------  -----------------  -----------------  -----------------
         N           -1.002680025551    -0.336760088628     0.000026724825    14.003074004430
         N            0.053061974449    -1.175104088628    -0.000024275175    14.003074004430
         C           -0.661036025551     0.979732911372     0.000006724825    12.000000000000
         C            0.723845974449     1.008069911372    -0.000004275175    12.000000000000
         C            1.034632474449    -0.404246588628    -0.000008575175    12.000000000000
         H           -1.405844025551     1.763285911372     0.000022724825     1.007825032230
         H            1.355148974449     1.884956911372    -0.000009275175     1.007825032230
         H           -1.932837025551    -0.735493088628     0.000040724825     1.007825032230
         H            2.110798974449    -0.761512088628    -0.000015275175     1.007825032230

  Basis Set: AUG-CC-PVTZ
    Blend: AUG-CC-PVTZ
  Basis Set: (AUG-CC-PVTZ AUX)
    Blend: AUG-CC-PVTZ-JKFIT
	 Reference Energy          =    -224.8675892764423452 [Eh]
	 Singles Energy            =      -0.0000000000000000 [Eh]
	 Same-Spin Energy          =      -0.2433723739219951 [Eh]
	 Opposite-Spin Energy      =      -0.7418199124098313 [Eh]
	 Correlation Energy        =      -0.9851922863318263 [Eh]
	 Total Energy              =    -225.8527815627741688 [Eh]

	 ================> DF-SCS-MP2 Energies <==================
	-----------------------------------------------------------
	 SCS Same-Spin Scale       =       0.3333333333333333 [-]
	 SCS Opposite-Spin Scale   =       1.2000000000000000 [-]
	 SCS Same-Spin Energy      =      -0.0811241246406650 [Eh]
	 SCS Opposite-Spin Energy  =      -0.8901838948917975 [Eh]
	 SCS Correlation Energy    =      -0.9713080195324625 [Eh]
	 SCS Total Energy          =    -225.8388972959748173 [Eh]
	-----------------------------------------------------------

  Dipole Moment: [D]
     X:    -1.5026      Y:     1.6732      Z:     0.0001     Total:     2.2488

*** Psi4 exiting successfully. Buy a developer a beer!
