                               Psi4 1.3.2 release

  ==> Input File <==

--------------------------------------------------------------------------
#psi4
#
memory 32 gb

molecule  {
0 1
  N       -1.0175820    -0.3767630     0.0000260
  N        0.0678639    -1.2516008    -0.0000257
  C       -0.6759380     0.9397300     0.0000060
  C        0.7089440     0.9680670    -0.0000050
  C        1.0983770    -0.3824860    -0.0000080
  H       -1.4207460     1.7232830     0.0000220
  H        1.3402470     1.8449540    -0.0000100
  H       -1.9477390    -0.7754960     0.0000400
  H        2.0958970    -0.8015150    -0.0000160
units angstrom
no_reorient  #important for SAPT in psi4, default
symmetry c1  #important for SAPT in psi4, default
}

set PROPERTIES_ORIGIN ["COM"]
properties('MP2/aug-cc-pvtz', properties = ['dipole'])
--------------------------------------------------------------------------

    Molecular point group: c1
  Charge       = 0
  Multiplicity = 1
  Basis Set: AUG-CC-PVTZ
    Blend: AUG-CC-PVTZ
  Basis Set: (AUG-CC-PVTZ AUX)
    Blend: AUG-CC-PVTZ-JKFIT

    Orbital Energies [Eh]
    ---------------------

    Doubly Occupied:

       1A    -15.639987     2A    -15.594604     3A    -11.287472
       4A    -11.259252     5A    -11.225439     6A     -1.353787
       7A     -1.095684     8A     -1.048576     9A     -0.824085
      10A     -0.792748    11A     -0.743635    12A     -0.600726
      13A     -0.597071    14A     -0.590264    15A     -0.563988
      16A     -0.468747    17A     -0.367919    18A     -0.346360

  @DF-RHF Final Energy:  -224.86921786504885

   => Energetics <=

    Nuclear Repulsion Energy =            161.6406364028871110
    One-Electron Energy =                -624.2190231199658683
    Two-Electron Energy =                 237.7091688520298760
    Total Energy =                       -224.8692178650488529
  Basis Set: (AUG-CC-PVTZ AUX)
    Blend: AUG-CC-PVTZ-RI
    Molecular point group: c1

    Geometry (in Angstrom), charge = 0, multiplicity = 1:

       Center              X                  Y                   Z               Mass
    ------------   -----------------  -----------------  -----------------  -----------------
         N           -1.022664665586    -0.340142587887     0.000026639609    14.003074004430
         N            0.062781234414    -1.214980387887    -0.000025060391    14.003074004430
         C           -0.681020665586     0.976350412113     0.000006639609    12.000000000000
         C            0.703861334414     1.004687412113    -0.000004360391    12.000000000000
         C            1.093294334414    -0.345865587887    -0.000007360391    12.000000000000
         H           -1.425828665586     1.759903412113     0.000022639609     1.007825032230
         H            1.335164334414     1.881574412113    -0.000009360391     1.007825032230
         H           -1.952821665586    -0.738875587887     0.000040639609     1.007825032230
         H            2.090814334414    -0.764894587887    -0.000015360391     1.007825032230

  Basis Set: AUG-CC-PVTZ
    Blend: AUG-CC-PVTZ
  Basis Set: (AUG-CC-PVTZ AUX)
    Blend: AUG-CC-PVTZ-JKFIT
	 Reference Energy          =    -224.8692178650488529 [Eh]
	 Singles Energy            =      -0.0000000000000000 [Eh]
	 Same-Spin Energy          =      -0.2459036685950118 [Eh]
	 Opposite-Spin Energy      =      -0.7476395093871600 [Eh]
	 Correlation Energy        =      -0.9935431779821717 [Eh]
	 Total Energy              =    -225.8627610430310142 [Eh]

	 ================> DF-SCS-MP2 Energies <==================
	-----------------------------------------------------------
	 SCS Same-Spin Scale       =       0.3333333333333333 [-]
	 SCS Opposite-Spin Scale   =       1.2000000000000000 [-]
	 SCS Same-Spin Energy      =      -0.0819678895316706 [Eh]
	 SCS Opposite-Spin Energy  =      -0.8971674112645919 [Eh]
	 SCS Correlation Energy    =      -0.9791353007962624 [Eh]
	 SCS Total Energy          =    -225.8483531658451113 [Eh]
	-----------------------------------------------------------

  Dipole Moment: [D]
     X:    -1.5066      Y:     1.8104      Z:     0.0001     Total:     2.3553

*** Psi4 exiting successfully. Buy a developer a beer!
