                               Psi4 1.3.2 release

  ==> Input File <==

--------------------------------------------------------------------------
#psi4
#
memory 32 gb

molecule  {
0 1
  N       -1.0175820    -0.3767630     0.0000260
  N        0.0381600    -1.2151070    -0.0000250
  C       -0.6759380     0.9397300     0.0000060
  C        0.7089440     0.9680670    -0.0000050
  C        1.0983770    -0.3824860    -0.0000080
  H       -1.4207460     1.7232830     0.0000220
  H        1.2233928     1.6826422    -0.0000091
  H       -1.9477390    -0.7754960     0.0000400
  H        2.0958970    -0.8015150    -0.0000160
units angstrom
no_reorient  #important for SAPT in psi4, default
symmetry c1  #important for SAPT in psi4, default
}

set PROPERTIES_ORIGIN ["COM"]
properties('MP2/aug-cc-pvtz', properties = ['dipole'])
--------------------------------------------------------------------------

    Molecular point group: c1
  Charge       = 0
  Multiplicity = 1
  Basis Set: AUG-CC-PVTZ
    Blend: AUG-CC-PVTZ
  Basis Set: (AUG-CC-PVTZ AUX)
    Blend: AUG-CC-PVTZ-JKFIT

    Orbital Energies [Eh]
    ---------------------

    Doubly Occupied:

       1A    -15.642815     2A    -15.589595     3A    -11.281246
       4A    -11.254612     5A    -11.202284     6A     -1.370658
       7A     -1.091824     8A     -1.061000     9A     -0.844033
      10A     -0.806917    11A     -0.749121    12A     -0.631731
      13A     -0.604786    14A     -0.604176    15A     -0.563659
      16A     -0.462813    17A     -0.364381    18A     -0.345785

  @DF-RHF Final Energy:  -224.83693753870307

   => Energetics <=

    Nuclear Repulsion Energy =            163.6819972282372078
    One-Electron Energy =                -628.0949990910937686
    Two-Electron Energy =                 239.5760643241534922
    Total Energy =                       -224.8369375387030686
  Basis Set: (AUG-CC-PVTZ AUX)
    Blend: AUG-CC-PVTZ-RI
    Molecular point group: c1

    Geometry (in Angstrom), charge = 0, multiplicity = 1:

       Center              X                  Y                   Z               Mass
    ------------   -----------------  -----------------  -----------------  -----------------
         N           -1.014820242957    -0.345249238659     0.000026482208    14.003074004430
         N            0.040921757043    -1.183593238659    -0.000024517792    14.003074004430
         C           -0.673176242957     0.971243761341     0.000006482208    12.000000000000
         C            0.711705757043     0.999580761341    -0.000004517792    12.000000000000
         C            1.101138757043    -0.350972238659    -0.000007517792    12.000000000000
         H           -1.417984242957     1.754796761341     0.000022482208     1.007825032230
         H            1.226154557043     1.714155961341    -0.000008617792     1.007825032230
         H           -1.944977242957    -0.743982238659     0.000040482208     1.007825032230
         H            2.098658757043    -0.770001238659    -0.000015517792     1.007825032230

  Basis Set: AUG-CC-PVTZ
    Blend: AUG-CC-PVTZ
  Basis Set: (AUG-CC-PVTZ AUX)
    Blend: AUG-CC-PVTZ-JKFIT
	 Reference Energy          =    -224.8369375387030686 [Eh]
	 Singles Energy            =      -0.0000000000000000 [Eh]
	 Same-Spin Energy          =      -0.2457243569004468 [Eh]
	 Opposite-Spin Energy      =      -0.7460488691887448 [Eh]
	 Correlation Energy        =      -0.9917732260891916 [Eh]
	 Total Energy              =    -225.8287107647922483 [Eh]

	 ================> DF-SCS-MP2 Energies <==================
	-----------------------------------------------------------
	 SCS Same-Spin Scale       =       0.3333333333333333 [-]
	 SCS Opposite-Spin Scale   =       1.2000000000000000 [-]
	 SCS Same-Spin Energy      =      -0.0819081189668156 [Eh]
	 SCS Opposite-Spin Energy  =      -0.8952586430264937 [Eh]
	 SCS Correlation Energy    =      -0.9771667619933093 [Eh]
	 SCS Total Energy          =    -225.8141043006963855 [Eh]
	-----------------------------------------------------------

  Dipole Moment: [D]
     X:    -1.5335      Y:     1.7388      Z:     0.0001     Total:     2.3184

*** Psi4 exiting successfully. Buy a developer a beer!
