                               Psi4 1.3.2 release

  ==> Input File <==

--------------------------------------------------------------------------
#psi4
#
memory 32 gb

molecule  {
0 1
  N       -1.0175820    -0.3767630     0.0000260
  N        0.0940682    -1.1394200    -0.0000280
  C       -0.6759380     0.9397300     0.0000060
  C        0.7089440     0.9680670    -0.0000050
  C        1.0983770    -0.3824860    -0.0000080
  H       -1.4207460     1.7232830     0.0000220
  H        1.3402470     1.8449540    -0.0000100
  H       -1.9477390    -0.7754960     0.0000400
  H        2.0958970    -0.8015150    -0.0000160
units angstrom
no_reorient  #important for SAPT in psi4, default
symmetry c1  #important for SAPT in psi4, default
}

set PROPERTIES_ORIGIN ["COM"]
properties('MP2/aug-cc-pvtz', properties = ['dipole'])
--------------------------------------------------------------------------

    Molecular point group: c1
  Charge       = 0
  Multiplicity = 1
  Basis Set: AUG-CC-PVTZ
    Blend: AUG-CC-PVTZ
  Basis Set: (AUG-CC-PVTZ AUX)
    Blend: AUG-CC-PVTZ-JKFIT

    Orbital Energies [Eh]
    ---------------------

    Doubly Occupied:

       1A    -15.637479     2A    -15.577486     3A    -11.279503
       4A    -11.244220     5A    -11.219453     6A     -1.382391
       7A     -1.117444     8A     -1.043269     9A     -0.824038
      10A     -0.805893    11A     -0.739575    12A     -0.623534
      13A     -0.612461    14A     -0.589571    15A     -0.567935
      16A     -0.445846    17A     -0.378481    18A     -0.343640

  @DF-RHF Final Energy:  -224.87261352152703

   => Energetics <=

    Nuclear Repulsion Energy =            164.4933548431431518
    One-Electron Energy =                -629.8675009432319030
    Two-Electron Energy =                 240.5015325785617222
    Total Energy =                       -224.8726135215270290
  Basis Set: (AUG-CC-PVTZ AUX)
    Blend: AUG-CC-PVTZ-RI
    Molecular point group: c1

    Geometry (in Angstrom), charge = 0, multiplicity = 1:

       Center              X                  Y                   Z               Mass
    ------------   -----------------  -----------------  -----------------  -----------------
         N           -1.028057883030    -0.363230991219     0.000027112982    14.003074004430
         N            0.083592316970    -1.125887991219    -0.000026887018    14.003074004430
         C           -0.686413883030     0.953262008781     0.000007112982    12.000000000000
         C            0.698468116970     0.981599008781    -0.000003887018    12.000000000000
         C            1.087901116970    -0.368953991219    -0.000006887018    12.000000000000
         H           -1.431221883030     1.736815008781     0.000023112982     1.007825032230
         H            1.329771116970     1.858486008781    -0.000008887018     1.007825032230
         H           -1.958214883030    -0.761963991219     0.000041112982     1.007825032230
         H            2.085421116970    -0.787982991219    -0.000014887018     1.007825032230

  Basis Set: AUG-CC-PVTZ
    Blend: AUG-CC-PVTZ
  Basis Set: (AUG-CC-PVTZ AUX)
    Blend: AUG-CC-PVTZ-JKFIT
	 Reference Energy          =    -224.8726135215270290 [Eh]
	 Singles Energy            =      -0.0000000000000000 [Eh]
	 Same-Spin Energy          =      -0.2436046817263109 [Eh]
	 Opposite-Spin Energy      =      -0.7415045514833799 [Eh]
	 Correlation Energy        =      -0.9851092332096909 [Eh]
	 Total Energy              =    -225.8577227547367272 [Eh]

	 ================> DF-SCS-MP2 Energies <==================
	-----------------------------------------------------------
	 SCS Same-Spin Scale       =       0.3333333333333333 [-]
	 SCS Opposite-Spin Scale   =       1.2000000000000000 [-]
	 SCS Same-Spin Energy      =      -0.0812015605754370 [Eh]
	 SCS Opposite-Spin Energy  =      -0.8898054617800558 [Eh]
	 SCS Correlation Energy    =      -0.9710070223554927 [Eh]
	 SCS Total Energy          =    -225.8436205438825084 [Eh]
	-----------------------------------------------------------

  Dipole Moment: [D]
     X:    -1.5344      Y:     1.5320      Z:     0.0001     Total:     2.1683

*** Psi4 exiting successfully. Buy a developer a beer!
