                               Psi4 1.3.2 release

  ==> Input File <==

--------------------------------------------------------------------------
#psi4
#
memory 32 gb

molecule  {
0 1
  N       -1.0175820    -0.3767630     0.0000260
  N       -0.0552543    -1.3208696    -0.0000201
  C       -0.6759380     0.9397300     0.0000060
  C        0.7089440     0.9680670    -0.0000050
  C        1.0983770    -0.3824860    -0.0000080
  H       -1.4207460     1.7232830     0.0000220
  H        1.3402470     1.8449540    -0.0000100
  H       -1.9477390    -0.7754960     0.0000400
  H        2.0958970    -0.8015150    -0.0000160
units angstrom
no_reorient  #important for SAPT in psi4, default
symmetry c1  #important for SAPT in psi4, default
}

set PROPERTIES_ORIGIN ["COM"]
properties('MP2/aug-cc-pvtz', properties = ['dipole'])
--------------------------------------------------------------------------

    Molecular point group: c1
  Charge       = 0
  Multiplicity = 1
  Basis Set: AUG-CC-PVTZ
    Blend: AUG-CC-PVTZ
  Basis Set: (AUG-CC-PVTZ AUX)
    Blend: AUG-CC-PVTZ-JKFIT

    Orbital Energies [Eh]
    ---------------------

    Doubly Occupied:

       1A    -15.653600     2A    -15.606676     3A    -11.285259
       4A    -11.270122     5A    -11.234378     6A     -1.361566
       7A     -1.069521     8A     -1.058533     9A     -0.825533
      10A     -0.794905    11A     -0.743150    12A     -0.602854
      13A     -0.599445    14A     -0.583272    15A     -0.558863
      16A     -0.474293    17A     -0.366182    18A     -0.332954

  @DF-RHF Final Energy:  -224.84347142387827

   => Energetics <=

    Nuclear Repulsion Energy =            160.1449009625847282
    One-Electron Energy =                -621.1345310723220337
    Two-Electron Energy =                 236.1461586858590067
    Total Energy =                       -224.8434714238782703
  Basis Set: (AUG-CC-PVTZ AUX)
    Blend: AUG-CC-PVTZ-RI
    Molecular point group: c1

    Geometry (in Angstrom), charge = 0, multiplicity = 1:

       Center              X                  Y                   Z               Mass
    ------------   -----------------  -----------------  -----------------  -----------------
         N           -0.997325189855    -0.325886084165     0.000025487050    14.003074004430
         N           -0.034997489855    -1.269992684165    -0.000020612950    14.003074004430
         C           -0.655681189855     0.990606915835     0.000005487050    12.000000000000
         C            0.729200810145     1.018943915835    -0.000005512950    12.000000000000
         C            1.118633810145    -0.331609084165    -0.000008512950    12.000000000000
         H           -1.400489189855     1.774159915835     0.000021487050     1.007825032230
         H            1.360503810145     1.895830915835    -0.000010512950     1.007825032230
         H           -1.927482189855    -0.724619084165     0.000039487050     1.007825032230
         H            2.116153810145    -0.750638084165    -0.000016512950     1.007825032230

  Basis Set: AUG-CC-PVTZ
    Blend: AUG-CC-PVTZ
  Basis Set: (AUG-CC-PVTZ AUX)
    Blend: AUG-CC-PVTZ-JKFIT
	 Reference Energy          =    -224.8434714238782703 [Eh]
	 Singles Energy            =      -0.0000000000000000 [Eh]
	 Same-Spin Energy          =      -0.2498164632073183 [Eh]
	 Opposite-Spin Energy      =      -0.7551735933556072 [Eh]
	 Correlation Energy        =      -1.0049900565629255 [Eh]
	 Total Energy              =    -225.8484614804411876 [Eh]

	 ================> DF-SCS-MP2 Energies <==================
	-----------------------------------------------------------
	 SCS Same-Spin Scale       =       0.3333333333333333 [-]
	 SCS Opposite-Spin Scale   =       1.2000000000000000 [-]
	 SCS Same-Spin Energy      =      -0.0832721544024394 [Eh]
	 SCS Opposite-Spin Energy  =      -0.9062083120267286 [Eh]
	 SCS Correlation Energy    =      -0.9894804664291680 [Eh]
	 SCS Total Energy          =    -225.8329518903074415 [Eh]
	-----------------------------------------------------------

  Dipole Moment: [D]
     X:    -1.4885      Y:     1.9707      Z:     0.0001     Total:     2.4697

*** Psi4 exiting successfully. Buy a developer a beer!
