                               Psi4 1.3.2 release

  ==> Input File <==

--------------------------------------------------------------------------
#psi4
#
memory 32 gb

molecule  {
0 1
  N       -1.0175820    -0.3767630     0.0000260
  N        0.0381600    -1.2151070    -0.0000250
  C       -0.6759380     0.9397300     0.0000060
  C        0.7089440     0.9680670    -0.0000050
  C        1.0510061    -0.3952543    -0.0000076
  H       -1.4207460     1.7232830     0.0000220
  H        1.3402470     1.8449540    -0.0000100
  H       -1.9477390    -0.7754960     0.0000400
  H        2.0958970    -0.8015150    -0.0000160
units angstrom
no_reorient  #important for SAPT in psi4, default
symmetry c1  #important for SAPT in psi4, default
}

set PROPERTIES_ORIGIN ["COM"]
properties('MP2/aug-cc-pvtz', properties = ['dipole'])
--------------------------------------------------------------------------

    Molecular point group: c1
  Charge       = 0
  Multiplicity = 1
  Basis Set: AUG-CC-PVTZ
    Blend: AUG-CC-PVTZ
  Basis Set: (AUG-CC-PVTZ AUX)
    Blend: AUG-CC-PVTZ-JKFIT

    Orbital Energies [Eh]
    ---------------------

    Doubly Occupied:

       1A    -15.639717     2A    -15.587041     3A    -11.283082
       4A    -11.254120     5A    -11.223600     6A     -1.379451
       7A     -1.101877     8A     -1.053185     9A     -0.823761
      10A     -0.794653    11A     -0.745459    12A     -0.610395
      13A     -0.604836    14A     -0.597153    15A     -0.553452
      16A     -0.465047    17A     -0.368740    18A     -0.349265

  @DF-RHF Final Energy:  -224.87323606047551

   => Energetics <=

    Nuclear Repulsion Energy =            163.4493168243461980
    One-Electron Energy =                -627.7754375766853627
    Two-Electron Energy =                 239.4528846918636873
    Total Energy =                       -224.8732360604755058
  Basis Set: (AUG-CC-PVTZ AUX)
    Blend: AUG-CC-PVTZ-RI
    Molecular point group: c1

    Geometry (in Angstrom), charge = 0, multiplicity = 1:

       Center              X                  Y                   Z               Mass
    ------------   -----------------  -----------------  -----------------  -----------------
         N           -1.008196211274    -0.345401541477     0.000026424990    14.003074004430
         N            0.047545788726    -1.183745541477    -0.000024575010    14.003074004430
         C           -0.666552211274     0.971091458523     0.000006424990    12.000000000000
         C            0.718329788726     0.999428458523    -0.000004575010    12.000000000000
         C            1.060391888726    -0.363892841477    -0.000007175010    12.000000000000
         H           -1.411360211274     1.754644458523     0.000022424990     1.007825032230
         H            1.349632788726     1.876315458523    -0.000009575010     1.007825032230
         H           -1.938353211274    -0.744134541477     0.000040424990     1.007825032230
         H            2.105282788726    -0.770153541477    -0.000015575010     1.007825032230

  Basis Set: AUG-CC-PVTZ
    Blend: AUG-CC-PVTZ
  Basis Set: (AUG-CC-PVTZ AUX)
    Blend: AUG-CC-PVTZ-JKFIT
	 Reference Energy          =    -224.8732360604755058 [Eh]
	 Singles Energy            =      -0.0000000000000000 [Eh]
	 Same-Spin Energy          =      -0.2449069616720048 [Eh]
	 Opposite-Spin Energy      =      -0.7442736281297164 [Eh]
	 Correlation Energy        =      -0.9891805898017212 [Eh]
	 Total Energy              =    -225.8624166502772255 [Eh]

	 ================> DF-SCS-MP2 Energies <==================
	-----------------------------------------------------------
	 SCS Same-Spin Scale       =       0.3333333333333333 [-]
	 SCS Opposite-Spin Scale   =       1.2000000000000000 [-]
	 SCS Same-Spin Energy      =      -0.0816356538906682 [Eh]
	 SCS Opposite-Spin Energy  =      -0.8931283537556597 [Eh]
	 SCS Correlation Energy    =      -0.9747640076463280 [Eh]
	 SCS Total Energy          =    -225.8480000681218200 [Eh]
	-----------------------------------------------------------

  Dipole Moment: [D]
     X:    -1.5323      Y:     1.7372      Z:     0.0001     Total:     2.3164

*** Psi4 exiting successfully. Buy a developer a beer!
