                               Psi4 1.3.2 release

  ==> Input File <==

--------------------------------------------------------------------------
#psi4
#
memory 32 gb

molecule  {
0 1
  N       -1.0175820    -0.3767630     0.0000260
  N       -0.0228917    -1.2867097    -0.0000218
  C       -0.6759380     0.9397300     0.0000060
  C        0.7089440     0.9680670    -0.0000050
  C        1.0983770    -0.3824860    -0.0000080
  H       -1.4207460     1.7232830     0.0000220
  H        1.3402470     1.8449540    -0.0000100
  H       -1.9477390    -0.7754960     0.0000400
  H        2.0958970    -0.8015150    -0.0000160
units angstrom
no_reorient  #important for SAPT in psi4, default
symmetry c1  #important for SAPT in psi4, default
}

set PROPERTIES_ORIGIN ["COM"]
properties('MP2/aug-cc-pvtz', properties = ['dipole'])
--------------------------------------------------------------------------

    Molecular point group: c1
  Charge       = 0
  Multiplicity = 1
  Basis Set: AUG-CC-PVTZ
    Blend: AUG-CC-PVTZ
  Basis Set: (AUG-CC-PVTZ AUX)
    Blend: AUG-CC-PVTZ-JKFIT

    Orbital Energies [Eh]
    ---------------------

    Doubly Occupied:

       1A    -15.650157     2A    -15.601782     3A    -11.284274
       4A    -11.265740     5A    -11.231414     6A     -1.364237
       7A     -1.071976     8A     -1.060919     9A     -0.825430
      10A     -0.795528    11A     -0.743560    12A     -0.601756
      13A     -0.601108    14A     -0.588287    15A     -0.560338
      16A     -0.472611    17A     -0.363812    18A     -0.338707

  @DF-RHF Final Energy:  -224.85645073240744

   => Energetics <=

    Nuclear Repulsion Energy =            160.9216734833077282
    One-Electron Energy =                -622.7129775450219995
    Two-Electron Energy =                 236.9348533293068613
    Total Energy =                       -224.8564507324074384
  Basis Set: (AUG-CC-PVTZ AUX)
    Blend: AUG-CC-PVTZ-RI
    Molecular point group: c1

    Geometry (in Angstrom), charge = 0, multiplicity = 1:

       Center              X                  Y                   Z               Mass
    ------------   -----------------  -----------------  -----------------  -----------------
         N           -1.003985872981    -0.332916677181     0.000025836934    14.003074004430
         N           -0.009295572981    -1.242863377181    -0.000021963066    14.003074004430
         C           -0.662341872981     0.983576322819     0.000005836934    12.000000000000
         C            0.722540127019     1.011913322819    -0.000005163066    12.000000000000
         C            1.111973127019    -0.338639677181    -0.000008163066    12.000000000000
         H           -1.407149872981     1.767129322819     0.000021836934     1.007825032230
         H            1.353843127019     1.888800322819    -0.000010163066     1.007825032230
         H           -1.934142872981    -0.731649677181     0.000039836934     1.007825032230
         H            2.109493127019    -0.757668677181    -0.000016163066     1.007825032230

  Basis Set: AUG-CC-PVTZ
    Blend: AUG-CC-PVTZ
  Basis Set: (AUG-CC-PVTZ AUX)
    Blend: AUG-CC-PVTZ-JKFIT
	 Reference Energy          =    -224.8564507324074384 [Eh]
	 Singles Energy            =      -0.0000000000000000 [Eh]
	 Same-Spin Energy          =      -0.2484415852974123 [Eh]
	 Opposite-Spin Energy      =      -0.7519699774260797 [Eh]
	 Correlation Energy        =      -1.0004115627234920 [Eh]
	 Total Energy              =    -225.8568622951309237 [Eh]

	 ================> DF-SCS-MP2 Energies <==================
	-----------------------------------------------------------
	 SCS Same-Spin Scale       =       0.3333333333333333 [-]
	 SCS Opposite-Spin Scale   =       1.2000000000000000 [-]
	 SCS Same-Spin Energy      =      -0.0828138617658041 [Eh]
	 SCS Opposite-Spin Energy  =      -0.9023639729112957 [Eh]
	 SCS Correlation Energy    =      -0.9851778346770997 [Eh]
	 SCS Total Energy          =    -225.8416285670845411 [Eh]
	-----------------------------------------------------------

  Dipole Moment: [D]
     X:    -1.5034      Y:     1.9038      Z:     0.0001     Total:     2.4258

*** Psi4 exiting successfully. Buy a developer a beer!
