                               Psi4 1.4a3.dev225

  ==> Input File <==

--------------------------------------------------------------------------
#psi4
#
memory 32 gb

molecule  {
0 1
  N       -1.0175820    -0.3767630     0.0000260
  N        0.0381600    -1.2151070    -0.0000250
  C       -0.6759380     0.9397300     0.0000060
  C        0.7089440     0.9680670    -0.0000050
  C        1.0928358    -0.3632690    -0.0000080
  H       -1.4207460     1.7232830     0.0000220
  H        1.3402470     1.8449540    -0.0000100
  H       -1.9477390    -0.7754960     0.0000400
  H        2.0958970    -0.8015150    -0.0000160
units angstrom
no_reorient  #important for SAPT in psi4, default
symmetry c1  #important for SAPT in psi4, default
}

set PROPERTIES_ORIGIN ["COM"]
properties('MP2/aug-cc-pvtz', properties = ['dipole'])
--------------------------------------------------------------------------

    Molecular point group: c1
  Charge       = 0
  Multiplicity = 1
  Basis Set: AUG-CC-PVTZ
    Blend: AUG-CC-PVTZ
  Basis Set: (AUG-CC-PVTZ AUX)
    Blend: AUG-CC-PVTZ-JKFIT

    Orbital Energies [Eh]
    ---------------------

    Doubly Occupied:

       1A    -15.644794     2A    -15.590044     3A    -11.282229
       4A    -11.254961     5A    -11.224119     6A     -1.371966
       7A     -1.090579     8A     -1.056347     9A     -0.827206
      10A     -0.796458    11A     -0.743655    12A     -0.606329
      13A     -0.606084    14A     -0.593008    15A     -0.561296
      16A     -0.464677    17A     -0.366877    18A     -0.345090

  @DF-RHF Final Energy:  -224.87208387350219

   => Energetics <=

    Nuclear Repulsion Energy =            162.7866133207114103
    One-Electron Energy =                -626.4659564622825201
    Two-Electron Energy =                 238.8072592680689183
    Total Energy =                       -224.8720838735021914
  Basis Set: (AUG-CC-PVTZ AUX)
    Blend: AUG-CC-PVTZ-RI
    Molecular point group: c1

    Geometry (in Angstrom), charge = 0, multiplicity = 1:

       Center              X                  Y                   Z               Mass
    ------------   -----------------  -----------------  -----------------  -----------------
         N           -1.015573860109    -0.351042899442     0.000026495539    14.003074004430
         N            0.040168139891    -1.189386899442    -0.000024504461    14.003074004430
         C           -0.673929860109     0.965450100558     0.000006495539    12.000000000000
         C            0.710952139891     0.993787100558    -0.000004504461    12.000000000000
         C            1.094843939891    -0.337548899442    -0.000007504461    12.000000000000
         H           -1.418737860109     1.749003100558     0.000022495539     1.007825032230
         H            1.342255139891     1.870674100558    -0.000009504461     1.007825032230
         H           -1.945730860109    -0.749775899442     0.000040495539     1.007825032230
         H            2.097905139891    -0.775794899442    -0.000015504461     1.007825032230

  Basis Set: AUG-CC-PVTZ
    Blend: AUG-CC-PVTZ
  Basis Set: (AUG-CC-PVTZ AUX)
    Blend: AUG-CC-PVTZ-JKFIT
	 Reference Energy          =    -224.8720838735021914 [Eh]
	 Singles Energy            =      -0.0000000000000000 [Eh]
	 Same-Spin Energy          =      -0.2462282299044088 [Eh]
	 Opposite-Spin Energy      =      -0.7466975028909313 [Eh]
	 Correlation Energy        =      -0.9929257327953400 [Eh]
	 Total Energy              =    -225.8650096062975194 [Eh]

	 ================> DF-SCS-MP2 Energies <==================
	-----------------------------------------------------------
	 SCS Same-Spin Scale       =       0.3333333333333333 [-]
	 SCS Opposite-Spin Scale   =       1.2000000000000000 [-]
	 SCS Same-Spin Energy      =      -0.0820760766348029 [Eh]
	 SCS Opposite-Spin Energy  =      -0.8960370034691175 [Eh]
	 SCS Correlation Energy    =      -0.9781130801039204 [Eh]
	 SCS Total Energy          =    -225.8501969536061154 [Eh]
	-----------------------------------------------------------

  Dipole Moment: [D]
     X:    -1.5379      Y:     1.7611      Z:     0.0001     Total:     2.3381

*** Psi4 exiting successfully. Buy a developer a beer!
