                               Psi4 1.4a3.dev225

  ==> Input File <==

--------------------------------------------------------------------------
#psi4
#
memory 32 gb

molecule  {
0 1
  N       -1.0175820    -0.3767630     0.0000260
  N        0.0381600    -1.2151070    -0.0000250
  C       -0.6759380     0.9397300     0.0000060
  C        0.7089440     0.9680670    -0.0000050
  C        1.0826477    -0.3948387    -0.0000083
  H       -1.4207460     1.7232830     0.0000220
  H        1.3402470     1.8449540    -0.0000100
  H       -1.9477390    -0.7754960     0.0000400
  H        2.0958970    -0.8015150    -0.0000160
units angstrom
no_reorient  #important for SAPT in psi4, default
symmetry c1  #important for SAPT in psi4, default
}

set PROPERTIES_ORIGIN ["COM"]
properties('MP2/aug-cc-pvtz', properties = ['dipole'])
--------------------------------------------------------------------------

    Molecular point group: c1
  Charge       = 0
  Multiplicity = 1
  Basis Set: AUG-CC-PVTZ
    Blend: AUG-CC-PVTZ
  Basis Set: (AUG-CC-PVTZ AUX)
    Blend: AUG-CC-PVTZ-JKFIT

    Orbital Energies [Eh]
    ---------------------

    Doubly Occupied:

       1A    -15.641538     2A    -15.589418     3A    -11.282347
       4A    -11.255349     5A    -11.225117     6A     -1.374242
       7A     -1.096735     8A     -1.051531     9A     -0.823340
      10A     -0.798626    11A     -0.743346    12A     -0.607603
      13A     -0.607189    14A     -0.594015    15A     -0.560927
      16A     -0.462999    17A     -0.365663    18A     -0.347726

  @DF-RHF Final Energy:  -224.87457581369981

   => Energetics <=

    Nuclear Repulsion Energy =            162.8555948179345023
    One-Electron Energy =                -626.6049160901604864
    Two-Electron Energy =                 238.8747454585261778
    Total Energy =                       -224.8745758136998063
  Basis Set: (AUG-CC-PVTZ AUX)
    Blend: AUG-CC-PVTZ-RI
    Molecular point group: c1

    Geometry (in Angstrom), charge = 0, multiplicity = 1:

       Center              X                  Y                   Z               Mass
    ------------   -----------------  -----------------  -----------------  -----------------
         N           -1.013776949681    -0.345474842286     0.000026548451    14.003074004430
         N            0.041965050319    -1.183818842286    -0.000024451549    14.003074004430
         C           -0.672132949681     0.971018157714     0.000006548451    12.000000000000
         C            0.712749050319     0.999355157714    -0.000004451549    12.000000000000
         C            1.086452750319    -0.363550542286    -0.000007751549    12.000000000000
         H           -1.416940949681     1.754571157714     0.000022548451     1.007825032230
         H            1.344052050319     1.876242157714    -0.000009451549     1.007825032230
         H           -1.943933949681    -0.744207842286     0.000040548451     1.007825032230
         H            2.099702050319    -0.770226842286    -0.000015451549     1.007825032230

  Basis Set: AUG-CC-PVTZ
    Blend: AUG-CC-PVTZ
  Basis Set: (AUG-CC-PVTZ AUX)
    Blend: AUG-CC-PVTZ-JKFIT
	 Reference Energy          =    -224.8745758136998063 [Eh]
	 Singles Energy            =      -0.0000000000000000 [Eh]
	 Same-Spin Energy          =      -0.2453267748041334 [Eh]
	 Opposite-Spin Energy      =      -0.7452466873119773 [Eh]
	 Correlation Energy        =      -0.9905734621161107 [Eh]
	 Total Energy              =    -225.8651492758159236 [Eh]

	 ================> DF-SCS-MP2 Energies <==================
	-----------------------------------------------------------
	 SCS Same-Spin Scale       =       0.3333333333333333 [-]
	 SCS Opposite-Spin Scale   =       1.2000000000000000 [-]
	 SCS Same-Spin Energy      =      -0.0817755916013778 [Eh]
	 SCS Opposite-Spin Energy  =      -0.8942960247743728 [Eh]
	 SCS Correlation Energy    =      -0.9760716163757506 [Eh]
	 SCS Total Energy          =    -225.8506474300755542 [Eh]
	-----------------------------------------------------------

  Dipole Moment: [D]
     X:    -1.5178      Y:     1.7295      Z:     0.0001     Total:     2.3011

*** Psi4 exiting successfully. Buy a developer a beer!
