                               Psi4 1.3.2 release

  ==> Input File <==

--------------------------------------------------------------------------
#psi4
#
memory 32 gb

molecule  {
0 1
  N       -1.0175820    -0.3767630     0.0000260
  N       -0.0173381    -1.1391218    -0.0000235
  C       -0.6759380     0.9397300     0.0000060
  C        0.7089440     0.9680670    -0.0000050
  C        1.0983770    -0.3824860    -0.0000080
  H       -1.4207460     1.7232830     0.0000220
  H        1.3402470     1.8449540    -0.0000100
  H       -1.9477390    -0.7754960     0.0000400
  H        2.0958970    -0.8015150    -0.0000160
units angstrom
no_reorient  #important for SAPT in psi4, default
symmetry c1  #important for SAPT in psi4, default
}

set PROPERTIES_ORIGIN ["COM"]
properties('MP2/aug-cc-pvtz', properties = ['dipole'])
--------------------------------------------------------------------------

    Molecular point group: c1
  Charge       = 0
  Multiplicity = 1
  Basis Set: AUG-CC-PVTZ
    Blend: AUG-CC-PVTZ
  Basis Set: (AUG-CC-PVTZ AUX)
    Blend: AUG-CC-PVTZ-JKFIT

    Orbital Energies [Eh]
    ---------------------

    Doubly Occupied:

       1A    -15.649995     2A    -15.582976     3A    -11.269961
       4A    -11.248810     5A    -11.225325     6A     -1.414472
       7A     -1.087629     8A     -1.061077     9A     -0.829405
      10A     -0.812806    11A     -0.740020    12A     -0.627251
      13A     -0.626625    14A     -0.592337    15A     -0.561586
      16A     -0.448630    17A     -0.365452    18A     -0.339524

  @DF-RHF Final Energy:  -224.86985687829920

   => Energetics <=

    Nuclear Repulsion Energy =            164.7152277883073452
    One-Electron Energy =                -630.2024067410818589
    Two-Electron Energy =                 240.6173220744753110
    Total Energy =                       -224.8698568782992027
  Basis Set: (AUG-CC-PVTZ AUX)
    Blend: AUG-CC-PVTZ-RI
    Molecular point group: c1

    Geometry (in Angstrom), charge = 0, multiplicity = 1:

       Center              X                  Y                   Z               Mass
    ------------   -----------------  -----------------  -----------------  -----------------
         N           -1.005128882808    -0.363292365018     0.000026186818    14.003074004430
         N           -0.004884982808    -1.125651165018    -0.000023313182    14.003074004430
         C           -0.663484882808     0.953200634982     0.000006186818    12.000000000000
         C            0.721397117192     0.981537634982    -0.000004813182    12.000000000000
         C            1.110830117192    -0.369015365018    -0.000007813182    12.000000000000
         H           -1.408292882808     1.736753634982     0.000022186818     1.007825032230
         H            1.352700117192     1.858424634982    -0.000009813182     1.007825032230
         H           -1.935285882808    -0.762025365018     0.000040186818     1.007825032230
         H            2.108350117192    -0.788044365018    -0.000015813182     1.007825032230

  Basis Set: AUG-CC-PVTZ
    Blend: AUG-CC-PVTZ
  Basis Set: (AUG-CC-PVTZ AUX)
    Blend: AUG-CC-PVTZ-JKFIT
	 Reference Energy          =    -224.8698568782992027 [Eh]
	 Singles Energy            =      -0.0000000000000000 [Eh]
	 Same-Spin Energy          =      -0.2457359633720059 [Eh]
	 Opposite-Spin Energy      =      -0.7434307628222011 [Eh]
	 Correlation Energy        =      -0.9891667261942070 [Eh]
	 Total Energy              =    -225.8590236044934159 [Eh]

	 ================> DF-SCS-MP2 Energies <==================
	-----------------------------------------------------------
	 SCS Same-Spin Scale       =       0.3333333333333333 [-]
	 SCS Opposite-Spin Scale   =       1.2000000000000000 [-]
	 SCS Same-Spin Energy      =      -0.0819119877906686 [Eh]
	 SCS Opposite-Spin Energy  =      -0.8921169153866413 [Eh]
	 SCS Correlation Energy    =      -0.9740289031773099 [Eh]
	 SCS Total Energy          =    -225.8438857814765015 [Eh]
	-----------------------------------------------------------

  Dipole Moment: [D]
     X:    -1.5460      Y:     1.5430      Z:     0.0001     Total:     2.1842

*** Psi4 exiting successfully. Buy a developer a beer!
