                               Psi4 1.3.2 release

  ==> Input File <==

--------------------------------------------------------------------------
#psi4
#
memory 32 gb

molecule  {
0 1
  N       -1.0175820    -0.3767630     0.0000260
  N        0.0381600    -1.2151070    -0.0000250
  C       -0.6759380     0.9397300     0.0000060
  C        0.7089440     0.9680670    -0.0000050
  C        1.1770235    -0.3207225    -0.0000067
  H       -1.4207460     1.7232830     0.0000220
  H        1.3402470     1.8449540    -0.0000100
  H       -1.9477390    -0.7754960     0.0000400
  H        2.0958970    -0.8015150    -0.0000160
units angstrom
no_reorient  #important for SAPT in psi4, default
symmetry c1  #important for SAPT in psi4, default
}

set PROPERTIES_ORIGIN ["COM"]
properties('MP2/aug-cc-pvtz', properties = ['dipole'])
--------------------------------------------------------------------------

    Molecular point group: c1
  Charge       = 0
  Multiplicity = 1
  Basis Set: AUG-CC-PVTZ
    Blend: AUG-CC-PVTZ
  Basis Set: (AUG-CC-PVTZ AUX)
    Blend: AUG-CC-PVTZ-JKFIT

    Orbital Energies [Eh]
    ---------------------

    Doubly Occupied:

       1A    -15.653440     2A    -15.595012     3A    -11.280423
       4A    -11.257633     5A    -11.227436     6A     -1.361706
       7A     -1.076787     8A     -1.056034     9A     -0.835240
      10A     -0.800278    11A     -0.740302    12A     -0.611763
      13A     -0.599702    14A     -0.585189    15A     -0.578924
      16A     -0.454740    17A     -0.370034    18A     -0.332499

  @DF-RHF Final Energy:  -224.85534198242607

   => Energetics <=

    Nuclear Repulsion Energy =            161.4611205604605573
    One-Electron Energy =                -623.7986374353278052
    Two-Electron Energy =                 237.4821748924411509
    Total Energy =                       -224.8553419824260686
  Basis Set: (AUG-CC-PVTZ AUX)
    Blend: AUG-CC-PVTZ-RI
    Molecular point group: c1

    Geometry (in Angstrom), charge = 0, multiplicity = 1:

       Center              X                  Y                   Z               Mass
    ------------   -----------------  -----------------  -----------------  -----------------
         N           -1.030422335877    -0.358546972772     0.000026266254    14.003074004430
         N            0.025319664123    -1.196890972772    -0.000024733746    14.003074004430
         C           -0.688778335877     0.957946027228     0.000006266254    12.000000000000
         C            0.696103664123     0.986283027228    -0.000004733746    12.000000000000
         C            1.164183164123    -0.302506472772    -0.000006433746    12.000000000000
         H           -1.433586335877     1.741499027228     0.000022266254     1.007825032230
         H            1.327406664123     1.863170027228    -0.000009733746     1.007825032230
         H           -1.960579335877    -0.757279972772     0.000040266254     1.007825032230
         H            2.083056664123    -0.783298972772    -0.000015733746     1.007825032230

  Basis Set: AUG-CC-PVTZ
    Blend: AUG-CC-PVTZ
  Basis Set: (AUG-CC-PVTZ AUX)
    Blend: AUG-CC-PVTZ-JKFIT
	 Reference Energy          =    -224.8553419824260686 [Eh]
	 Singles Energy            =      -0.0000000000000000 [Eh]
	 Same-Spin Energy          =      -0.2485111951524488 [Eh]
	 Opposite-Spin Energy      =      -0.7514450243713919 [Eh]
	 Correlation Energy        =      -0.9999562195238407 [Eh]
	 Total Energy              =    -225.8552982019499211 [Eh]

	 ================> DF-SCS-MP2 Energies <==================
	-----------------------------------------------------------
	 SCS Same-Spin Scale       =       0.3333333333333333 [-]
	 SCS Opposite-Spin Scale   =       1.2000000000000000 [-]
	 SCS Same-Spin Energy      =      -0.0828370650508163 [Eh]
	 SCS Opposite-Spin Energy  =      -0.9017340292456703 [Eh]
	 SCS Correlation Energy    =      -0.9845710942964865 [Eh]
	 SCS Total Energy          =    -225.8399130767225529 [Eh]
	-----------------------------------------------------------

  Dipole Moment: [D]
     X:    -1.5426      Y:     1.7747      Z:     0.0001     Total:     2.3515

*** Psi4 exiting successfully. Buy a developer a beer!
