                               Psi4 1.3.2 release

  ==> Input File <==

--------------------------------------------------------------------------
#psi4
#
memory 32 gb

molecule  {
0 1
  N       -1.0175820    -0.3767630     0.0000260
  N       -0.1184650    -1.0907342    -0.0000174
  C       -0.6759380     0.9397300     0.0000060
  C        0.7089440     0.9680670    -0.0000050
  C        1.0983770    -0.3824860    -0.0000080
  H       -1.4207460     1.7232830     0.0000220
  H        1.3402470     1.8449540    -0.0000100
  H       -1.9477390    -0.7754960     0.0000400
  H        2.0958970    -0.8015150    -0.0000160
units angstrom
no_reorient  #important for SAPT in psi4, default
symmetry c1  #important for SAPT in psi4, default
}

set PROPERTIES_ORIGIN ["COM"]
properties('MP2/aug-cc-pvtz', properties = ['dipole'])
--------------------------------------------------------------------------

    Molecular point group: c1
  Charge       = 0
  Multiplicity = 1
  Basis Set: AUG-CC-PVTZ
    Blend: AUG-CC-PVTZ
  Basis Set: (AUG-CC-PVTZ AUX)
    Blend: AUG-CC-PVTZ-JKFIT

    Orbital Energies [Eh]
    ---------------------

    Doubly Occupied:

       1A    -15.662366     2A    -15.583149     3A    -11.253635
       4A    -11.245826     5A    -11.229475     6A     -1.479900
       7A     -1.083629     8A     -1.065006     9A     -0.841619
      10A     -0.823390    11A     -0.735435    12A     -0.658844
      13A     -0.639630    14A     -0.594662    15A     -0.554371
      16A     -0.438690    17A     -0.376181    18A     -0.317682

  @DF-RHF Final Energy:  -224.83014689935163

   => Energetics <=

    Nuclear Repulsion Energy =            166.4599030685623973
    One-Electron Energy =                -633.4131229504421299
    Two-Electron Energy =                 242.1230729825280719
    Total Energy =                       -224.8301468993516323
  Basis Set: (AUG-CC-PVTZ AUX)
    Blend: AUG-CC-PVTZ-RI
    Molecular point group: c1

    Geometry (in Angstrom), charge = 0, multiplicity = 1:

       Center              X                  Y                   Z               Mass
    ------------   -----------------  -----------------  -----------------  -----------------
         N           -0.984315529231    -0.373251220946     0.000024931351    14.003074004430
         N           -0.085198529231    -1.087222420946    -0.000018468649    14.003074004430
         C           -0.642671529231     0.943241779054     0.000004931351    12.000000000000
         C            0.742210470769     0.971578779054    -0.000006068649    12.000000000000
         C            1.131643470769    -0.378974220946    -0.000009068649    12.000000000000
         H           -1.387479529231     1.726794779054     0.000020931351     1.007825032230
         H            1.373513470769     1.848465779054    -0.000011068649     1.007825032230
         H           -1.914472529231    -0.771984220946     0.000038931351     1.007825032230
         H            2.129163470769    -0.798003220946    -0.000017068649     1.007825032230

  Basis Set: AUG-CC-PVTZ
    Blend: AUG-CC-PVTZ
  Basis Set: (AUG-CC-PVTZ AUX)
    Blend: AUG-CC-PVTZ-JKFIT
	 Reference Energy          =    -224.8301468993516323 [Eh]
	 Singles Energy            =      -0.0000000000000000 [Eh]
	 Same-Spin Energy          =      -0.2461457810562056 [Eh]
	 Opposite-Spin Energy      =      -0.7421128621061898 [Eh]
	 Correlation Energy        =      -0.9882586431623954 [Eh]
	 Total Energy              =    -225.8184055425140286 [Eh]

	 ================> DF-SCS-MP2 Energies <==================
	-----------------------------------------------------------
	 SCS Same-Spin Scale       =       0.3333333333333333 [-]
	 SCS Opposite-Spin Scale   =       1.2000000000000000 [-]
	 SCS Same-Spin Energy      =      -0.0820485936854019 [Eh]
	 SCS Opposite-Spin Energy  =      -0.8905354345274277 [Eh]
	 SCS Correlation Energy    =      -0.9725840282128295 [Eh]
	 SCS Total Energy          =    -225.8027309275644541 [Eh]
	-----------------------------------------------------------

  Dipole Moment: [D]
     X:    -1.5247      Y:     1.3341      Z:     0.0001     Total:     2.0259

*** Psi4 exiting successfully. Buy a developer a beer!
