                               Psi4 1.4a3.dev225

  ==> Input File <==

--------------------------------------------------------------------------
#psi4
#
memory 32 gb

molecule  {
0 1
  N       -1.0175820    -0.3767630     0.0000260
  N        0.0538225    -1.2275443    -0.0000258
  C       -0.6759380     0.9397300     0.0000060
  C        0.7089440     0.9680670    -0.0000050
  C        1.0983770    -0.3824860    -0.0000080
  H       -1.4207460     1.7232830     0.0000220
  H        1.3402470     1.8449540    -0.0000100
  H       -1.9477390    -0.7754960     0.0000400
  H        2.0958970    -0.8015150    -0.0000160
units angstrom
no_reorient  #important for SAPT in psi4, default
symmetry c1  #important for SAPT in psi4, default
}

set PROPERTIES_ORIGIN ["COM"]
properties('MP2/aug-cc-pvtz', properties = ['dipole'])
--------------------------------------------------------------------------

    Molecular point group: c1
  Charge       = 0
  Multiplicity = 1
  Basis Set: AUG-CC-PVTZ
    Blend: AUG-CC-PVTZ
  Basis Set: (AUG-CC-PVTZ AUX)
    Blend: AUG-CC-PVTZ-JKFIT

    Orbital Energies [Eh]
    ---------------------

    Doubly Occupied:

       1A    -15.641679     2A    -15.591720     3A    -11.284350
       4A    -11.256706     5A    -11.225132     6A     -1.364023
       7A     -1.094980     8A     -1.050488     9A     -0.824446
      10A     -0.796532    11A     -0.743065    12A     -0.604792
      13A     -0.602058    14A     -0.592043    15A     -0.564420
      16A     -0.464762    17A     -0.366498    18A     -0.346506

  @DF-RHF Final Energy:  -224.87252428313454

   => Energetics <=

    Nuclear Repulsion Energy =            162.2682856612632349
    One-Electron Energy =                -625.4532171308090938
    Two-Electron Energy =                 238.3124071864113205
    Total Energy =                       -224.8725242831345383
  Basis Set: (AUG-CC-PVTZ AUX)
    Blend: AUG-CC-PVTZ-RI
    Molecular point group: c1

    Geometry (in Angstrom), charge = 0, multiplicity = 1:

       Center              X                  Y                   Z               Mass
    ------------   -----------------  -----------------  -----------------  -----------------
         N           -1.019774745862    -0.345093757559     0.000026660191    14.003074004430
         N            0.051629754138    -1.195875057559    -0.000025139809    14.003074004430
         C           -0.678130745862     0.971399242441     0.000006660191    12.000000000000
         C            0.706751254138     0.999736242441    -0.000004339809    12.000000000000
         C            1.096184254138    -0.350816757559    -0.000007339809    12.000000000000
         H           -1.422938745862     1.754952242441     0.000022660191     1.007825032230
         H            1.338054254138     1.876623242441    -0.000009339809     1.007825032230
         H           -1.949931745862    -0.743826757559     0.000040660191     1.007825032230
         H            2.093704254138    -0.769845757559    -0.000015339809     1.007825032230

  Basis Set: AUG-CC-PVTZ
    Blend: AUG-CC-PVTZ
  Basis Set: (AUG-CC-PVTZ AUX)
    Blend: AUG-CC-PVTZ-JKFIT
	 Reference Energy          =    -224.8725242831345383 [Eh]
	 Singles Energy            =      -0.0000000000000000 [Eh]
	 Same-Spin Energy          =      -0.2457442121700683 [Eh]
	 Opposite-Spin Energy      =      -0.7465573757697036 [Eh]
	 Correlation Energy        =      -0.9923015879397720 [Eh]
	 Total Energy              =    -225.8648258710743164 [Eh]

	 ================> DF-SCS-MP2 Energies <==================
	-----------------------------------------------------------
	 SCS Same-Spin Scale       =       0.3333333333333333 [-]
	 SCS Opposite-Spin Scale   =       1.2000000000000000 [-]
	 SCS Same-Spin Energy      =      -0.0819147373900228 [Eh]
	 SCS Opposite-Spin Energy  =      -0.8958688509236443 [Eh]
	 SCS Correlation Energy    =      -0.9777835883136671 [Eh]
	 SCS Total Energy          =    -225.8503078714481944 [Eh]
	-----------------------------------------------------------

  Dipole Moment: [D]
     X:    -1.5162      Y:     1.7639      Z:     0.0001     Total:     2.3260

*** Psi4 exiting successfully. Buy a developer a beer!
