                               Psi4 1.3.2 release

  ==> Input File <==

--------------------------------------------------------------------------
#psi4
#
memory 32 gb

molecule  {
0 1
  N       -1.0175820    -0.3767630     0.0000260
  N        0.0381600    -1.2151070    -0.0000250
  C       -0.6759380     0.9397300     0.0000060
  C        0.8089231     0.9701127    -0.0000058
  C        1.0983770    -0.3824860    -0.0000080
  H       -1.4207460     1.7232830     0.0000220
  H        1.3402470     1.8449540    -0.0000100
  H       -1.9477390    -0.7754960     0.0000400
  H        2.0958970    -0.8015150    -0.0000160
units angstrom
no_reorient  #important for SAPT in psi4, default
symmetry c1  #important for SAPT in psi4, default
}

set PROPERTIES_ORIGIN ["COM"]
properties('MP2/aug-cc-pvtz', properties = ['dipole'])
--------------------------------------------------------------------------

    Molecular point group: c1
  Charge       = 0
  Multiplicity = 1
  Basis Set: AUG-CC-PVTZ
    Blend: AUG-CC-PVTZ
  Basis Set: (AUG-CC-PVTZ AUX)
    Blend: AUG-CC-PVTZ-JKFIT

    Orbital Energies [Eh]
    ---------------------

    Doubly Occupied:

       1A    -15.653149     2A    -15.586148     3A    -11.294395
       4A    -11.255980     5A    -11.229803     6A     -1.370452
       7A     -1.095197     8A     -1.042133     9A     -0.835985
      10A     -0.798382    11A     -0.742731    12A     -0.620305
      13A     -0.605471    14A     -0.603810    15A     -0.537862
      16A     -0.464308    17A     -0.371565    18A     -0.333387

  @DF-RHF Final Energy:  -224.85912963584204

   => Energetics <=

    Nuclear Repulsion Energy =            161.5208245880921254
    One-Electron Energy =                -623.8777847514504629
    Two-Electron Energy =                 237.4978305275162995
    Total Energy =                       -224.8591296358420379
  Basis Set: (AUG-CC-PVTZ AUX)
    Blend: AUG-CC-PVTZ-RI
    Molecular point group: c1

    Geometry (in Angstrom), charge = 0, multiplicity = 1:

       Center              X                  Y                   Z               Mass
    ------------   -----------------  -----------------  -----------------  -----------------
         N           -1.034184840306    -0.348014337883     0.000026636638    14.003074004430
         N            0.021557159694    -1.186358337883    -0.000024363362    14.003074004430
         C           -0.692540840306     0.968478662117     0.000006636638    12.000000000000
         C            0.792320259694     0.998861362117    -0.000005163362    12.000000000000
         C            1.081774159694    -0.353737337883    -0.000007363362    12.000000000000
         H           -1.437348840306     1.752031662117     0.000022636638     1.007825032230
         H            1.323644159694     1.873702662117    -0.000009363362     1.007825032230
         H           -1.964341840306    -0.746747337883     0.000040636638     1.007825032230
         H            2.079294159694    -0.772766337883    -0.000015363362     1.007825032230

  Basis Set: AUG-CC-PVTZ
    Blend: AUG-CC-PVTZ
  Basis Set: (AUG-CC-PVTZ AUX)
    Blend: AUG-CC-PVTZ-JKFIT
	 Reference Energy          =    -224.8591296358420379 [Eh]
	 Singles Energy            =      -0.0000000000000000 [Eh]
	 Same-Spin Energy          =      -0.2467032884832552 [Eh]
	 Opposite-Spin Energy      =      -0.7481952259439769 [Eh]
	 Correlation Energy        =      -0.9948985144272322 [Eh]
	 Total Energy              =    -225.8540281502692721 [Eh]

	 ================> DF-SCS-MP2 Energies <==================
	-----------------------------------------------------------
	 SCS Same-Spin Scale       =       0.3333333333333333 [-]
	 SCS Opposite-Spin Scale   =       1.2000000000000000 [-]
	 SCS Same-Spin Energy      =      -0.0822344294944184 [Eh]
	 SCS Opposite-Spin Energy  =      -0.8978342711327723 [Eh]
	 SCS Correlation Energy    =      -0.9800687006271906 [Eh]
	 SCS Total Energy          =    -225.8391983364692237 [Eh]
	-----------------------------------------------------------

  Dipole Moment: [D]
     X:    -1.5860      Y:     1.7124      Z:     0.0001     Total:     2.3340

*** Psi4 exiting successfully. Buy a developer a beer!
