                               Psi4 1.3.2 release

  ==> Input File <==

--------------------------------------------------------------------------
#psi4
#
memory 32 gb

molecule  {
0 1
  N       -1.0175820    -0.3767630     0.0000260
  N        0.0381600    -1.2151070    -0.0000250
  C       -0.6759380     0.9397300     0.0000060
  C        0.7089440     0.9680670    -0.0000050
  C        1.0706708    -0.2864008    -0.0000078
  H       -1.4207460     1.7232830     0.0000220
  H        1.3402470     1.8449540    -0.0000100
  H       -1.9477390    -0.7754960     0.0000400
  H        2.0958970    -0.8015150    -0.0000160
units angstrom
no_reorient  #important for SAPT in psi4, default
symmetry c1  #important for SAPT in psi4, default
}

set PROPERTIES_ORIGIN ["COM"]
properties('MP2/aug-cc-pvtz', properties = ['dipole'])
--------------------------------------------------------------------------

    Molecular point group: c1
  Charge       = 0
  Multiplicity = 1
  Basis Set: AUG-CC-PVTZ
    Blend: AUG-CC-PVTZ
  Basis Set: (AUG-CC-PVTZ AUX)
    Blend: AUG-CC-PVTZ-JKFIT

    Orbital Energies [Eh]
    ---------------------

    Doubly Occupied:

       1A    -15.650596     2A    -15.587883     3A    -11.282969
       4A    -11.251677     5A    -11.218095     6A     -1.373525
       7A     -1.087901     8A     -1.067957     9A     -0.837892
      10A     -0.785456    11A     -0.746578    12A     -0.609539
      13A     -0.608192    14A     -0.594263    15A     -0.540478
      16A     -0.470318    17A     -0.379598    18A     -0.337593

  @DF-RHF Final Energy:  -224.85474815538947

   => Energetics <=

    Nuclear Repulsion Energy =            163.5361981100081437
    One-Electron Energy =                -627.9208718325330665
    Two-Electron Energy =                 239.5299255671354217
    Total Energy =                       -224.8547481553894727
  Basis Set: (AUG-CC-PVTZ AUX)
    Blend: AUG-CC-PVTZ-RI
    Molecular point group: c1

    Geometry (in Angstrom), charge = 0, multiplicity = 1:

       Center              X                  Y                   Z               Mass
    ------------   -----------------  -----------------  -----------------  -----------------
         N           -1.011664542413    -0.364600409685     0.000026460265    14.003074004430
         N            0.044077457587    -1.202944409685    -0.000024539735    14.003074004430
         C           -0.670020542413     0.951892590315     0.000006460265    12.000000000000
         C            0.714861457587     0.980229590315    -0.000004539735    12.000000000000
         C            1.076588257587    -0.274238209685    -0.000007339735    12.000000000000
         H           -1.414828542413     1.735445590315     0.000022460265     1.007825032230
         H            1.346164457587     1.857116590315    -0.000009539735     1.007825032230
         H           -1.941821542413    -0.763333409685     0.000040460265     1.007825032230
         H            2.101814457587    -0.789352409685    -0.000015539735     1.007825032230

  Basis Set: AUG-CC-PVTZ
    Blend: AUG-CC-PVTZ
  Basis Set: (AUG-CC-PVTZ AUX)
    Blend: AUG-CC-PVTZ-JKFIT
	 Reference Energy          =    -224.8547481553894727 [Eh]
	 Singles Energy            =      -0.0000000000000000 [Eh]
	 Same-Spin Energy          =      -0.2478724940342913 [Eh]
	 Opposite-Spin Energy      =      -0.7492644535114750 [Eh]
	 Correlation Energy        =      -0.9971369475457663 [Eh]
	 Total Energy              =    -225.8518851029352277 [Eh]

	 ================> DF-SCS-MP2 Energies <==================
	-----------------------------------------------------------
	 SCS Same-Spin Scale       =       0.3333333333333333 [-]
	 SCS Opposite-Spin Scale   =       1.2000000000000000 [-]
	 SCS Same-Spin Energy      =      -0.0826241646780971 [Eh]
	 SCS Opposite-Spin Energy  =      -0.8991173442137700 [Eh]
	 SCS Correlation Energy    =      -0.9817415088918671 [Eh]
	 SCS Total Energy          =    -225.8364896642813449 [Eh]
	-----------------------------------------------------------

  Dipole Moment: [D]
     X:    -1.5976      Y:     1.8367      Z:     0.0001     Total:     2.4343

*** Psi4 exiting successfully. Buy a developer a beer!
