                               Psi4 1.3.2 release

  ==> Input File <==

--------------------------------------------------------------------------
#psi4
#
memory 32 gb

molecule  {
0 1
  N       -1.0175820    -0.3767630     0.0000260
  N        0.0381600    -1.2151070    -0.0000250
  C       -0.6759380     0.9397300     0.0000060
  C        0.6156828     0.9376116    -0.0000042
  C        1.0983770    -0.3824860    -0.0000080
  H       -1.4207460     1.7232830     0.0000220
  H        1.3402470     1.8449540    -0.0000100
  H       -1.9477390    -0.7754960     0.0000400
  H        2.0958970    -0.8015150    -0.0000160
units angstrom
no_reorient  #important for SAPT in psi4, default
symmetry c1  #important for SAPT in psi4, default
}

set PROPERTIES_ORIGIN ["COM"]
properties('MP2/aug-cc-pvtz', properties = ['dipole'])
--------------------------------------------------------------------------

    Molecular point group: c1
  Charge       = 0
  Multiplicity = 1
  Basis Set: AUG-CC-PVTZ
    Blend: AUG-CC-PVTZ
  Basis Set: (AUG-CC-PVTZ AUX)
    Blend: AUG-CC-PVTZ-JKFIT

    Orbital Energies [Eh]
    ---------------------

    Doubly Occupied:

       1A    -15.635254     2A    -15.593936     3A    -11.267633
       4A    -11.253908     5A    -11.220674     6A     -1.375457
       7A     -1.092950     8A     -1.066409     9A     -0.820496
      10A     -0.795656    11A     -0.745103    12A     -0.610416
      13A     -0.609946    14A     -0.586127    15A     -0.559505
      16A     -0.460063    17A     -0.364736    18A     -0.357164

  @DF-RHF Final Energy:  -224.86067128016981

   => Energetics <=

    Nuclear Repulsion Energy =            164.1468656671186750
    One-Electron Energy =                -629.1842067668685559
    Two-Electron Energy =                 240.1766698195800700
    Total Energy =                       -224.8606712801698109
  Basis Set: (AUG-CC-PVTZ AUX)
    Blend: AUG-CC-PVTZ-RI
    Molecular point group: c1

    Geometry (in Angstrom), charge = 0, multiplicity = 1:

       Center              X                  Y                   Z               Mass
    ------------   -----------------  -----------------  -----------------  -----------------
         N           -1.000102380375    -0.342282006488     0.000026354440    14.003074004430
         N            0.055639619625    -1.180626006488    -0.000024645560    14.003074004430
         C           -0.658458380375     0.974210993512     0.000006354440    12.000000000000
         C            0.633162419625     0.972092593512    -0.000003845560    12.000000000000
         C            1.115856619625    -0.348005006488    -0.000007645560    12.000000000000
         H           -1.403266380375     1.757763993512     0.000022354440     1.007825032230
         H            1.357726619625     1.879434993512    -0.000009645560     1.007825032230
         H           -1.930259380375    -0.741015006488     0.000040354440     1.007825032230
         H            2.113376619625    -0.767034006488    -0.000015645560     1.007825032230

  Basis Set: AUG-CC-PVTZ
    Blend: AUG-CC-PVTZ
  Basis Set: (AUG-CC-PVTZ AUX)
    Blend: AUG-CC-PVTZ-JKFIT
	 Reference Energy          =    -224.8606712801698109 [Eh]
	 Singles Energy            =      -0.0000000000000000 [Eh]
	 Same-Spin Energy          =      -0.2454907045457262 [Eh]
	 Opposite-Spin Energy      =      -0.7453611849573996 [Eh]
	 Correlation Energy        =      -0.9908518895031257 [Eh]
	 Total Energy              =    -225.8515231696729302 [Eh]

	 ================> DF-SCS-MP2 Energies <==================
	-----------------------------------------------------------
	 SCS Same-Spin Scale       =       0.3333333333333333 [-]
	 SCS Opposite-Spin Scale   =       1.2000000000000000 [-]
	 SCS Same-Spin Energy      =      -0.0818302348485754 [Eh]
	 SCS Opposite-Spin Energy  =      -0.8944334219488794 [Eh]
	 SCS Correlation Energy    =      -0.9762636567974549 [Eh]
	 SCS Total Energy          =    -225.8369349369672534 [Eh]
	-----------------------------------------------------------

  Dipole Moment: [D]
     X:    -1.4708      Y:     1.7538      Z:     0.0001     Total:     2.2889

*** Psi4 exiting successfully. Buy a developer a beer!
