                               Psi4 1.3.2 release

  ==> Input File <==

--------------------------------------------------------------------------
#psi4
#
memory 32 gb

molecule  {
0 1
  N       -1.0994293    -0.4917106     0.0000226
  N        0.0381600    -1.2151070    -0.0000250
  C       -0.6759380     0.9397300     0.0000060
  C        0.7089440     0.9680670    -0.0000050
  C        1.0983770    -0.3824860    -0.0000080
  H       -1.4207460     1.7232830     0.0000220
  H        1.3402470     1.8449540    -0.0000100
  H       -1.9477390    -0.7754960     0.0000400
  H        2.0958970    -0.8015150    -0.0000160
units angstrom
no_reorient  #important for SAPT in psi4, default
symmetry c1  #important for SAPT in psi4, default
}

set PROPERTIES_ORIGIN ["COM"]
properties('MP2/aug-cc-pvtz', properties = ['dipole'])
--------------------------------------------------------------------------

    Molecular point group: c1
  Charge       = 0
  Multiplicity = 1
  Basis Set: AUG-CC-PVTZ
    Blend: AUG-CC-PVTZ
  Basis Set: (AUG-CC-PVTZ AUX)
    Blend: AUG-CC-PVTZ-JKFIT

    Orbital Energies [Eh]
    ---------------------

    Doubly Occupied:

       1A    -15.633009     2A    -15.598740     3A    -11.291129
       4A    -11.259778     5A    -11.237551     6A     -1.352600
       7A     -1.100585     8A     -1.045011     9A     -0.854415
      10A     -0.791313    11A     -0.728247    12A     -0.642386
      13A     -0.589405    14A     -0.586881    15A     -0.564653
      16A     -0.447273    17A     -0.374379    18A     -0.339255

  @DF-RHF Final Energy:  -224.84001700182390

   => Energetics <=

    Nuclear Repulsion Energy =            160.4938786660960659
    One-Electron Energy =                -621.7945769404379917
    Two-Electron Energy =                 236.4606812725180305
    Total Energy =                       -224.8400170018238953
  Basis Set: (AUG-CC-PVTZ AUX)
    Blend: AUG-CC-PVTZ-RI
    Molecular point group: c1

    Geometry (in Angstrom), charge = 0, multiplicity = 1:

       Center              X                  Y                   Z               Mass
    ------------   -----------------  -----------------  -----------------  -----------------
         N           -1.081553142884    -0.438943280597     0.000023795308    14.003074004430
         N            0.056036157116    -1.162339680597    -0.000023804692    14.003074004430
         C           -0.658061842884     0.992497319403     0.000007195308    12.000000000000
         C            0.726820157116     1.020834319403    -0.000003804692    12.000000000000
         C            1.116253157116    -0.329718680597    -0.000006804692    12.000000000000
         H           -1.402869842884     1.776050319403     0.000023195308     1.007825032230
         H            1.358123157116     1.897721319403    -0.000008804692     1.007825032230
         H           -1.929862842884    -0.722728680597     0.000041195308     1.007825032230
         H            2.113773157116    -0.748747680597    -0.000014804692     1.007825032230

  Basis Set: AUG-CC-PVTZ
    Blend: AUG-CC-PVTZ
  Basis Set: (AUG-CC-PVTZ AUX)
    Blend: AUG-CC-PVTZ-JKFIT
	 Reference Energy          =    -224.8400170018238953 [Eh]
	 Singles Energy            =      -0.0000000000000000 [Eh]
	 Same-Spin Energy          =      -0.2452782102990556 [Eh]
	 Opposite-Spin Energy      =      -0.7480970342780248 [Eh]
	 Correlation Energy        =      -0.9933752445770804 [Eh]
	 Total Energy              =    -225.8333922464009618 [Eh]

	 ================> DF-SCS-MP2 Energies <==================
	-----------------------------------------------------------
	 SCS Same-Spin Scale       =       0.3333333333333333 [-]
	 SCS Opposite-Spin Scale   =       1.2000000000000000 [-]
	 SCS Same-Spin Energy      =      -0.0817594034330185 [Eh]
	 SCS Opposite-Spin Energy  =      -0.8977164411336297 [Eh]
	 SCS Correlation Energy    =      -0.9794758445666483 [Eh]
	 SCS Total Energy          =    -225.8194928463905455 [Eh]
	-----------------------------------------------------------

  Dipole Moment: [D]
     X:    -1.1852      Y:     1.8475      Z:     0.0001     Total:     2.1950

*** Psi4 exiting successfully. Buy a developer a beer!
