                               Psi4 1.4a3.dev225

  ==> Input File <==

--------------------------------------------------------------------------
#psi4
#
memory 32 gb

molecule  {
0 1
  N       -1.0175820    -0.3767630     0.0000260
  N        0.0381600    -1.2151070    -0.0000250
  C       -0.6709142     0.9590888     0.0000057
  C        0.7089440     0.9680670    -0.0000050
  C        1.0983770    -0.3824860    -0.0000080
  H       -1.4207460     1.7232830     0.0000220
  H        1.3402470     1.8449540    -0.0000100
  H       -1.9477390    -0.7754960     0.0000400
  H        2.0958970    -0.8015150    -0.0000160
units angstrom
no_reorient  #important for SAPT in psi4, default
symmetry c1  #important for SAPT in psi4, default
}

set PROPERTIES_ORIGIN ["COM"]
properties('MP2/aug-cc-pvtz', properties = ['dipole'])
--------------------------------------------------------------------------

    Molecular point group: c1
  Charge       = 0
  Multiplicity = 1
  Basis Set: AUG-CC-PVTZ
    Blend: AUG-CC-PVTZ
  Basis Set: (AUG-CC-PVTZ AUX)
    Blend: AUG-CC-PVTZ-JKFIT

    Orbital Energies [Eh]
    ---------------------

    Doubly Occupied:

       1A    -15.642283     2A    -15.592708     3A    -11.282142
       4A    -11.255661     5A    -11.226498     6A     -1.367809
       7A     -1.088831     8A     -1.054145     9A     -0.824769
      10A     -0.797947    11A     -0.742474    12A     -0.608913
      13A     -0.602731    14A     -0.590224    15A     -0.567575
      16A     -0.463331    17A     -0.363740    18A     -0.347370

  @DF-RHF Final Energy:  -224.87224160756944

   => Energetics <=

    Nuclear Repulsion Energy =            162.3468965972163005
    One-Electron Energy =                -625.5999737110842034
    Two-Electron Energy =                 238.3808355062984674
    Total Energy =                       -224.8722416075694355
  Basis Set: (AUG-CC-PVTZ AUX)
    Blend: AUG-CC-PVTZ-RI
    Molecular point group: c1

    Geometry (in Angstrom), charge = 0, multiplicity = 1:

       Center              X                  Y                   Z               Mass
    ------------   -----------------  -----------------  -----------------  -----------------
         N           -1.017437245692    -0.351067909198     0.000026548451    14.003074004430
         N            0.038304754308    -1.189411909198    -0.000024451549    14.003074004430
         C           -0.670769445692     0.984783890802     0.000006248451    12.000000000000
         C            0.709088754308     0.993762090802    -0.000004451549    12.000000000000
         C            1.098521754308    -0.356790909198    -0.000007451549    12.000000000000
         H           -1.420601245692     1.748978090802     0.000022548451     1.007825032230
         H            1.340391754308     1.870649090802    -0.000009451549     1.007825032230
         H           -1.947594245692    -0.749800909198     0.000040548451     1.007825032230
         H            2.096041754308    -0.775819909198    -0.000015451549     1.007825032230

  Basis Set: AUG-CC-PVTZ
    Blend: AUG-CC-PVTZ
  Basis Set: (AUG-CC-PVTZ AUX)
    Blend: AUG-CC-PVTZ-JKFIT
	 Reference Energy          =    -224.8722416075694355 [Eh]
	 Singles Energy            =      -0.0000000000000000 [Eh]
	 Same-Spin Energy          =      -0.2459650395375144 [Eh]
	 Opposite-Spin Energy      =      -0.7467085135672618 [Eh]
	 Correlation Energy        =      -0.9926735531047761 [Eh]
	 Total Energy              =    -225.8649151606742009 [Eh]

	 ================> DF-SCS-MP2 Energies <==================
	-----------------------------------------------------------
	 SCS Same-Spin Scale       =       0.3333333333333333 [-]
	 SCS Opposite-Spin Scale   =       1.2000000000000000 [-]
	 SCS Same-Spin Energy      =      -0.0819883465125048 [Eh]
	 SCS Opposite-Spin Energy  =      -0.8960502162807141 [Eh]
	 SCS Correlation Energy    =      -0.9780385627932189 [Eh]
	 SCS Total Energy          =    -225.8502801703626517 [Eh]
	-----------------------------------------------------------

  Dipole Moment: [D]
     X:    -1.4925      Y:     1.7516      Z:     0.0001     Total:     2.3012

*** Psi4 exiting successfully. Buy a developer a beer!
