                               Psi4 1.3.2 release

  ==> Input File <==

--------------------------------------------------------------------------
#psi4
#
memory 32 gb

molecule  {
0 1
  N       -1.0175820    -0.3767630     0.0000260
  N        0.0381600    -1.2151070    -0.0000250
  C       -0.6759380     0.9397300     0.0000060
  C        0.7089440     0.9680670    -0.0000050
  C        1.0983770    -0.3824860    -0.0000080
  H       -1.5585380     1.8682429     0.0000250
  H        1.3402470     1.8449540    -0.0000100
  H       -1.9477390    -0.7754960     0.0000400
  H        2.0958970    -0.8015150    -0.0000160
units angstrom
no_reorient  #important for SAPT in psi4, default
symmetry c1  #important for SAPT in psi4, default
}

set PROPERTIES_ORIGIN ["COM"]
properties('MP2/aug-cc-pvtz', properties = ['dipole'])
--------------------------------------------------------------------------

    Molecular point group: c1
  Charge       = 0
  Multiplicity = 1
  Basis Set: AUG-CC-PVTZ
    Blend: AUG-CC-PVTZ
  Basis Set: (AUG-CC-PVTZ AUX)
    Blend: AUG-CC-PVTZ-JKFIT

    Orbital Energies [Eh]
    ---------------------

    Doubly Occupied:

       1A    -15.644888     2A    -15.591460     3A    -11.302019
       4A    -11.257073     5A    -11.226960     6A     -1.372765
       7A     -1.091346     8A     -1.051329     9A     -0.820964
      10A     -0.797864    11A     -0.715155    12A     -0.606871
      13A     -0.606563    14A     -0.585720    15A     -0.546070
      16A     -0.462920    17A     -0.365950    18A     -0.347139

  @DF-RHF Final Energy:  -224.85041843137432

   => Energetics <=

    Nuclear Repulsion Energy =            161.7791209396274610
    One-Electron Energy =                -624.4729678480437087
    Two-Electron Energy =                 237.8434284770419538
    Total Energy =                       -224.8504184313743224
  Basis Set: (AUG-CC-PVTZ AUX)
    Blend: AUG-CC-PVTZ-RI
    Molecular point group: c1

    Geometry (in Angstrom), charge = 0, multiplicity = 1:

       Center              X                  Y                   Z               Mass
    ------------   -----------------  -----------------  -----------------  -----------------
         N           -1.014510095537    -0.349800792537     0.000026451101    14.003074004430
         N            0.041231904463    -1.188144792537    -0.000024548899    14.003074004430
         C           -0.672866095537     0.966692207463     0.000006451101    12.000000000000
         C            0.712015904463     0.995029207463    -0.000004548899    12.000000000000
         C            1.101448904463    -0.355523792537    -0.000007548899    12.000000000000
         H           -1.555466095537     1.895205107463     0.000025451101     1.007825032230
         H            1.343318904463     1.871916207463    -0.000009548899     1.007825032230
         H           -1.944667095537    -0.748533792537     0.000040451101     1.007825032230
         H            2.098968904463    -0.774552792537    -0.000015548899     1.007825032230

  Basis Set: AUG-CC-PVTZ
    Blend: AUG-CC-PVTZ
  Basis Set: (AUG-CC-PVTZ AUX)
    Blend: AUG-CC-PVTZ-JKFIT
	 Reference Energy          =    -224.8504184313743224 [Eh]
	 Singles Energy            =      -0.0000000000000000 [Eh]
	 Same-Spin Energy          =      -0.2463467530891678 [Eh]
	 Opposite-Spin Energy      =      -0.7482858408024398 [Eh]
	 Correlation Energy        =      -0.9946325938916076 [Eh]
	 Total Energy              =    -225.8450510252659171 [Eh]

	 ================> DF-SCS-MP2 Energies <==================
	-----------------------------------------------------------
	 SCS Same-Spin Scale       =       0.3333333333333333 [-]
	 SCS Opposite-Spin Scale   =       1.2000000000000000 [-]
	 SCS Same-Spin Energy      =      -0.0821155843630559 [Eh]
	 SCS Opposite-Spin Energy  =      -0.8979430089629277 [Eh]
	 SCS Correlation Energy    =      -0.9800585933259836 [Eh]
	 SCS Total Energy          =    -225.8304770247003148 [Eh]
	-----------------------------------------------------------

  Dipole Moment: [D]
     X:    -1.5078      Y:     1.7270      Z:     0.0001     Total:     2.2926

*** Psi4 exiting successfully. Buy a developer a beer!
