                               Psi4 1.3.2 release

  ==> Input File <==

--------------------------------------------------------------------------
#psi4
#
memory 32 gb

molecule  {
0 1
  N       -1.0175820    -0.3767630     0.0000260
  N        0.0381600    -1.2151070    -0.0000250
  C       -0.5849363     0.9126912     0.0000055
  C        0.7089440     0.9680670    -0.0000050
  C        1.0983770    -0.3824860    -0.0000080
  H       -1.4207460     1.7232830     0.0000220
  H        1.3402470     1.8449540    -0.0000100
  H       -1.9477390    -0.7754960     0.0000400
  H        2.0958970    -0.8015150    -0.0000160
units angstrom
no_reorient  #important for SAPT in psi4, default
symmetry c1  #important for SAPT in psi4, default
}

set PROPERTIES_ORIGIN ["COM"]
properties('MP2/aug-cc-pvtz', properties = ['dipole'])
--------------------------------------------------------------------------

    Molecular point group: c1
  Charge       = 0
  Multiplicity = 1
  Basis Set: AUG-CC-PVTZ
    Blend: AUG-CC-PVTZ
  Basis Set: (AUG-CC-PVTZ AUX)
    Blend: AUG-CC-PVTZ-JKFIT

    Orbital Energies [Eh]
    ---------------------

    Doubly Occupied:

       1A    -15.635552     2A    -15.590078     3A    -11.276944
       4A    -11.255402     5A    -11.216166     6A     -1.375111
       7A     -1.086012     8A     -1.073028     9A     -0.822520
      10A     -0.801800    11A     -0.731353    12A     -0.622648
      13A     -0.609587    14A     -0.585844    15A     -0.550882
      16A     -0.461063    17A     -0.370889    18A     -0.353093

  @DF-RHF Final Energy:  -224.86187031752621

   => Energetics <=

    Nuclear Repulsion Energy =            164.0033093899171774
    One-Electron Energy =                -628.8944173261066908
    Two-Electron Energy =                 240.0292376186633305
    Total Energy =                       -224.8618703175262112
  Basis Set: (AUG-CC-PVTZ AUX)
    Blend: AUG-CC-PVTZ-RI
    Molecular point group: c1

    Geometry (in Angstrom), charge = 0, multiplicity = 1:

       Center              X                  Y                   Z               Mass
    ------------   -----------------  -----------------  -----------------  -----------------
         N           -1.032601465225    -0.342884604045     0.000026583726    14.003074004430
         N            0.023140534775    -1.181228604045    -0.000024416274    14.003074004430
         C           -0.599955765225     0.946569595955     0.000006083726    12.000000000000
         C            0.693924534775     1.001945395955    -0.000004416274    12.000000000000
         C            1.083357534775    -0.348607604045    -0.000007416274    12.000000000000
         H           -1.435765465225     1.757161395955     0.000022583726     1.007825032230
         H            1.325227534775     1.878832395955    -0.000009416274     1.007825032230
         H           -1.962758465225    -0.741617604045     0.000040583726     1.007825032230
         H            2.080877534775    -0.767636604045    -0.000015416274     1.007825032230

  Basis Set: AUG-CC-PVTZ
    Blend: AUG-CC-PVTZ
  Basis Set: (AUG-CC-PVTZ AUX)
    Blend: AUG-CC-PVTZ-JKFIT
	 Reference Energy          =    -224.8618703175262112 [Eh]
	 Singles Energy            =      -0.0000000000000000 [Eh]
	 Same-Spin Energy          =      -0.2451839839430216 [Eh]
	 Opposite-Spin Energy      =      -0.7450964648388063 [Eh]
	 Correlation Energy        =      -0.9902804487818279 [Eh]
	 Total Energy              =    -225.8521507663080286 [Eh]

	 ================> DF-SCS-MP2 Energies <==================
	-----------------------------------------------------------
	 SCS Same-Spin Scale       =       0.3333333333333333 [-]
	 SCS Opposite-Spin Scale   =       1.2000000000000000 [-]
	 SCS Same-Spin Energy      =      -0.0817279946476739 [Eh]
	 SCS Opposite-Spin Energy  =      -0.8941157578065676 [Eh]
	 SCS Correlation Energy    =      -0.9758437524542415 [Eh]
	 SCS Total Energy          =    -225.8377140699804499 [Eh]
	-----------------------------------------------------------

  Dipole Moment: [D]
     X:    -1.4241      Y:     1.7943      Z:     0.0001     Total:     2.2907

*** Psi4 exiting successfully. Buy a developer a beer!
