                               Psi4 1.3.2 release

  ==> Input File <==

--------------------------------------------------------------------------
#psi4
#
memory 32 gb

molecule  {
0 1
  N       -1.0175820    -0.3767630     0.0000260
  N        0.0381600    -1.2151070    -0.0000250
  C       -0.7220911     0.9508512     0.0000063
  C        0.7089440     0.9680670    -0.0000050
  C        1.0983770    -0.3824860    -0.0000080
  H       -1.4207460     1.7232830     0.0000220
  H        1.3402470     1.8449540    -0.0000100
  H       -1.9477390    -0.7754960     0.0000400
  H        2.0958970    -0.8015150    -0.0000160
units angstrom
no_reorient  #important for SAPT in psi4, default
symmetry c1  #important for SAPT in psi4, default
}

set PROPERTIES_ORIGIN ["COM"]
properties('MP2/aug-cc-pvtz', properties = ['dipole'])
--------------------------------------------------------------------------

    Molecular point group: c1
  Charge       = 0
  Multiplicity = 1
  Basis Set: AUG-CC-PVTZ
    Blend: AUG-CC-PVTZ
  Basis Set: (AUG-CC-PVTZ AUX)
    Blend: AUG-CC-PVTZ-JKFIT

    Orbital Energies [Eh]
    ---------------------

    Doubly Occupied:

       1A    -15.647954     2A    -15.590975     3A    -11.284710
       4A    -11.256251     5A    -11.229728     6A     -1.370524
       7A     -1.096257     8A     -1.044107     9A     -0.827647
      10A     -0.798309    11A     -0.749780    12A     -0.606521
      13A     -0.604480    14A     -0.596630    15A     -0.560149
      16A     -0.463476    17A     -0.365953    18A     -0.340109

  @DF-RHF Final Energy:  -224.86859238057383

   => Energetics <=

    Nuclear Repulsion Energy =            161.9803241122916404
    One-Electron Energy =                -624.8307139580932699
    Two-Electron Energy =                 237.9817974652277712
    Total Energy =                       -224.8685923805738298
  Basis Set: (AUG-CC-PVTZ AUX)
    Blend: AUG-CC-PVTZ-RI
    Molecular point group: c1

    Geometry (in Angstrom), charge = 0, multiplicity = 1:

       Center              X                  Y                   Z               Mass
    ------------   -----------------  -----------------  -----------------  -----------------
         N           -1.008410998871    -0.349615015201     0.000026442627    14.003074004430
         N            0.047331001129    -1.187959015201    -0.000024557373    14.003074004430
         C           -0.712920098871     0.977999184799     0.000006742627    12.000000000000
         C            0.718115001129     0.995214984799    -0.000004557373    12.000000000000
         C            1.107548001129    -0.355338015201    -0.000007557373    12.000000000000
         H           -1.411574998871     1.750430984799     0.000022442627     1.007825032230
         H            1.349418001129     1.872101984799    -0.000009557373     1.007825032230
         H           -1.938567998871    -0.748348015201     0.000040442627     1.007825032230
         H            2.105068001129    -0.774367015201    -0.000015557373     1.007825032230

  Basis Set: AUG-CC-PVTZ
    Blend: AUG-CC-PVTZ
  Basis Set: (AUG-CC-PVTZ AUX)
    Blend: AUG-CC-PVTZ-JKFIT
	 Reference Energy          =    -224.8685923805738298 [Eh]
	 Singles Energy            =      -0.0000000000000000 [Eh]
	 Same-Spin Energy          =      -0.2463239248802813 [Eh]
	 Opposite-Spin Energy      =      -0.7472418700555838 [Eh]
	 Correlation Energy        =      -0.9935657949358652 [Eh]
	 Total Energy              =    -225.8621581755097054 [Eh]

	 ================> DF-SCS-MP2 Energies <==================
	-----------------------------------------------------------
	 SCS Same-Spin Scale       =       0.3333333333333333 [-]
	 SCS Opposite-Spin Scale   =       1.2000000000000000 [-]
	 SCS Same-Spin Energy      =      -0.0821079749600938 [Eh]
	 SCS Opposite-Spin Energy  =      -0.8966902440667006 [Eh]
	 SCS Correlation Energy    =      -0.9787982190267943 [Eh]
	 SCS Total Energy          =    -225.8473905996006295 [Eh]
	-----------------------------------------------------------

  Dipole Moment: [D]
     X:    -1.5479      Y:     1.6971      Z:     0.0001     Total:     2.2970

*** Psi4 exiting successfully. Buy a developer a beer!
