                               Psi4 1.3.2 release

  ==> Input File <==

--------------------------------------------------------------------------
#psi4
#
memory 32 gb

molecule  {
0 1
  N       -1.0175820    -0.3767630     0.0000260
  N        0.0381600    -1.2151070    -0.0000250
  C       -0.6759380     0.9397300     0.0000060
  C        0.7089440     0.9680670    -0.0000050
  C        1.2374149    -0.3343807    -0.0000091
  H       -1.4207460     1.7232830     0.0000220
  H        1.3402470     1.8449540    -0.0000100
  H       -1.9477390    -0.7754960     0.0000400
  H        2.0958970    -0.8015150    -0.0000160
units angstrom
no_reorient  #important for SAPT in psi4, default
symmetry c1  #important for SAPT in psi4, default
}

set PROPERTIES_ORIGIN ["COM"]
properties('MP2/aug-cc-pvtz', properties = ['dipole'])
--------------------------------------------------------------------------

    Molecular point group: c1
  Charge       = 0
  Multiplicity = 1
  Basis Set: AUG-CC-PVTZ
    Blend: AUG-CC-PVTZ
  Basis Set: (AUG-CC-PVTZ AUX)
    Blend: AUG-CC-PVTZ-JKFIT

    Orbital Energies [Eh]
    ---------------------

    Doubly Occupied:

       1A    -15.656129     2A    -15.599573     3A    -11.279615
       4A    -11.261553     5A    -11.233571     6A     -1.357084
       7A     -1.070514     8A     -1.051579     9A     -0.841457
      10A     -0.805560    11A     -0.737441    12A     -0.620466
      13A     -0.596287    14A     -0.592037    15A     -0.577088
      16A     -0.445817    17A     -0.366213    18A     -0.329207

  @DF-RHF Final Energy:  -224.83655416309355

   => Energetics <=

    Nuclear Repulsion Energy =            160.3731313292605023
    One-Electron Energy =                -621.5769894547329386
    Two-Electron Energy =                 236.3673039623788839
    Total Energy =                       -224.8365541630935525
  Basis Set: (AUG-CC-PVTZ AUX)
    Blend: AUG-CC-PVTZ-RI
    Molecular point group: c1

    Geometry (in Angstrom), charge = 0, multiplicity = 1:

       Center              X                  Y                   Z               Mass
    ------------   -----------------  -----------------  -----------------  -----------------
         N           -1.041073775927    -0.356138028808     0.000026689550    14.003074004430
         N            0.014668224073    -1.194482028808    -0.000024310450    14.003074004430
         C           -0.699429775927     0.960354971192     0.000006689550    12.000000000000
         C            0.685452224073     0.988691971192    -0.000004310450    12.000000000000
         C            1.213923124073    -0.313755728808    -0.000008410450    12.000000000000
         H           -1.444237775927     1.743907971192     0.000022689550     1.007825032230
         H            1.316755224073     1.865578971192    -0.000009310450     1.007825032230
         H           -1.971230775927    -0.754871028808     0.000040689550     1.007825032230
         H            2.072405224073    -0.780890028808    -0.000015310450     1.007825032230

  Basis Set: AUG-CC-PVTZ
    Blend: AUG-CC-PVTZ
  Basis Set: (AUG-CC-PVTZ AUX)
    Blend: AUG-CC-PVTZ-JKFIT
	 Reference Energy          =    -224.8365541630935525 [Eh]
	 Singles Energy            =      -0.0000000000000000 [Eh]
	 Same-Spin Energy          =      -0.2493477581297348 [Eh]
	 Opposite-Spin Energy      =      -0.7539402980333842 [Eh]
	 Correlation Energy        =      -1.0032880561631190 [Eh]
	 Total Energy              =    -225.8398422192566670 [Eh]

	 ================> DF-SCS-MP2 Energies <==================
	-----------------------------------------------------------
	 SCS Same-Spin Scale       =       0.3333333333333333 [-]
	 SCS Opposite-Spin Scale   =       1.2000000000000000 [-]
	 SCS Same-Spin Energy      =      -0.0831159193765783 [Eh]
	 SCS Opposite-Spin Energy  =      -0.9047283576400611 [Eh]
	 SCS Correlation Energy    =      -0.9878442770166393 [Eh]
	 SCS Total Energy          =    -225.8243984401102011 [Eh]
	-----------------------------------------------------------

  Dipole Moment: [D]
     X:    -1.5522      Y:     1.7661      Z:     0.0001     Total:     2.3513

*** Psi4 exiting successfully. Buy a developer a beer!
