                               Psi4 1.4a3.dev225

  ==> Input File <==

--------------------------------------------------------------------------
#psi4
#
memory 32 gb

molecule  {
0 1
  N       -1.0175820    -0.3767630     0.0000260
  N        0.0381600    -1.2151070    -0.0000250
  C       -0.6759380     0.9397300     0.0000060
  C        0.7089440     0.9680670    -0.0000050
  C        1.0983770    -0.3824860    -0.0000080
  H       -1.3862980     1.6870430     0.0000213
  H        1.3402470     1.8449540    -0.0000100
  H       -1.9477390    -0.7754960     0.0000400
  H        2.0958970    -0.8015150    -0.0000160
units angstrom
no_reorient  #important for SAPT in psi4, default
symmetry c1  #important for SAPT in psi4, default
}

set PROPERTIES_ORIGIN ["COM"]
properties('MP2/aug-cc-pvtz', properties = ['dipole'])
--------------------------------------------------------------------------

    Molecular point group: c1
  Charge       = 0
  Multiplicity = 1
  Basis Set: AUG-CC-PVTZ
    Blend: AUG-CC-PVTZ
  Basis Set: (AUG-CC-PVTZ AUX)
    Blend: AUG-CC-PVTZ-JKFIT

    Orbital Energies [Eh]
    ---------------------

    Doubly Occupied:

       1A    -15.643272     2A    -15.590470     3A    -11.276507
       4A    -11.255472     5A    -11.225172     6A     -1.371454
       7A     -1.093175     8A     -1.053581     9A     -0.827570
      10A     -0.799952    11A     -0.750900    12A     -0.609055
      13A     -0.605477    14A     -0.594588    15A     -0.566242
      16A     -0.462703    17A     -0.364712    18A     -0.346166

  @DF-RHF Final Energy:  -224.87261149368638

   => Energetics <=

    Nuclear Repulsion Energy =            162.8531991571172455
    One-Electron Energy =                -626.5786844086993597
    Two-Electron Energy =                 238.8528737578957077
    Total Energy =                       -224.8726114936863780
  Basis Set: (AUG-CC-PVTZ AUX)
    Blend: AUG-CC-PVTZ-RI
    Molecular point group: c1

    Geometry (in Angstrom), charge = 0, multiplicity = 1:

       Center              X                  Y                   Z               Mass
    ------------   -----------------  -----------------  -----------------  -----------------
         N           -1.017061452008    -0.347116714871     0.000026505908    14.003074004430
         N            0.038680547992    -1.185460714871    -0.000024494092    14.003074004430
         C           -0.675417452008     0.969376285129     0.000006505908    12.000000000000
         C            0.709464547992     0.997713285129    -0.000004494092    12.000000000000
         C            1.098897547992    -0.352839714871    -0.000007494092    12.000000000000
         H           -1.385777452008     1.716689285129     0.000021805908     1.007825032230
         H            1.340767547992     1.874600285129    -0.000009494092     1.007825032230
         H           -1.947218452008    -0.745849714871     0.000040505908     1.007825032230
         H            2.096417547992    -0.771868714871    -0.000015494092     1.007825032230

  Basis Set: AUG-CC-PVTZ
    Blend: AUG-CC-PVTZ
  Basis Set: (AUG-CC-PVTZ AUX)
    Blend: AUG-CC-PVTZ-JKFIT
	 Reference Energy          =    -224.8726114936863780 [Eh]
	 Singles Energy            =      -0.0000000000000000 [Eh]
	 Same-Spin Energy          =      -0.2457626040135391 [Eh]
	 Opposite-Spin Energy      =      -0.7459208134559449 [Eh]
	 Correlation Energy        =      -0.9916834174694840 [Eh]
	 Total Energy              =    -225.8642949111558664 [Eh]

	 ================> DF-SCS-MP2 Energies <==================
	-----------------------------------------------------------
	 SCS Same-Spin Scale       =       0.3333333333333333 [-]
	 SCS Opposite-Spin Scale   =       1.2000000000000000 [-]
	 SCS Same-Spin Energy      =      -0.0819208680045130 [Eh]
	 SCS Opposite-Spin Energy  =      -0.8951049761471338 [Eh]
	 SCS Correlation Energy    =      -0.9770258441516468 [Eh]
	 SCS Total Energy          =    -225.8496373378380326 [Eh]
	-----------------------------------------------------------

  Dipole Moment: [D]
     X:    -1.5218      Y:     1.7380      Z:     0.0001     Total:     2.3100

*** Psi4 exiting successfully. Buy a developer a beer!
