                               Psi4 1.3.2 release

  ==> Input File <==

--------------------------------------------------------------------------
#psi4
#
memory 32 gb

molecule  {
0 1
  N       -1.0175820    -0.3767630     0.0000260
  N        0.0381600    -1.2151070    -0.0000250
  C       -0.6759380     0.9397300     0.0000060
  C        0.7092276     0.9438932    -0.0000053
  C        1.0983770    -0.3824860    -0.0000080
  H       -1.4207460     1.7232830     0.0000220
  H        1.3402470     1.8449540    -0.0000100
  H       -1.9477390    -0.7754960     0.0000400
  H        2.0958970    -0.8015150    -0.0000160
units angstrom
no_reorient  #important for SAPT in psi4, default
symmetry c1  #important for SAPT in psi4, default
}

set PROPERTIES_ORIGIN ["COM"]
properties('MP2/aug-cc-pvtz', properties = ['dipole'])
--------------------------------------------------------------------------

    Molecular point group: c1
  Charge       = 0
  Multiplicity = 1
  Basis Set: AUG-CC-PVTZ
    Blend: AUG-CC-PVTZ
  Basis Set: (AUG-CC-PVTZ AUX)
    Blend: AUG-CC-PVTZ-JKFIT

    Orbital Energies [Eh]
    ---------------------

    Doubly Occupied:

       1A    -15.644415     2A    -15.589454     3A    -11.281384
       4A    -11.252836     5A    -11.224486     6A     -1.372734
       7A     -1.093622     8A     -1.054240     9A     -0.826988
      10A     -0.797477    11A     -0.742797    12A     -0.607898
      13A     -0.606593    14A     -0.589134    15A     -0.565087
      16A     -0.462414    17A     -0.367607    18A     -0.344935

  @DF-RHF Final Energy:  -224.87236980176021

   => Energetics <=

    Nuclear Repulsion Energy =            162.9645707585517300
    One-Electron Energy =                -626.8256794303167680
    Two-Electron Energy =                 238.9887388700047950
    Total Energy =                       -224.8723698017602146
  Basis Set: (AUG-CC-PVTZ AUX)
    Blend: AUG-CC-PVTZ-RI
    Molecular point group: c1

    Geometry (in Angstrom), charge = 0, multiplicity = 1:

       Center              X                  Y                   Z               Mass
    ------------   -----------------  -----------------  -----------------  -----------------
         N           -1.016601200227    -0.343389914002     0.000026548451    14.003074004430
         N            0.039140799773    -1.181733914002    -0.000024451549    14.003074004430
         C           -0.674957200227     0.973103085998     0.000006548451    12.000000000000
         C            0.710208399773     0.977266285998    -0.000004751549    12.000000000000
         C            1.099357799773    -0.349112914002    -0.000007451549    12.000000000000
         H           -1.419765200227     1.756656085998     0.000022548451     1.007825032230
         H            1.341227799773     1.878327085998    -0.000009451549     1.007825032230
         H           -1.946758200227    -0.742122914002     0.000040548451     1.007825032230
         H            2.096877799773    -0.768141914002    -0.000015451549     1.007825032230

  Basis Set: AUG-CC-PVTZ
    Blend: AUG-CC-PVTZ
  Basis Set: (AUG-CC-PVTZ AUX)
    Blend: AUG-CC-PVTZ-JKFIT
	 Reference Energy          =    -224.8723698017602146 [Eh]
	 Singles Energy            =      -0.0000000000000000 [Eh]
	 Same-Spin Energy          =      -0.2461244160802365 [Eh]
	 Opposite-Spin Energy      =      -0.7463836621175173 [Eh]
	 Correlation Energy        =      -0.9925080781977538 [Eh]
	 Total Energy              =    -225.8648778799579588 [Eh]

	 ================> DF-SCS-MP2 Energies <==================
	-----------------------------------------------------------
	 SCS Same-Spin Scale       =       0.3333333333333333 [-]
	 SCS Opposite-Spin Scale   =       1.2000000000000000 [-]
	 SCS Same-Spin Energy      =      -0.0820414720267455 [Eh]
	 SCS Opposite-Spin Energy  =      -0.8956603945410208 [Eh]
	 SCS Correlation Energy    =      -0.9777018665677663 [Eh]
	 SCS Total Energy          =    -225.8500716683279848 [Eh]
	-----------------------------------------------------------

  Dipole Moment: [D]
     X:    -1.5318      Y:     1.7467      Z:     0.0001     Total:     2.3232

*** Psi4 exiting successfully. Buy a developer a beer!
