                               Psi4 1.3.2 release

  ==> Input File <==

--------------------------------------------------------------------------
#psi4
#
memory 32 gb

molecule  {
0 1
  N       -1.0175820    -0.3767630     0.0000260
  N        0.0381600    -1.2151070    -0.0000250
  C       -0.6759380     0.9397300     0.0000060
  C        0.6854329     0.9610648    -0.0000048
  C        1.0983770    -0.3824860    -0.0000080
  H       -1.4207460     1.7232830     0.0000220
  H        1.3402470     1.8449540    -0.0000100
  H       -1.9477390    -0.7754960     0.0000400
  H        2.0958970    -0.8015150    -0.0000160
units angstrom
no_reorient  #important for SAPT in psi4, default
symmetry c1  #important for SAPT in psi4, default
}

set PROPERTIES_ORIGIN ["COM"]
properties('MP2/aug-cc-pvtz', properties = ['dipole'])
--------------------------------------------------------------------------

    Molecular point group: c1
  Charge       = 0
  Multiplicity = 1
  Basis Set: AUG-CC-PVTZ
    Blend: AUG-CC-PVTZ
  Basis Set: (AUG-CC-PVTZ AUX)
    Blend: AUG-CC-PVTZ-JKFIT

    Orbital Energies [Eh]
    ---------------------

    Doubly Occupied:

       1A    -15.641373     2A    -15.591363     3A    -11.278563
       4A    -11.255136     5A    -11.224184     6A     -1.372338
       7A     -1.092251     8A     -1.056135     9A     -0.823104
      10A     -0.798755    11A     -0.743119    12A     -0.608230
      13A     -0.606517    14A     -0.584719    15A     -0.570029
      16A     -0.462146    17A     -0.364135    18A     -0.349372

  @DF-RHF Final Energy:  -224.87317445012081

   => Energetics <=

    Nuclear Repulsion Energy =            162.9761190337223127
    One-Electron Energy =                -626.8556526375178919
    Two-Electron Energy =                 239.0063591536747936
    Total Energy =                       -224.8731744501208141
  Basis Set: (AUG-CC-PVTZ AUX)
    Blend: AUG-CC-PVTZ-RI
    Molecular point group: c1

    Geometry (in Angstrom), charge = 0, multiplicity = 1:

       Center              X                  Y                   Z               Mass
    ------------   -----------------  -----------------  -----------------  -----------------
         N           -1.012404446706    -0.346418528473     0.000026460265    14.003074004430
         N            0.043337553294    -1.184762528473    -0.000024539735    14.003074004430
         C           -0.670760446706     0.970074471527     0.000006460265    12.000000000000
         C            0.690610453294     0.991409271527    -0.000004339735    12.000000000000
         C            1.103554553294    -0.352141528473    -0.000007539735    12.000000000000
         H           -1.415568446706     1.753627471527     0.000022460265     1.007825032230
         H            1.345424553294     1.875298471527    -0.000009539735     1.007825032230
         H           -1.942561446706    -0.745151528473     0.000040460265     1.007825032230
         H            2.101074553294    -0.771170528473    -0.000015539735     1.007825032230

  Basis Set: AUG-CC-PVTZ
    Blend: AUG-CC-PVTZ
  Basis Set: (AUG-CC-PVTZ AUX)
    Blend: AUG-CC-PVTZ-JKFIT
	 Reference Energy          =    -224.8731744501208141 [Eh]
	 Singles Energy            =      -0.0000000000000000 [Eh]
	 Same-Spin Energy          =      -0.2457242050041466 [Eh]
	 Opposite-Spin Energy      =      -0.7458846858645788 [Eh]
	 Correlation Energy        =      -0.9916088908687254 [Eh]
	 Total Energy              =    -225.8647833409895327 [Eh]

	 ================> DF-SCS-MP2 Energies <==================
	-----------------------------------------------------------
	 SCS Same-Spin Scale       =       0.3333333333333333 [-]
	 SCS Opposite-Spin Scale   =       1.2000000000000000 [-]
	 SCS Same-Spin Energy      =      -0.0819080683347155 [Eh]
	 SCS Opposite-Spin Energy  =      -0.8950616230374945 [Eh]
	 SCS Correlation Energy    =      -0.9769696913722100 [Eh]
	 SCS Total Energy          =    -225.8501441414930184 [Eh]
	-----------------------------------------------------------

  Dipole Moment: [D]
     X:    -1.5082      Y:     1.7463      Z:     0.0001     Total:     2.3075

*** Psi4 exiting successfully. Buy a developer a beer!
