                               Psi4 1.3.2 release

  ==> Input File <==

--------------------------------------------------------------------------
#psi4
#
memory 32 gb

molecule  {
0 1
  N       -1.0175820    -0.3767630     0.0000260
  N        0.0233681    -1.2334046    -0.0000251
  C       -0.6759380     0.9397300     0.0000060
  C        0.7089440     0.9680670    -0.0000050
  C        1.0983770    -0.3824860    -0.0000080
  H       -1.4207460     1.7232830     0.0000220
  H        1.3402470     1.8449540    -0.0000100
  H       -1.9477390    -0.7754960     0.0000400
  H        2.0958970    -0.8015150    -0.0000160
units angstrom
no_reorient  #important for SAPT in psi4, default
symmetry c1  #important for SAPT in psi4, default
}

set PROPERTIES_ORIGIN ["COM"]
properties('MP2/aug-cc-pvtz', properties = ['dipole'])
--------------------------------------------------------------------------

    Molecular point group: c1
  Charge       = 0
  Multiplicity = 1
  Basis Set: AUG-CC-PVTZ
    Blend: AUG-CC-PVTZ
  Basis Set: (AUG-CC-PVTZ AUX)
    Blend: AUG-CC-PVTZ-JKFIT

    Orbital Energies [Eh]
    ---------------------

    Doubly Occupied:

       1A    -15.645113     2A    -15.593551     3A    -11.282646
       4A    -11.258374     5A    -11.226913     6A     -1.369486
       7A     -1.086739     8A     -1.055096     9A     -0.825105
      10A     -0.797924    11A     -0.743174    12A     -0.604911
      13A     -0.604350    14A     -0.592696    15A     -0.563109
      16A     -0.465903    17A     -0.363355    18A     -0.345400

  @DF-RHF Final Energy:  -224.87060013961661

   => Energetics <=

    Nuclear Repulsion Energy =            162.1706690918290690
    One-Electron Energy =                -625.2348461412412917
    Two-Electron Energy =                 238.1935769097956381
    Total Energy =                       -224.8706001396166130
  Basis Set: (AUG-CC-PVTZ AUX)
    Blend: AUG-CC-PVTZ-RI
    Molecular point group: c1

    Geometry (in Angstrom), charge = 0, multiplicity = 1:

       Center              X                  Y                   Z               Mass
    ------------   -----------------  -----------------  -----------------  -----------------
         N           -1.013506797422    -0.343887624513     0.000026516121    14.003074004430
         N            0.027443302578    -1.200529224513    -0.000024583879    14.003074004430
         C           -0.671862797422     0.972605375487     0.000006516121    12.000000000000
         C            0.713019202578     1.000942375487    -0.000004483879    12.000000000000
         C            1.102452202578    -0.349610624513    -0.000007483879    12.000000000000
         H           -1.416670797422     1.756158375487     0.000022516121     1.007825032230
         H            1.344322202578     1.877829375487    -0.000009483879     1.007825032230
         H           -1.943663797422    -0.742620624513     0.000040516121     1.007825032230
         H            2.099972202578    -0.768639624513    -0.000015483879     1.007825032230

  Basis Set: AUG-CC-PVTZ
    Blend: AUG-CC-PVTZ
  Basis Set: (AUG-CC-PVTZ AUX)
    Blend: AUG-CC-PVTZ-JKFIT
	 Reference Energy          =    -224.8706001396166130 [Eh]
	 Singles Energy            =      -0.0000000000000000 [Eh]
	 Same-Spin Energy          =      -0.2464670026251420 [Eh]
	 Opposite-Spin Energy      =      -0.7475493611894609 [Eh]
	 Correlation Energy        =      -0.9940163638146029 [Eh]
	 Total Energy              =    -225.8646165034312219 [Eh]

	 ================> DF-SCS-MP2 Energies <==================
	-----------------------------------------------------------
	 SCS Same-Spin Scale       =       0.3333333333333333 [-]
	 SCS Opposite-Spin Scale   =       1.2000000000000000 [-]
	 SCS Same-Spin Energy      =      -0.0821556675417140 [Eh]
	 SCS Opposite-Spin Energy  =      -0.8970592334273531 [Eh]
	 SCS Correlation Energy    =      -0.9792149009690670 [Eh]
	 SCS Total Energy          =    -225.8498150405856677 [Eh]
	-----------------------------------------------------------

  Dipole Moment: [D]
     X:    -1.5189      Y:     1.7849      Z:     0.0001     Total:     2.3437

*** Psi4 exiting successfully. Buy a developer a beer!
