                               Psi4 1.3.2 release

  ==> Input File <==

--------------------------------------------------------------------------
#psi4
#
memory 32 gb

molecule  {
0 1
  N       -1.0175820    -0.3767630     0.0000260
  N        0.0381600    -1.2151070    -0.0000250
  C       -0.6759380     0.9397300     0.0000060
  C        0.6620476     0.9536533    -0.0000046
  C        1.0983770    -0.3824860    -0.0000080
  H       -1.4207460     1.7232830     0.0000220
  H        1.3402470     1.8449540    -0.0000100
  H       -1.9477390    -0.7754960     0.0000400
  H        2.0958970    -0.8015150    -0.0000160
units angstrom
no_reorient  #important for SAPT in psi4, default
symmetry c1  #important for SAPT in psi4, default
}

set PROPERTIES_ORIGIN ["COM"]
properties('MP2/aug-cc-pvtz', properties = ['dipole'])
--------------------------------------------------------------------------

    Molecular point group: c1
  Charge       = 0
  Multiplicity = 1
  Basis Set: AUG-CC-PVTZ
    Blend: AUG-CC-PVTZ
  Basis Set: (AUG-CC-PVTZ AUX)
    Blend: AUG-CC-PVTZ-JKFIT

    Orbital Energies [Eh]
    ---------------------

    Doubly Occupied:

       1A    -15.639287     2A    -15.592189     3A    -11.274980
       4A    -11.254641     5A    -11.222981     6A     -1.373208
       7A     -1.092211     8A     -1.059576     9A     -0.821716
      10A     -0.798084    11A     -0.743637    12A     -0.608752
      13A     -0.607501    14A     -0.576873    15A     -0.575368
      16A     -0.461534    17A     -0.363614    18A     -0.352473

  @DF-RHF Final Energy:  -224.87100101762127

   => Energetics <=

    Nuclear Repulsion Energy =            163.3538834123301342
    One-Electron Energy =                -627.6125195161474721
    Two-Electron Energy =                 239.3876350861960987
    Total Energy =                       -224.8710010176212677
  Basis Set: (AUG-CC-PVTZ AUX)
    Blend: AUG-CC-PVTZ-RI
    Molecular point group: c1

    Geometry (in Angstrom), charge = 0, multiplicity = 1:

       Center              X                  Y                   Z               Mass
    ------------   -----------------  -----------------  -----------------  -----------------
         N           -1.008279900479    -0.345111336589     0.000026424990    14.003074004430
         N            0.047462099521    -1.183455336589    -0.000024575010    14.003074004430
         C           -0.666635900479     0.971381663411     0.000006424990    12.000000000000
         C            0.671349699521     0.985304963411    -0.000004175010    12.000000000000
         C            1.107679099521    -0.350834336589    -0.000007575010    12.000000000000
         H           -1.411443900479     1.754934663411     0.000022424990     1.007825032230
         H            1.349549099521     1.876605663411    -0.000009575010     1.007825032230
         H           -1.938436900479    -0.743844336589     0.000040424990     1.007825032230
         H            2.105199099521    -0.769863336589    -0.000015575010     1.007825032230

  Basis Set: AUG-CC-PVTZ
    Blend: AUG-CC-PVTZ
  Basis Set: (AUG-CC-PVTZ AUX)
    Blend: AUG-CC-PVTZ-JKFIT
	 Reference Energy          =    -224.8710010176212677 [Eh]
	 Singles Energy            =      -0.0000000000000000 [Eh]
	 Same-Spin Energy          =      -0.2456248464234818 [Eh]
	 Opposite-Spin Energy      =      -0.7456412944433328 [Eh]
	 Correlation Energy        =      -0.9912661408668146 [Eh]
	 Total Energy              =    -225.8622671584880948 [Eh]

	 ================> DF-SCS-MP2 Energies <==================
	-----------------------------------------------------------
	 SCS Same-Spin Scale       =       0.3333333333333333 [-]
	 SCS Opposite-Spin Scale   =       1.2000000000000000 [-]
	 SCS Same-Spin Energy      =      -0.0818749488078273 [Eh]
	 SCS Opposite-Spin Energy  =      -0.8947695533319994 [Eh]
	 SCS Correlation Energy    =      -0.9766445021398267 [Eh]
	 SCS Total Energy          =    -225.8476455197611017 [Eh]
	-----------------------------------------------------------

  Dipole Moment: [D]
     X:    -1.4947      Y:     1.7509      Z:     0.0001     Total:     2.3021

*** Psi4 exiting successfully. Buy a developer a beer!
