                               Psi4 1.4a3.dev225

  ==> Input File <==

--------------------------------------------------------------------------
#psi4
#
memory 32 gb

molecule  {
0 1
  N       -1.0175820    -0.3767630     0.0000260
  N        0.0381600    -1.2151070    -0.0000250
  C       -0.6759380     0.9397300     0.0000060
  C        0.7089440     0.9680670    -0.0000050
  C        1.0590538    -0.4133678    -0.0000086
  H       -1.4207460     1.7232830     0.0000220
  H        1.3402470     1.8449540    -0.0000100
  H       -1.9477390    -0.7754960     0.0000400
  H        2.0958970    -0.8015150    -0.0000160
units angstrom
no_reorient  #important for SAPT in psi4, default
symmetry c1  #important for SAPT in psi4, default
}

set PROPERTIES_ORIGIN ["COM"]
properties('MP2/aug-cc-pvtz', properties = ['dipole'])
--------------------------------------------------------------------------

    Molecular point group: c1
  Charge       = 0
  Multiplicity = 1
  Basis Set: AUG-CC-PVTZ
    Blend: AUG-CC-PVTZ
  Basis Set: (AUG-CC-PVTZ AUX)
    Blend: AUG-CC-PVTZ-JKFIT

    Orbital Energies [Eh]
    ---------------------

    Doubly Occupied:

       1A    -15.638675     2A    -15.587529     3A    -11.282763
       4A    -11.254786     5A    -11.224741     6A     -1.378669
       7A     -1.103654     8A     -1.049460     9A     -0.821467
      10A     -0.797424    11A     -0.744306    12A     -0.609735
      13A     -0.607776    14A     -0.595402    15A     -0.556749
      16A     -0.462422    17A     -0.368810    18A     -0.348302

  @DF-RHF Final Energy:  -224.87423002255579

   => Energetics <=

    Nuclear Repulsion Energy =            163.2350558608101494
    One-Electron Energy =                -627.3532340443607609
    Two-Electron Energy =                 239.2439481609948473
    Total Energy =                       -224.8742300225557926
  Basis Set: (AUG-CC-PVTZ AUX)
    Blend: AUG-CC-PVTZ-RI
    Molecular point group: c1

    Geometry (in Angstrom), charge = 0, multiplicity = 1:

       Center              X                  Y                   Z               Mass
    ------------   -----------------  -----------------  -----------------  -----------------
         N           -1.009615611951    -0.342206800846     0.000026601363    14.003074004430
         N            0.046126388049    -1.180550800846    -0.000024398637    14.003074004430
         C           -0.667971611951     0.974286199154     0.000006601363    12.000000000000
         C            0.716910388049     1.002623199154    -0.000004398637    12.000000000000
         C            1.067020188049    -0.378811600846    -0.000007998637    12.000000000000
         H           -1.412779611951     1.757839199154     0.000022601363     1.007825032230
         H            1.348213388049     1.879510199154    -0.000009398637     1.007825032230
         H           -1.939772611951    -0.740939800846     0.000040601363     1.007825032230
         H            2.103863388049    -0.766958800846    -0.000015398637     1.007825032230

  Basis Set: AUG-CC-PVTZ
    Blend: AUG-CC-PVTZ
  Basis Set: (AUG-CC-PVTZ AUX)
    Blend: AUG-CC-PVTZ-JKFIT
	 Reference Energy          =    -224.8742300225557926 [Eh]
	 Singles Energy            =      -0.0000000000000000 [Eh]
	 Same-Spin Energy          =      -0.2445699303775875 [Eh]
	 Opposite-Spin Energy      =      -0.7438887976125663 [Eh]
	 Correlation Energy        =      -0.9884587279901538 [Eh]
	 Total Energy              =    -225.8626887505459422 [Eh]

	 ================> DF-SCS-MP2 Energies <==================
	-----------------------------------------------------------
	 SCS Same-Spin Scale       =       0.3333333333333333 [-]
	 SCS Opposite-Spin Scale   =       1.2000000000000000 [-]
	 SCS Same-Spin Energy      =      -0.0815233101258625 [Eh]
	 SCS Opposite-Spin Energy  =      -0.8926665571350796 [Eh]
	 SCS Correlation Energy    =      -0.9741898672609420 [Eh]
	 SCS Total Energy          =    -225.8484198898167392 [Eh]
	-----------------------------------------------------------

  Dipole Moment: [D]
     X:    -1.5111      Y:     1.7113      Z:     0.0001     Total:     2.2830

*** Psi4 exiting successfully. Buy a developer a beer!
