                               Psi4 1.3.2 release

  ==> Input File <==

--------------------------------------------------------------------------
#psi4
#
memory 32 gb

molecule  {
0 1
  N       -1.0175820    -0.3767630     0.0000260
  N        0.0528527    -1.2334835    -0.0000249
  C       -0.6759380     0.9397300     0.0000060
  C        0.7089440     0.9680670    -0.0000050
  C        1.0983770    -0.3824860    -0.0000080
  H       -1.4207460     1.7232830     0.0000220
  H        1.3402470     1.8449540    -0.0000100
  H       -1.9477390    -0.7754960     0.0000400
  H        2.0958970    -0.8015150    -0.0000160
units angstrom
no_reorient  #important for SAPT in psi4, default
symmetry c1  #important for SAPT in psi4, default
}

set PROPERTIES_ORIGIN ["COM"]
properties('MP2/aug-cc-pvtz', properties = ['dipole'])
--------------------------------------------------------------------------

    Molecular point group: c1
  Charge       = 0
  Multiplicity = 1
  Basis Set: AUG-CC-PVTZ
    Blend: AUG-CC-PVTZ
  Basis Set: (AUG-CC-PVTZ AUX)
    Blend: AUG-CC-PVTZ-JKFIT

    Orbital Energies [Eh]
    ---------------------

    Doubly Occupied:

       1A    -15.641762     2A    -15.592564     3A    -11.284823
       4A    -11.257478     5A    -11.225426     6A     -1.362415
       7A     -1.094031     8A     -1.050661     9A     -0.824424
      10A     -0.795890    11A     -0.743232    12A     -0.603758
      13A     -0.601229    14A     -0.591889    15A     -0.564205
      16A     -0.465807    17A     -0.366158    18A     -0.346547

  @DF-RHF Final Energy:  -224.87176507840994

   => Energetics <=

    Nuclear Repulsion Energy =            162.1188822052936302
    One-Electron Energy =                -625.1567051655789555
    Two-Electron Energy =                 238.1660578818753891
    Total Energy =                       -224.8717650784099362
  Basis Set: (AUG-CC-PVTZ AUX)
    Blend: AUG-CC-PVTZ-RI
    Molecular point group: c1

    Geometry (in Angstrom), charge = 0, multiplicity = 1:

       Center              X                  Y                   Z               Mass
    ------------   -----------------  -----------------  -----------------  -----------------
         N           -1.019575147236    -0.343871385771     0.000026474958    14.003074004430
         N            0.050859552764    -1.200591885771    -0.000024425042    14.003074004430
         C           -0.677931147236     0.972621614229     0.000006474958    12.000000000000
         C            0.706950852764     1.000958614229    -0.000004525042    12.000000000000
         C            1.096383852764    -0.349594385771    -0.000007525042    12.000000000000
         H           -1.422739147236     1.756174614229     0.000022474958     1.007825032230
         H            1.338253852764     1.877845614229    -0.000009525042     1.007825032230
         H           -1.949732147236    -0.742604385771     0.000040474958     1.007825032230
         H            2.093903852764    -0.768623385771    -0.000015525042     1.007825032230

  Basis Set: AUG-CC-PVTZ
    Blend: AUG-CC-PVTZ
  Basis Set: (AUG-CC-PVTZ AUX)
    Blend: AUG-CC-PVTZ-JKFIT
	 Reference Energy          =    -224.8717650784099362 [Eh]
	 Singles Energy            =      -0.0000000000000000 [Eh]
	 Same-Spin Energy          =      -0.2458721113845505 [Eh]
	 Opposite-Spin Energy      =      -0.7469145616062127 [Eh]
	 Correlation Energy        =      -0.9927866729907632 [Eh]
	 Total Energy              =    -225.8645517514007111 [Eh]

	 ================> DF-SCS-MP2 Energies <==================
	-----------------------------------------------------------
	 SCS Same-Spin Scale       =       0.3333333333333333 [-]
	 SCS Opposite-Spin Scale   =       1.2000000000000000 [-]
	 SCS Same-Spin Energy      =      -0.0819573704615168 [Eh]
	 SCS Opposite-Spin Energy  =      -0.8962974739274553 [Eh]
	 SCS Correlation Energy    =      -0.9782548443889721 [Eh]
	 SCS Total Energy          =    -225.8500199227989071 [Eh]
	-----------------------------------------------------------

  Dipole Moment: [D]
     X:    -1.5148      Y:     1.7772      Z:     0.0001     Total:     2.3351

*** Psi4 exiting successfully. Buy a developer a beer!
