                               Psi4 1.4a3.dev225

  ==> Input File <==

--------------------------------------------------------------------------
#psi4
#
memory 32 gb

molecule  {
0 1
  N       -1.0175820    -0.3767630     0.0000260
  N        0.0381600    -1.2151070    -0.0000250
  C       -0.6759380     0.9397300     0.0000060
  C        0.7089440     0.9680670    -0.0000050
  C        1.1377002    -0.3516042    -0.0000074
  H       -1.4207460     1.7232830     0.0000220
  H        1.3402470     1.8449540    -0.0000100
  H       -1.9477390    -0.7754960     0.0000400
  H        2.0958970    -0.8015150    -0.0000160
units angstrom
no_reorient  #important for SAPT in psi4, default
symmetry c1  #important for SAPT in psi4, default
}

set PROPERTIES_ORIGIN ["COM"]
properties('MP2/aug-cc-pvtz', properties = ['dipole'])
--------------------------------------------------------------------------

    Molecular point group: c1
  Charge       = 0
  Multiplicity = 1
  Basis Set: AUG-CC-PVTZ
    Blend: AUG-CC-PVTZ
  Basis Set: (AUG-CC-PVTZ AUX)
    Blend: AUG-CC-PVTZ-JKFIT

    Orbital Energies [Eh]
    ---------------------

    Doubly Occupied:

       1A    -15.648455     2A    -15.593050     3A    -11.281288
       4A    -11.256634     5A    -11.226298     6A     -1.366058
       7A     -1.083199     8A     -1.055275     9A     -0.829798
      10A     -0.799821    11A     -0.741397    12A     -0.609537
      13A     -0.602386    14A     -0.587966    15A     -0.572651
      16A     -0.459906    17A     -0.366393    18A     -0.339912

  @DF-RHF Final Energy:  -224.86680845969073

   => Energetics <=

    Nuclear Repulsion Energy =            162.0214329303699969
    One-Electron Energy =                -624.9364345264538088
    Two-Electron Energy =                 238.0481931363930812
    Total Energy =                       -224.8668084596907306
  Basis Set: (AUG-CC-PVTZ AUX)
    Blend: AUG-CC-PVTZ-RI
    Molecular point group: c1

    Geometry (in Angstrom), charge = 0, multiplicity = 1:

       Center              X                  Y                   Z               Mass
    ------------   -----------------  -----------------  -----------------  -----------------
         N           -1.023486749477    -0.353100260555     0.000026389715    14.003074004430
         N            0.032255250523    -1.191444260555    -0.000024610285    14.003074004430
         C           -0.681842749477     0.963392739445     0.000006389715    12.000000000000
         C            0.703039250523     0.991729739445    -0.000004610285    12.000000000000
         C            1.131795450523    -0.327941460555    -0.000007010285    12.000000000000
         H           -1.426650749477     1.746945739445     0.000022389715     1.007825032230
         H            1.334342250523     1.868616739445    -0.000009610285     1.007825032230
         H           -1.953643749477    -0.751833260555     0.000040389715     1.007825032230
         H            2.089992250523    -0.777852260555    -0.000015610285     1.007825032230

  Basis Set: AUG-CC-PVTZ
    Blend: AUG-CC-PVTZ
  Basis Set: (AUG-CC-PVTZ AUX)
    Blend: AUG-CC-PVTZ-JKFIT
	 Reference Energy          =    -224.8668084596907306 [Eh]
	 Singles Energy            =      -0.0000000000000000 [Eh]
	 Same-Spin Energy          =      -0.2471635407971959 [Eh]
	 Opposite-Spin Energy      =      -0.7487227749610297 [Eh]
	 Correlation Energy        =      -0.9958863157582256 [Eh]
	 Total Energy              =    -225.8626947754489436 [Eh]

	 ================> DF-SCS-MP2 Energies <==================
	-----------------------------------------------------------
	 SCS Same-Spin Scale       =       0.3333333333333333 [-]
	 SCS Opposite-Spin Scale   =       1.2000000000000000 [-]
	 SCS Same-Spin Energy      =      -0.0823878469323986 [Eh]
	 SCS Opposite-Spin Energy  =      -0.8984673299532356 [Eh]
	 SCS Correlation Energy    =      -0.9808551768856343 [Eh]
	 SCS Total Energy          =    -225.8476636365763568 [Eh]
	-----------------------------------------------------------

  Dipole Moment: [D]
     X:    -1.5338      Y:     1.7604      Z:     0.0001     Total:     2.3348

*** Psi4 exiting successfully. Buy a developer a beer!
