                               Psi4 1.3.2 release

  ==> Input File <==

--------------------------------------------------------------------------
#psi4
#
memory 32 gb

molecule  {
0 1
  N       -1.0175820    -0.3767630     0.0000260
  N        0.0381600    -1.2151070    -0.0000250
  C       -0.6759380     0.9397300     0.0000060
  C        0.7089440     0.9680670    -0.0000050
  C        1.0983770    -0.3824860    -0.0000080
  H       -1.4207460     1.7232830     0.0000220
  H        1.3402470     1.8449540    -0.0000100
  H       -1.9477390    -0.7754960     0.0000400
  H        2.1880929    -0.8402438    -0.0000167
units angstrom
no_reorient  #important for SAPT in psi4, default
symmetry c1  #important for SAPT in psi4, default
}

set PROPERTIES_ORIGIN ["COM"]
properties('MP2/aug-cc-pvtz', properties = ['dipole'])
--------------------------------------------------------------------------

    Molecular point group: c1
  Charge       = 0
  Multiplicity = 1
  Basis Set: AUG-CC-PVTZ
    Blend: AUG-CC-PVTZ
  Basis Set: (AUG-CC-PVTZ AUX)
    Blend: AUG-CC-PVTZ-JKFIT

    Orbital Energies [Eh]
    ---------------------

    Doubly Occupied:

       1A    -15.644117     2A    -15.591306     3A    -11.282799
       4A    -11.266637     5A    -11.226462     6A     -1.372371
       7A     -1.091426     8A     -1.053260     9A     -0.823170
      10A     -0.788922    11A     -0.742844    12A     -0.606399
      13A     -0.602562    14A     -0.592647    15A     -0.550885
      16A     -0.462417    17A     -0.365471    18A     -0.346907

  @DF-RHF Final Energy:  -224.86600810256198

   => Energetics <=

    Nuclear Repulsion Energy =            162.1679780862155269
    One-Electron Energy =                -625.2467694121176010
    Two-Electron Energy =                 238.2127832233401250
    Total Energy =                       -224.8660081025619775
  Basis Set: (AUG-CC-PVTZ AUX)
    Blend: AUG-CC-PVTZ-RI
    Molecular point group: c1

    Geometry (in Angstrom), charge = 0, multiplicity = 1:

       Center              X                  Y                   Z               Mass
    ------------   -----------------  -----------------  -----------------  -----------------
         N           -1.017916860034    -0.347079848777     0.000026505908    14.003074004430
         N            0.037825139966    -1.185423848777    -0.000024494092    14.003074004430
         C           -0.676272860034     0.969413151223     0.000006505908    12.000000000000
         C            0.708609139966     0.997750151223    -0.000004494092    12.000000000000
         C            1.098042139966    -0.352802848777    -0.000007494092    12.000000000000
         H           -1.421080860034     1.752966151223     0.000022505908     1.007825032230
         H            1.339912139966     1.874637151223    -0.000009494092     1.007825032230
         H           -1.948073860034    -0.745812848777     0.000040505908     1.007825032230
         H            2.187758039966    -0.810560648777    -0.000016194092     1.007825032230

  Basis Set: AUG-CC-PVTZ
    Blend: AUG-CC-PVTZ
  Basis Set: (AUG-CC-PVTZ AUX)
    Blend: AUG-CC-PVTZ-JKFIT
	 Reference Energy          =    -224.8660081025619775 [Eh]
	 Singles Energy            =      -0.0000000000000000 [Eh]
	 Same-Spin Energy          =      -0.2460137378158420 [Eh]
	 Opposite-Spin Energy      =      -0.7469126908889226 [Eh]
	 Correlation Energy        =      -0.9929264287047646 [Eh]
	 Total Energy              =    -225.8589345312667547 [Eh]

	 ================> DF-SCS-MP2 Energies <==================
	-----------------------------------------------------------
	 SCS Same-Spin Scale       =       0.3333333333333333 [-]
	 SCS Opposite-Spin Scale   =       1.2000000000000000 [-]
	 SCS Same-Spin Energy      =      -0.0820045792719473 [Eh]
	 SCS Opposite-Spin Energy  =      -0.8962952290667071 [Eh]
	 SCS Correlation Energy    =      -0.9782998083386545 [Eh]
	 SCS Total Energy          =    -225.8443079109006248 [Eh]
	-----------------------------------------------------------

  Dipole Moment: [D]
     X:    -1.5389      Y:     1.7434      Z:     0.0001     Total:     2.3254

*** Psi4 exiting successfully. Buy a developer a beer!
