                               Psi4 1.3.2 release

  ==> Input File <==

--------------------------------------------------------------------------
#psi4
#
memory 32 gb

molecule  {
0 1
  N       -1.1085837    -0.3497242     0.0000285
  N        0.0381600    -1.2151070    -0.0000250
  C       -0.6759380     0.9397300     0.0000060
  C        0.7089440     0.9680670    -0.0000050
  C        1.0983770    -0.3824860    -0.0000080
  H       -1.4207460     1.7232830     0.0000220
  H        1.3402470     1.8449540    -0.0000100
  H       -1.9477390    -0.7754960     0.0000400
  H        2.0958970    -0.8015150    -0.0000160
units angstrom
no_reorient  #important for SAPT in psi4, default
symmetry c1  #important for SAPT in psi4, default
}

set PROPERTIES_ORIGIN ["COM"]
properties('MP2/aug-cc-pvtz', properties = ['dipole'])
--------------------------------------------------------------------------

    Molecular point group: c1
  Charge       = 0
  Multiplicity = 1
  Basis Set: AUG-CC-PVTZ
    Blend: AUG-CC-PVTZ
  Basis Set: (AUG-CC-PVTZ AUX)
    Blend: AUG-CC-PVTZ-JKFIT

    Orbital Energies [Eh]
    ---------------------

    Doubly Occupied:

       1A    -15.633130     2A    -15.591968     3A    -11.291020
       4A    -11.264724     5A    -11.226686     6A     -1.340922
       7A     -1.105122     8A     -1.044446     9A     -0.845458
      10A     -0.789709    11A     -0.740094    12A     -0.622028
      13A     -0.589690    14A     -0.583790    15A     -0.567464
      16A     -0.454069    17A     -0.376754    18A     -0.342003

  @DF-RHF Final Energy:  -224.86049095133262

   => Energetics <=

    Nuclear Repulsion Energy =            160.9954131363278975
    One-Electron Energy =                -622.8936486046981145
    Two-Electron Energy =                 237.0377445170375950
    Total Energy =                       -224.8604909513326220
  Basis Set: (AUG-CC-PVTZ AUX)
    Blend: AUG-CC-PVTZ-RI
    Molecular point group: c1

    Geometry (in Angstrom), charge = 0, multiplicity = 1:

       Center              X                  Y                   Z               Mass
    ------------   -----------------  -----------------  -----------------  -----------------
         N           -1.088823437231    -0.326179700107     0.000028481004    14.003074004430
         N            0.057920262769    -1.191562500107    -0.000025018996    14.003074004430
         C           -0.656177737231     0.963274499893     0.000005981004    12.000000000000
         C            0.728704262769     0.991611499893    -0.000005018996    12.000000000000
         C            1.118137262769    -0.358941500107    -0.000008018996    12.000000000000
         H           -1.400985737231     1.746827499893     0.000021981004     1.007825032230
         H            1.360007262769     1.868498499893    -0.000010018996     1.007825032230
         H           -1.927978737231    -0.751951500107     0.000039981004     1.007825032230
         H            2.115657262769    -0.777970500107    -0.000016018996     1.007825032230

  Basis Set: AUG-CC-PVTZ
    Blend: AUG-CC-PVTZ
  Basis Set: (AUG-CC-PVTZ AUX)
    Blend: AUG-CC-PVTZ-JKFIT
	 Reference Energy          =    -224.8604909513326220 [Eh]
	 Singles Energy            =      -0.0000000000000000 [Eh]
	 Same-Spin Energy          =      -0.2450104193663350 [Eh]
	 Opposite-Spin Energy      =      -0.7473507142664029 [Eh]
	 Correlation Energy        =      -0.9923611336327378 [Eh]
	 Total Energy              =    -225.8528520849653489 [Eh]

	 ================> DF-SCS-MP2 Energies <==================
	-----------------------------------------------------------
	 SCS Same-Spin Scale       =       0.3333333333333333 [-]
	 SCS Opposite-Spin Scale   =       1.2000000000000000 [-]
	 SCS Same-Spin Energy      =      -0.0816701397887783 [Eh]
	 SCS Opposite-Spin Energy  =      -0.8968208571196834 [Eh]
	 SCS Correlation Energy    =      -0.9784909969084618 [Eh]
	 SCS Total Energy          =    -225.8389819482410701 [Eh]
	-----------------------------------------------------------

  Dipole Moment: [D]
     X:    -1.2950      Y:     1.7838      Z:     0.0001     Total:     2.2043

*** Psi4 exiting successfully. Buy a developer a beer!
