                               Psi4 1.3.2 release

  ==> Input File <==

--------------------------------------------------------------------------
#psi4
#
memory 32 gb

molecule  {
0 1
  N       -1.0175820    -0.3767630     0.0000260
  N        0.0381600    -1.2151070    -0.0000250
  C       -0.6759380     0.9397300     0.0000060
  C        0.7035938     1.0646025    -0.0000037
  C        1.0983770    -0.3824860    -0.0000080
  H       -1.4207460     1.7232830     0.0000220
  H        1.3402470     1.8449540    -0.0000100
  H       -1.9477390    -0.7754960     0.0000400
  H        2.0958970    -0.8015150    -0.0000160
units angstrom
no_reorient  #important for SAPT in psi4, default
symmetry c1  #important for SAPT in psi4, default
}

set PROPERTIES_ORIGIN ["COM"]
properties('MP2/aug-cc-pvtz', properties = ['dipole'])
--------------------------------------------------------------------------

    Molecular point group: c1
  Charge       = 0
  Multiplicity = 1
  Basis Set: AUG-CC-PVTZ
    Blend: AUG-CC-PVTZ
  Basis Set: (AUG-CC-PVTZ AUX)
    Blend: AUG-CC-PVTZ-JKFIT

    Orbital Energies [Eh]
    ---------------------

    Doubly Occupied:

       1A    -15.640419     2A    -15.595106     3A    -11.285536
       4A    -11.266063     5A    -11.229353     6A     -1.368300
       7A     -1.090196     8A     -1.046797     9A     -0.823854
      10A     -0.803043    11A     -0.740713    12A     -0.624588
      13A     -0.602941    14A     -0.601946    15A     -0.546582
      16A     -0.461658    17A     -0.357545    18A     -0.349900

  @DF-RHF Final Energy:  -224.86253116725496

   => Energetics <=

    Nuclear Repulsion Energy =            161.3019554213840081
    One-Electron Energy =                -623.4598937240454006
    Two-Electron Energy =                 237.2954071354064070
    Total Energy =                       -224.8625311672549572
  Basis Set: (AUG-CC-PVTZ AUX)
    Blend: AUG-CC-PVTZ-RI
    Molecular point group: c1

    Geometry (in Angstrom), charge = 0, multiplicity = 1:

       Center              X                  Y                   Z               Mass
    ------------   -----------------  -----------------  -----------------  -----------------
         N           -1.015607547439    -0.364679830653     0.000026266254    14.003074004430
         N            0.040134452561    -1.203023830653    -0.000024733746    14.003074004430
         C           -0.673963547439     0.951813169347     0.000006266254    12.000000000000
         C            0.705568252561     1.076685669347    -0.000003433746    12.000000000000
         C            1.100351452561    -0.370402830653    -0.000007733746    12.000000000000
         H           -1.418771547439     1.735366169347     0.000022266254     1.007825032230
         H            1.342221452561     1.857037169347    -0.000009733746     1.007825032230
         H           -1.945764547439    -0.763412830653     0.000040266254     1.007825032230
         H            2.097871452561    -0.789431830653    -0.000015733746     1.007825032230

  Basis Set: AUG-CC-PVTZ
    Blend: AUG-CC-PVTZ
  Basis Set: (AUG-CC-PVTZ AUX)
    Blend: AUG-CC-PVTZ-JKFIT
	 Reference Energy          =    -224.8625311672549572 [Eh]
	 Singles Energy            =      -0.0000000000000000 [Eh]
	 Same-Spin Energy          =      -0.2450003186461480 [Eh]
	 Opposite-Spin Energy      =      -0.7463136280853776 [Eh]
	 Correlation Energy        =      -0.9913139467315256 [Eh]
	 Total Energy              =    -225.8538451139864947 [Eh]

	 ================> DF-SCS-MP2 Energies <==================
	-----------------------------------------------------------
	 SCS Same-Spin Scale       =       0.3333333333333333 [-]
	 SCS Opposite-Spin Scale   =       1.2000000000000000 [-]
	 SCS Same-Spin Energy      =      -0.0816667728820493 [Eh]
	 SCS Opposite-Spin Energy  =      -0.8955763537024531 [Eh]
	 SCS Correlation Energy    =      -0.9772431265845025 [Eh]
	 SCS Total Energy          =    -225.8397742938394686 [Eh]
	-----------------------------------------------------------

  Dipole Moment: [D]
     X:    -1.4894      Y:     1.6836      Z:     0.0001     Total:     2.2479

*** Psi4 exiting successfully. Buy a developer a beer!
