                               Psi4 1.3.2 release

  ==> Input File <==

--------------------------------------------------------------------------
#psi4
#
memory 32 gb

molecule  {
0 1
  N       -1.0175820    -0.3767630     0.0000260
  N        0.0381600    -1.2151070    -0.0000250
  C       -0.6759380     0.9397300     0.0000060
  C        0.7089440     0.9680670    -0.0000050
  C        1.0983770    -0.3824860    -0.0000080
  H       -1.2829540     1.5783231     0.0000190
  H        1.3402470     1.8449540    -0.0000100
  H       -1.9477390    -0.7754960     0.0000400
  H        2.0958970    -0.8015150    -0.0000160
units angstrom
no_reorient  #important for SAPT in psi4, default
symmetry c1  #important for SAPT in psi4, default
}

set PROPERTIES_ORIGIN ["COM"]
properties('MP2/aug-cc-pvtz', properties = ['dipole'])
--------------------------------------------------------------------------

    Molecular point group: c1
  Charge       = 0
  Multiplicity = 1
  Basis Set: AUG-CC-PVTZ
    Blend: AUG-CC-PVTZ
  Basis Set: (AUG-CC-PVTZ AUX)
    Blend: AUG-CC-PVTZ-JKFIT

    Orbital Energies [Eh]
    ---------------------

    Doubly Occupied:

       1A    -15.643001     2A    -15.590501     3A    -11.259658
       4A    -11.254973     5A    -11.224879     6A     -1.371295
       7A     -1.097240     8A     -1.057182     9A     -0.845155
      10A     -0.803470    11A     -0.771728    12A     -0.614648
      13A     -0.605186    14A     -0.598387    15A     -0.569750
      16A     -0.462925    17A     -0.364356    18A     -0.346308

  @DF-RHF Final Energy:  -224.83698217586488

   => Energetics <=

    Nuclear Repulsion Energy =            163.6973143267712203
    One-Electron Energy =                -628.1073067842169166
    Two-Electron Energy =                 239.5730102815808209
    Total Energy =                       -224.8369821758648754
  Basis Set: (AUG-CC-PVTZ AUX)
    Blend: AUG-CC-PVTZ-RI
    Molecular point group: c1

    Geometry (in Angstrom), charge = 0, multiplicity = 1:

       Center              X                  Y                   Z               Mass
    ------------   -----------------  -----------------  -----------------  -----------------
         N           -1.018592265890    -0.345506268863     0.000026539978    14.003074004430
         N            0.037149734110    -1.183850268863    -0.000024460022    14.003074004430
         C           -0.676948265890     0.970986731137     0.000006539978    12.000000000000
         C            0.707933734110     0.999323731137    -0.000004460022    12.000000000000
         C            1.097366734110    -0.351229268863    -0.000007460022    12.000000000000
         H           -1.283964265890     1.609579831137     0.000019539978     1.007825032230
         H            1.339236734110     1.876210731137    -0.000009460022     1.007825032230
         H           -1.948749265890    -0.744239268863     0.000040539978     1.007825032230
         H            2.094886734110    -0.770258268863    -0.000015460022     1.007825032230

  Basis Set: AUG-CC-PVTZ
    Blend: AUG-CC-PVTZ
  Basis Set: (AUG-CC-PVTZ AUX)
    Blend: AUG-CC-PVTZ-JKFIT
	 Reference Energy          =    -224.8369821758648754 [Eh]
	 Singles Energy            =      -0.0000000000000000 [Eh]
	 Same-Spin Energy          =      -0.2456958084903225 [Eh]
	 Opposite-Spin Energy      =      -0.7458210005812546 [Eh]
	 Correlation Energy        =      -0.9915168090715771 [Eh]
	 Total Energy              =    -225.8284989849364592 [Eh]

	 ================> DF-SCS-MP2 Energies <==================
	-----------------------------------------------------------
	 SCS Same-Spin Scale       =       0.3333333333333333 [-]
	 SCS Opposite-Spin Scale   =       1.2000000000000000 [-]
	 SCS Same-Spin Energy      =      -0.0818986028301075 [Eh]
	 SCS Opposite-Spin Energy  =      -0.8949852006975054 [Eh]
	 SCS Correlation Energy    =      -0.9768838035276129 [Eh]
	 SCS Total Energy          =    -225.8138659793924887 [Eh]
	-----------------------------------------------------------

  Dipole Moment: [D]
     X:    -1.5091      Y:     1.7200      Z:     0.0001     Total:     2.2882

*** Psi4 exiting successfully. Buy a developer a beer!
