                               Psi4 1.3.2 release

  ==> Input File <==

--------------------------------------------------------------------------
#psi4
#
memory 32 gb

molecule  {
0 1
  N       -1.1533214    -0.3338396     0.0000297
  N        0.0381600    -1.2151070    -0.0000250
  C       -0.6759380     0.9397300     0.0000060
  C        0.7089440     0.9680670    -0.0000050
  C        1.0983770    -0.3824860    -0.0000080
  H       -1.4207460     1.7232830     0.0000220
  H        1.3402470     1.8449540    -0.0000100
  H       -1.9477390    -0.7754960     0.0000400
  H        2.0958970    -0.8015150    -0.0000160
units angstrom
no_reorient  #important for SAPT in psi4, default
symmetry c1  #important for SAPT in psi4, default
}

set PROPERTIES_ORIGIN ["COM"]
properties('MP2/aug-cc-pvtz', properties = ['dipole'])
--------------------------------------------------------------------------

    Molecular point group: c1
  Charge       = 0
  Multiplicity = 1
  Basis Set: AUG-CC-PVTZ
    Blend: AUG-CC-PVTZ
  Basis Set: (AUG-CC-PVTZ AUX)
    Blend: AUG-CC-PVTZ-JKFIT

    Orbital Energies [Eh]
    ---------------------

    Doubly Occupied:

       1A    -15.628415     2A    -15.593021     3A    -11.295699
       4A    -11.269045     5A    -11.227506     6A     -1.329060
       7A     -1.112044     8A     -1.041409     9A     -0.855748
      10A     -0.785954    11A     -0.739210    12A     -0.628258
      13A     -0.583333    14A     -0.579116    15A     -0.567487
      16A     -0.449067    17A     -0.382958    18A     -0.339898

  @DF-RHF Final Energy:  -224.84501971568096

   => Energetics <=

    Nuclear Repulsion Energy =            160.2566890561441255
    One-Electron Energy =                -621.3889621982684730
    Two-Electron Energy =                 236.2872534264433853
    Total Energy =                       -224.8450197156809622
  Basis Set: (AUG-CC-PVTZ AUX)
    Blend: AUG-CC-PVTZ-RI
    Molecular point group: c1

    Geometry (in Angstrom), charge = 0, multiplicity = 1:

       Center              X                  Y                   Z               Mass
    ------------   -----------------  -----------------  -----------------  -----------------
         N           -1.124353482608    -0.313564376592     0.000029434027    14.003074004430
         N            0.067127917392    -1.194831776592    -0.000025265973    14.003074004430
         C           -0.646970082608     0.960005223408     0.000005734027    12.000000000000
         C            0.737911917392     0.988342223408    -0.000005265973    12.000000000000
         C            1.127344917392    -0.362210776592    -0.000008265973    12.000000000000
         H           -1.391778082608     1.743558223408     0.000021734027     1.007825032230
         H            1.369214917392     1.865229223408    -0.000010265973     1.007825032230
         H           -1.918771082608    -0.755220776592     0.000039734027     1.007825032230
         H            2.124864917392    -0.781239776592    -0.000016265973     1.007825032230

  Basis Set: AUG-CC-PVTZ
    Blend: AUG-CC-PVTZ
  Basis Set: (AUG-CC-PVTZ AUX)
    Blend: AUG-CC-PVTZ-JKFIT
	 Reference Energy          =    -224.8450197156809622 [Eh]
	 Singles Energy            =      -0.0000000000000000 [Eh]
	 Same-Spin Energy          =      -0.2448435225661661 [Eh]
	 Opposite-Spin Energy      =      -0.7484998991279027 [Eh]
	 Correlation Energy        =      -0.9933434216940689 [Eh]
	 Total Energy              =    -225.8383631373750404 [Eh]

	 ================> DF-SCS-MP2 Energies <==================
	-----------------------------------------------------------
	 SCS Same-Spin Scale       =       0.3333333333333333 [-]
	 SCS Opposite-Spin Scale   =       1.2000000000000000 [-]
	 SCS Same-Spin Energy      =      -0.0816145075220554 [Eh]
	 SCS Opposite-Spin Energy  =      -0.8981998789534832 [Eh]
	 SCS Correlation Energy    =      -0.9798143864755385 [Eh]
	 SCS Total Energy          =    -225.8248341021565011 [Eh]
	-----------------------------------------------------------

  Dipole Moment: [D]
     X:    -1.1693      Y:     1.7963      Z:     0.0001     Total:     2.1433

*** Psi4 exiting successfully. Buy a developer a beer!
