                               Psi4 1.4a3.dev225

  ==> Input File <==

--------------------------------------------------------------------------
#psi4
#
memory 32 gb

molecule  {
0 1
  N       -1.0175820    -0.3767630     0.0000260
  N        0.0381600    -1.2151070    -0.0000250
  C       -0.6759380     0.9397300     0.0000060
  C        0.7089440     0.9680670    -0.0000050
  C        1.0983770    -0.3824860    -0.0000080
  H       -1.4207460     1.7232830     0.0000220
  H        1.3402470     1.8449540    -0.0000100
  H       -1.9477390    -0.7754960     0.0000400
  H        2.0497991    -0.7821506    -0.0000156
units angstrom
no_reorient  #important for SAPT in psi4, default
symmetry c1  #important for SAPT in psi4, default
}

set PROPERTIES_ORIGIN ["COM"]
properties('MP2/aug-cc-pvtz', properties = ['dipole'])
--------------------------------------------------------------------------

    Molecular point group: c1
  Charge       = 0
  Multiplicity = 1
  Basis Set: AUG-CC-PVTZ
    Blend: AUG-CC-PVTZ
  Basis Set: (AUG-CC-PVTZ AUX)
    Blend: AUG-CC-PVTZ-JKFIT

    Orbital Energies [Eh]
    ---------------------

    Doubly Occupied:

       1A    -15.643264     2A    -15.590315     3A    -11.281756
       4A    -11.249974     5A    -11.224991     6A     -1.371328
       7A     -1.093334     8A     -1.052675     9A     -0.827420
      10A     -0.804494    11A     -0.742717    12A     -0.612067
      13A     -0.605384    14A     -0.592568    15A     -0.568892
      16A     -0.462805    17A     -0.364716    18A     -0.345978

  @DF-RHF Final Energy:  -224.87258292354602

   => Energetics <=

    Nuclear Repulsion Energy =            162.8541482655271295
    One-Electron Energy =                -626.5841032364073726
    Two-Electron Energy =                 238.8573720473342519
    Total Energy =                       -224.8725829235460196
  Basis Set: (AUG-CC-PVTZ AUX)
    Blend: AUG-CC-PVTZ-RI
    Molecular point group: c1

    Geometry (in Angstrom), charge = 0, multiplicity = 1:

       Center              X                  Y                   Z               Mass
    ------------   -----------------  -----------------  -----------------  -----------------
         N           -1.015868341795    -0.347940371662     0.000026489614    14.003074004430
         N            0.039873658205    -1.186284371662    -0.000024510386    14.003074004430
         C           -0.674224341795     0.968552628338     0.000006489614    12.000000000000
         C            0.710657658205     0.996889628338    -0.000004510386    12.000000000000
         C            1.100090658205    -0.353663371662    -0.000007510386    12.000000000000
         H           -1.419032341795     1.752105628338     0.000022489614     1.007825032230
         H            1.341960658205     1.873776628338    -0.000009510386     1.007825032230
         H           -1.946025341795    -0.746673371662     0.000040489614     1.007825032230
         H            2.051512758205    -0.753327971662    -0.000015110386     1.007825032230

  Basis Set: AUG-CC-PVTZ
    Blend: AUG-CC-PVTZ
  Basis Set: (AUG-CC-PVTZ AUX)
    Blend: AUG-CC-PVTZ-JKFIT
	 Reference Energy          =    -224.8725829235460196 [Eh]
	 Singles Energy            =      -0.0000000000000000 [Eh]
	 Same-Spin Energy          =      -0.2457852121725344 [Eh]
	 Opposite-Spin Energy      =      -0.7459958994749998 [Eh]
	 Correlation Energy        =      -0.9917811116475341 [Eh]
	 Total Energy              =    -225.8643640351935460 [Eh]

	 ================> DF-SCS-MP2 Energies <==================
	-----------------------------------------------------------
	 SCS Same-Spin Scale       =       0.3333333333333333 [-]
	 SCS Opposite-Spin Scale   =       1.2000000000000000 [-]
	 SCS Same-Spin Energy      =      -0.0819284040575115 [Eh]
	 SCS Opposite-Spin Energy  =      -0.8951950793699998 [Eh]
	 SCS Correlation Energy    =      -0.9771234834275112 [Eh]
	 SCS Total Energy          =    -225.8497064069735245 [Eh]
	-----------------------------------------------------------

  Dipole Moment: [D]
     X:    -1.5190      Y:     1.7400      Z:     0.0001     Total:     2.3098

*** Psi4 exiting successfully. Buy a developer a beer!
