                               Psi4 1.3.2 release

  ==> Input File <==

--------------------------------------------------------------------------
#psi4
#
memory 32 gb

molecule  {
0 1
  N       -1.0175820    -0.3767630     0.0000260
  N        0.0381600    -1.2151070    -0.0000250
  C       -0.6759380     0.9397300     0.0000060
  C        0.7075472     0.8713935    -0.0000062
  C        1.0983770    -0.3824860    -0.0000080
  H       -1.4207460     1.7232830     0.0000220
  H        1.3402470     1.8449540    -0.0000100
  H       -1.9477390    -0.7754960     0.0000400
  H        2.0958970    -0.8015150    -0.0000160
units angstrom
no_reorient  #important for SAPT in psi4, default
symmetry c1  #important for SAPT in psi4, default
}

set PROPERTIES_ORIGIN ["COM"]
properties('MP2/aug-cc-pvtz', properties = ['dipole'])
--------------------------------------------------------------------------

    Molecular point group: c1
  Charge       = 0
  Multiplicity = 1
  Basis Set: AUG-CC-PVTZ
    Blend: AUG-CC-PVTZ
  Basis Set: (AUG-CC-PVTZ AUX)
    Blend: AUG-CC-PVTZ-JKFIT

    Orbital Energies [Eh]
    ---------------------

    Doubly Occupied:

       1A    -15.647589     2A    -15.586334     3A    -11.279825
       4A    -11.243714     5A    -11.221834     6A     -1.376946
       7A     -1.099189     8A     -1.057921     9A     -0.835418
      10A     -0.792831    11A     -0.741664    12A     -0.610157
      13A     -0.610099    14A     -0.594955    15A     -0.549115
      16A     -0.460461    17A     -0.377030    18A     -0.341030

  @DF-RHF Final Energy:  -224.85848539632428

   => Energetics <=

    Nuclear Repulsion Energy =            164.0968240121960093
    One-Electron Energy =                -629.0583915294374719
    Two-Electron Energy =                 240.1030821209171791
    Total Energy =                       -224.8584853963242836
  Basis Set: (AUG-CC-PVTZ AUX)
    Blend: AUG-CC-PVTZ-RI
    Molecular point group: c1

    Geometry (in Angstrom), charge = 0, multiplicity = 1:

       Center              X                  Y                   Z               Mass
    ------------   -----------------  -----------------  -----------------  -----------------
         N           -1.016304822268    -0.330602891210     0.000026707187    14.003074004430
         N            0.039437177732    -1.168946891210    -0.000024292813    14.003074004430
         C           -0.674660822268     0.985890108790     0.000006707187    12.000000000000
         C            0.708824377732     0.917553608790    -0.000005492813    12.000000000000
         C            1.099654177732    -0.336325891210    -0.000007292813    12.000000000000
         H           -1.419468822268     1.769443108790     0.000022707187     1.007825032230
         H            1.341524177732     1.891114108790    -0.000009292813     1.007825032230
         H           -1.946461822268    -0.729335891210     0.000040707187     1.007825032230
         H            2.097174177732    -0.755354891210    -0.000015292813     1.007825032230

  Basis Set: AUG-CC-PVTZ
    Blend: AUG-CC-PVTZ
  Basis Set: (AUG-CC-PVTZ AUX)
    Blend: AUG-CC-PVTZ-JKFIT
	 Reference Energy          =    -224.8584853963242836 [Eh]
	 Singles Energy            =      -0.0000000000000000 [Eh]
	 Same-Spin Energy          =      -0.2471261424107321 [Eh]
	 Opposite-Spin Energy      =      -0.7474569530150850 [Eh]
	 Correlation Energy        =      -0.9945830954258170 [Eh]
	 Total Energy              =    -225.8530684917500935 [Eh]

	 ================> DF-SCS-MP2 Energies <==================
	-----------------------------------------------------------
	 SCS Same-Spin Scale       =       0.3333333333333333 [-]
	 SCS Opposite-Spin Scale   =       1.2000000000000000 [-]
	 SCS Same-Spin Energy      =      -0.0823753808035773 [Eh]
	 SCS Opposite-Spin Energy  =      -0.8969483436181019 [Eh]
	 SCS Correlation Energy    =      -0.9793237244216793 [Eh]
	 SCS Total Energy          =    -225.8378091207459590 [Eh]
	-----------------------------------------------------------

  Dipole Moment: [D]
     X:    -1.5635      Y:     1.7441      Z:     0.0001     Total:     2.3423

*** Psi4 exiting successfully. Buy a developer a beer!
