                               Psi4 1.3.2 release

  ==> Input File <==

--------------------------------------------------------------------------
#psi4
#
memory 32 gb

molecule  {
0 1
  N       -0.9945540    -0.3825250     0.0000259
  N        0.0381600    -1.2151070    -0.0000250
  C       -0.6759380     0.9397300     0.0000060
  C        0.7089440     0.9680670    -0.0000050
  C        1.0983770    -0.3824860    -0.0000080
  H       -1.4207460     1.7232830     0.0000220
  H        1.3402470     1.8449540    -0.0000100
  H       -1.9477390    -0.7754960     0.0000400
  H        2.0958970    -0.8015150    -0.0000160
units angstrom
no_reorient  #important for SAPT in psi4, default
symmetry c1  #important for SAPT in psi4, default
}

set PROPERTIES_ORIGIN ["COM"]
properties('MP2/aug-cc-pvtz', properties = ['dipole'])
--------------------------------------------------------------------------

    Molecular point group: c1
  Charge       = 0
  Multiplicity = 1
  Basis Set: AUG-CC-PVTZ
    Blend: AUG-CC-PVTZ
  Basis Set: (AUG-CC-PVTZ AUX)
    Blend: AUG-CC-PVTZ-JKFIT

    Orbital Energies [Eh]
    ---------------------

    Doubly Occupied:

       1A    -15.646271     2A    -15.590405     3A    -11.279927
       4A    -11.253442     5A    -11.225192     6A     -1.380903
       7A     -1.090015     8A     -1.054974     9A     -0.820091
      10A     -0.801624    11A     -0.743687    12A     -0.610440
      13A     -0.605740    14A     -0.592465    15A     -0.563135
      16A     -0.464498    17A     -0.362534    18A     -0.346893

  @DF-RHF Final Energy:  -224.87261203060143

   => Energetics <=

    Nuclear Repulsion Energy =            163.0447465318920308
    One-Electron Energy =                -626.9702435130640197
    Two-Electron Energy =                 239.0528849505705580
    Total Energy =                       -224.8726120306014309
  Basis Set: (AUG-CC-PVTZ AUX)
    Blend: AUG-CC-PVTZ-RI
    Molecular point group: c1

    Geometry (in Angstrom), charge = 0, multiplicity = 1:

       Center              X                  Y                   Z               Mass
    ------------   -----------------  -----------------  -----------------  -----------------
         N           -0.998262670466    -0.352229629191     0.000026416121    14.003074004430
         N            0.034451329534    -1.184811629191    -0.000024483879    14.003074004430
         C           -0.679646670466     0.970025370809     0.000006516121    12.000000000000
         C            0.705235329534     0.998362370809    -0.000004483879    12.000000000000
         C            1.094668329534    -0.352190629191    -0.000007483879    12.000000000000
         H           -1.424454670466     1.753578370809     0.000022516121     1.007825032230
         H            1.336538329534     1.875249370809    -0.000009483879     1.007825032230
         H           -1.951447670466    -0.745200629191     0.000040516121     1.007825032230
         H            2.092188329534    -0.771219629191    -0.000015483879     1.007825032230

  Basis Set: AUG-CC-PVTZ
    Blend: AUG-CC-PVTZ
  Basis Set: (AUG-CC-PVTZ AUX)
    Blend: AUG-CC-PVTZ-JKFIT
	 Reference Energy          =    -224.8726120306014309 [Eh]
	 Singles Energy            =      -0.0000000000000000 [Eh]
	 Same-Spin Energy          =      -0.2461327315464683 [Eh]
	 Opposite-Spin Energy      =      -0.7461329306492288 [Eh]
	 Correlation Energy        =      -0.9922656621956971 [Eh]
	 Total Energy              =    -225.8648776927971369 [Eh]

	 ================> DF-SCS-MP2 Energies <==================
	-----------------------------------------------------------
	 SCS Same-Spin Scale       =       0.3333333333333333 [-]
	 SCS Opposite-Spin Scale   =       1.2000000000000000 [-]
	 SCS Same-Spin Energy      =      -0.0820442438488228 [Eh]
	 SCS Opposite-Spin Energy  =      -0.8953595167790745 [Eh]
	 SCS Correlation Energy    =      -0.9774037606278974 [Eh]
	 SCS Total Energy          =    -225.8500157912293389 [Eh]
	-----------------------------------------------------------

  Dipole Moment: [D]
     X:    -1.5713      Y:     1.7252      Z:     0.0001     Total:     2.3335

*** Psi4 exiting successfully. Buy a developer a beer!
