                               Psi4 1.3.2 release

  ==> Input File <==

--------------------------------------------------------------------------
#psi4
#
memory 32 gb

molecule  {
0 1
  N       -0.9714289    -0.3878842     0.0000258
  N        0.0381600    -1.2151070    -0.0000250
  C       -0.6759380     0.9397300     0.0000060
  C        0.7089440     0.9680670    -0.0000050
  C        1.0983770    -0.3824860    -0.0000080
  H       -1.4207460     1.7232830     0.0000220
  H        1.3402470     1.8449540    -0.0000100
  H       -1.9477390    -0.7754960     0.0000400
  H        2.0958970    -0.8015150    -0.0000160
units angstrom
no_reorient  #important for SAPT in psi4, default
symmetry c1  #important for SAPT in psi4, default
}

set PROPERTIES_ORIGIN ["COM"]
properties('MP2/aug-cc-pvtz', properties = ['dipole'])
--------------------------------------------------------------------------

    Molecular point group: c1
  Charge       = 0
  Multiplicity = 1
  Basis Set: AUG-CC-PVTZ
    Blend: AUG-CC-PVTZ
  Basis Set: (AUG-CC-PVTZ AUX)
    Blend: AUG-CC-PVTZ-JKFIT

    Orbital Energies [Eh]
    ---------------------

    Doubly Occupied:

       1A    -15.649131     2A    -15.590342     3A    -11.277852
       4A    -11.251190     5A    -11.225027     6A     -1.390872
       7A     -1.088200     8A     -1.056886     9A     -0.815589
      10A     -0.803916    11A     -0.744754    12A     -0.615558
      13A     -0.605404    14A     -0.590216    15A     -0.562195
      16A     -0.466088    17A     -0.360848    18A     -0.346976

  @DF-RHF Final Energy:  -224.86995712557950

   => Energetics <=

    Nuclear Repulsion Energy =            163.4916986260572287
    One-Electron Energy =                -627.8412189814335989
    Two-Electron Energy =                 239.4795632297968950
    Total Energy =                       -224.8699571255795036
  Basis Set: (AUG-CC-PVTZ AUX)
    Blend: AUG-CC-PVTZ-RI
    Molecular point group: c1

    Geometry (in Angstrom), charge = 0, multiplicity = 1:

       Center              X                  Y                   Z               Mass
    ------------   -----------------  -----------------  -----------------  -----------------
         N           -0.979897044778    -0.356485829648     0.000026336702    14.003074004430
         N            0.029691855222    -1.183708629648    -0.000024463298    14.003074004430
         C           -0.684406144778     0.971128370352     0.000006536702    12.000000000000
         C            0.700475855222     0.999465370352    -0.000004463298    12.000000000000
         C            1.089908855222    -0.351087629648    -0.000007463298    12.000000000000
         H           -1.429214144778     1.754681370352     0.000022536702     1.007825032230
         H            1.331778855222     1.876352370352    -0.000009463298     1.007825032230
         H           -1.956207144778    -0.744097629648     0.000040536702     1.007825032230
         H            2.087428855222    -0.770116629648    -0.000015463298     1.007825032230

  Basis Set: AUG-CC-PVTZ
    Blend: AUG-CC-PVTZ
  Basis Set: (AUG-CC-PVTZ AUX)
    Blend: AUG-CC-PVTZ-JKFIT
	 Reference Energy          =    -224.8699571255795036 [Eh]
	 Singles Energy            =      -0.0000000000000000 [Eh]
	 Same-Spin Energy          =      -0.2464460470641447 [Eh]
	 Opposite-Spin Energy      =      -0.7461512320161419 [Eh]
	 Correlation Energy        =      -0.9925972790802866 [Eh]
	 Total Energy              =    -225.8625544046597895 [Eh]

	 ================> DF-SCS-MP2 Energies <==================
	-----------------------------------------------------------
	 SCS Same-Spin Scale       =       0.3333333333333333 [-]
	 SCS Opposite-Spin Scale   =       1.2000000000000000 [-]
	 SCS Same-Spin Energy      =      -0.0821486823547149 [Eh]
	 SCS Opposite-Spin Energy  =      -0.8953814784193702 [Eh]
	 SCS Correlation Energy    =      -0.9775301607740852 [Eh]
	 SCS Total Energy          =    -225.8474872863535836 [Eh]
	-----------------------------------------------------------

  Dipole Moment: [D]
     X:    -1.6154      Y:     1.7090      Z:     0.0001     Total:     2.3516

*** Psi4 exiting successfully. Buy a developer a beer!
