                               Psi4 1.3.2 release

  ==> Input File <==

--------------------------------------------------------------------------
#psi4
#
memory 32 gb

molecule  {
0 1
  N       -1.0175820    -0.3767630     0.0000260
  N        0.0381600    -1.2151070    -0.0000250
  C       -0.6257000     1.1333176     0.0000031
  C        0.7089440     0.9680670    -0.0000050
  C        1.0983770    -0.3824860    -0.0000080
  H       -1.4207460     1.7232830     0.0000220
  H        1.3402470     1.8449540    -0.0000100
  H       -1.9477390    -0.7754960     0.0000400
  H        2.0958970    -0.8015150    -0.0000160
units angstrom
no_reorient  #important for SAPT in psi4, default
symmetry c1  #important for SAPT in psi4, default
}

set PROPERTIES_ORIGIN ["COM"]
properties('MP2/aug-cc-pvtz', properties = ['dipole'])
--------------------------------------------------------------------------

    Molecular point group: c1
  Charge       = 0
  Multiplicity = 1
  Basis Set: AUG-CC-PVTZ
    Blend: AUG-CC-PVTZ
  Basis Set: (AUG-CC-PVTZ AUX)
    Blend: AUG-CC-PVTZ-JKFIT

    Orbital Energies [Eh]
    ---------------------

    Doubly Occupied:

       1A    -15.629221     2A    -15.610152     3A    -11.286208
       4A    -11.254990     5A    -11.238631     6A     -1.343545
       7A     -1.065877     8A     -1.062338     9A     -0.833420
      10A     -0.795070    11A     -0.731047    12A     -0.637087
      13A     -0.582485    14A     -0.582140    15A     -0.555045
      16A     -0.463702    17A     -0.374637    18A     -0.338220

  @DF-RHF Final Energy:  -224.82948099043793

   => Energetics <=

    Nuclear Repulsion Energy =            160.1471163225776877
    One-Electron Energy =                -621.1855637842330680
    Two-Electron Energy =                 236.2089664712174510
    Total Energy =                       -224.8294809904379292
  Basis Set: (AUG-CC-PVTZ AUX)
    Blend: AUG-CC-PVTZ-RI
    Molecular point group: c1

    Geometry (in Angstrom), charge = 0, multiplicity = 1:

       Center              X                  Y                   Z               Mass
    ------------   -----------------  -----------------  -----------------  -----------------
         N           -1.025411830496    -0.381797245134     0.000027007022    14.003074004430
         N            0.030330169504    -1.220141245134    -0.000023992978    14.003074004430
         C           -0.633529830496     1.128283354866     0.000004107022    12.000000000000
         C            0.701114169504     0.963032754866    -0.000003992978    12.000000000000
         C            1.090547169504    -0.387520245134    -0.000006992978    12.000000000000
         H           -1.428575830496     1.718248754866     0.000023007022     1.007825032230
         H            1.332417169504     1.839919754866    -0.000008992978     1.007825032230
         H           -1.955568830496    -0.780530245134     0.000041007022     1.007825032230
         H            2.088067169504    -0.806549245134    -0.000014992978     1.007825032230

  Basis Set: AUG-CC-PVTZ
    Blend: AUG-CC-PVTZ
  Basis Set: (AUG-CC-PVTZ AUX)
    Blend: AUG-CC-PVTZ-JKFIT
	 Reference Energy          =    -224.8294809904379292 [Eh]
	 Singles Energy            =      -0.0000000000000000 [Eh]
	 Same-Spin Energy          =      -0.2473739049830571 [Eh]
	 Opposite-Spin Energy      =      -0.7521151542519546 [Eh]
	 Correlation Energy        =      -0.9994890592350117 [Eh]
	 Total Energy              =    -225.8289700496729324 [Eh]

	 ================> DF-SCS-MP2 Energies <==================
	-----------------------------------------------------------
	 SCS Same-Spin Scale       =       0.3333333333333333 [-]
	 SCS Opposite-Spin Scale   =       1.2000000000000000 [-]
	 SCS Same-Spin Energy      =      -0.0824579683276857 [Eh]
	 SCS Opposite-Spin Energy  =      -0.9025381851023455 [Eh]
	 SCS Correlation Energy    =      -0.9849961534300312 [Eh]
	 SCS Total Energy          =    -225.8144771438679470 [Eh]
	-----------------------------------------------------------

  Dipole Moment: [D]
     X:    -1.2479      Y:     1.8758      Z:     0.0001     Total:     2.2530

*** Psi4 exiting successfully. Buy a developer a beer!
