                               Psi4 1.4a3.dev225

  ==> Input File <==

--------------------------------------------------------------------------
#psi4
#
memory 32 gb

molecule  {
0 1
  N       -1.0175820    -0.3767630     0.0000260
  N        0.0381600    -1.2151070    -0.0000250
  C       -0.6759380     0.9397300     0.0000060
  C        0.7089440     0.9680670    -0.0000050
  C        1.0983770    -0.3824860    -0.0000080
  H       -1.4345252     1.7377790     0.0000223
  H        1.3402470     1.8449540    -0.0000100
  H       -1.9477390    -0.7754960     0.0000400
  H        2.0958970    -0.8015150    -0.0000160
units angstrom
no_reorient  #important for SAPT in psi4, default
symmetry c1  #important for SAPT in psi4, default
}

set PROPERTIES_ORIGIN ["COM"]
properties('MP2/aug-cc-pvtz', properties = ['dipole'])
--------------------------------------------------------------------------

    Molecular point group: c1
  Charge       = 0
  Multiplicity = 1
  Basis Set: AUG-CC-PVTZ
    Blend: AUG-CC-PVTZ
  Basis Set: (AUG-CC-PVTZ AUX)
    Blend: AUG-CC-PVTZ-JKFIT

    Orbital Energies [Eh]
    ---------------------

    Doubly Occupied:

       1A    -15.643593     2A    -15.590618     3A    -11.284229
       4A    -11.255823     5A    -11.225523     6A     -1.371697
       7A     -1.092227     8A     -1.052530     9A     -0.824169
      10A     -0.798876    11A     -0.739527    12A     -0.607564
      13A     -0.605758    14A     -0.591718    15A     -0.563008
      16A     -0.462705    17A     -0.364977    18A     -0.346293

  @DF-RHF Final Energy:  -224.87284259103390

   => Energetics <=

    Nuclear Repulsion Energy =            162.5177761021917320
    One-Electron Energy =                -625.9395709392538265
    Two-Electron Energy =                 238.5489522460281648
    Total Energy =                       -224.8728425910339013
  Basis Set: (AUG-CC-PVTZ AUX)
    Blend: AUG-CC-PVTZ-RI
    Molecular point group: c1

    Geometry (in Angstrom), charge = 0, multiplicity = 1:

       Center              X                  Y                   Z               Mass
    ------------   -----------------  -----------------  -----------------  -----------------
         N           -1.016347072196    -0.347868257032     0.000026491095    14.003074004430
         N            0.039394927804    -1.186212257032    -0.000024508905    14.003074004430
         C           -0.674703072196     0.968624742968     0.000006491095    12.000000000000
         C            0.710178927804     0.996961742968    -0.000004508905    12.000000000000
         C            1.099611927804    -0.353591257032    -0.000007508905    12.000000000000
         H           -1.433290272196     1.766673742968     0.000022791095     1.007825032230
         H            1.341481927804     1.873848742968    -0.000009508905     1.007825032230
         H           -1.946504072196    -0.746601257032     0.000040491095     1.007825032230
         H            2.097131927804    -0.772620257032    -0.000015508905     1.007825032230

  Basis Set: AUG-CC-PVTZ
    Blend: AUG-CC-PVTZ
  Basis Set: (AUG-CC-PVTZ AUX)
    Blend: AUG-CC-PVTZ-JKFIT
	 Reference Energy          =    -224.8728425910339013 [Eh]
	 Singles Energy            =      -0.0000000000000000 [Eh]
	 Same-Spin Energy          =      -0.2458817599966933 [Eh]
	 Opposite-Spin Energy      =      -0.7463397333929331 [Eh]
	 Correlation Energy        =      -0.9922214933896264 [Eh]
	 Total Energy              =    -225.8650640844235227 [Eh]

	 ================> DF-SCS-MP2 Energies <==================
	-----------------------------------------------------------
	 SCS Same-Spin Scale       =       0.3333333333333333 [-]
	 SCS Opposite-Spin Scale   =       1.2000000000000000 [-]
	 SCS Same-Spin Energy      =      -0.0819605866655644 [Eh]
	 SCS Opposite-Spin Energy  =      -0.8956076800715197 [Eh]
	 SCS Correlation Energy    =      -0.9775682667370841 [Eh]
	 SCS Total Energy          =    -225.8504108577709815 [Eh]
	-----------------------------------------------------------

  Dipole Moment: [D]
     X:    -1.5224      Y:     1.7401      Z:     0.0001     Total:     2.3121

*** Psi4 exiting successfully. Buy a developer a beer!
