                               Psi4 1.4a3.dev225

  ==> Input File <==

--------------------------------------------------------------------------
#psi4
#
memory 32 gb

molecule  {
0 1
  N       -1.0175820    -0.3767630     0.0000260
  N        0.0381600    -1.2151070    -0.0000250
  C       -0.6759380     0.9397300     0.0000060
  C        0.7589335     0.9690899    -0.0000054
  C        1.0983770    -0.3824860    -0.0000080
  H       -1.4207460     1.7232830     0.0000220
  H        1.3402470     1.8449540    -0.0000100
  H       -1.9477390    -0.7754960     0.0000400
  H        2.0958970    -0.8015150    -0.0000160
units angstrom
no_reorient  #important for SAPT in psi4, default
symmetry c1  #important for SAPT in psi4, default
}

set PROPERTIES_ORIGIN ["COM"]
properties('MP2/aug-cc-pvtz', properties = ['dipole'])
--------------------------------------------------------------------------

    Molecular point group: c1
  Charge       = 0
  Multiplicity = 1
  Basis Set: AUG-CC-PVTZ
    Blend: AUG-CC-PVTZ
  Basis Set: (AUG-CC-PVTZ AUX)
    Blend: AUG-CC-PVTZ-JKFIT

    Orbital Energies [Eh]
    ---------------------

    Doubly Occupied:

       1A    -15.648410     2A    -15.588323     3A    -11.288589
       4A    -11.255648     5A    -11.227542     6A     -1.370937
       7A     -1.093751     8A     -1.047055     9A     -0.830425
      10A     -0.798682    11A     -0.742476    12A     -0.609060
      13A     -0.604629    14A     -0.604429    15A     -0.551658
      16A     -0.463597    17A     -0.368186    18A     -0.339396

  @DF-RHF Final Energy:  -224.86904995662351

   => Energetics <=

    Nuclear Repulsion Energy =            162.0554852430213373
    One-Electron Energy =                -624.9834867337727928
    Two-Electron Energy =                 238.0589515341279423
    Total Energy =                       -224.8690499566235133
  Basis Set: (AUG-CC-PVTZ AUX)
    Blend: AUG-CC-PVTZ-RI
    Molecular point group: c1

    Geometry (in Angstrom), charge = 0, multiplicity = 1:

       Center              X                  Y                   Z               Mass
    ------------   -----------------  -----------------  -----------------  -----------------
         N           -1.025368001692    -0.347833943110     0.000026566089    14.003074004430
         N            0.030373998308    -1.186177943110    -0.000024433911    14.003074004430
         C           -0.683724001692     0.968659056890     0.000006566089    12.000000000000
         C            0.751147498308     0.998018956890    -0.000004833911    12.000000000000
         C            1.090590998308    -0.353556943110    -0.000007433911    12.000000000000
         H           -1.428532001692     1.752212056890     0.000022566089     1.007825032230
         H            1.332460998308     1.873883056890    -0.000009433911     1.007825032230
         H           -1.955525001692    -0.746566943110     0.000040566089     1.007825032230
         H            2.088110998308    -0.772585943110    -0.000015433911     1.007825032230

  Basis Set: AUG-CC-PVTZ
    Blend: AUG-CC-PVTZ
  Basis Set: (AUG-CC-PVTZ AUX)
    Blend: AUG-CC-PVTZ-JKFIT
	 Reference Energy          =    -224.8690499566235133 [Eh]
	 Singles Energy            =      -0.0000000000000000 [Eh]
	 Same-Spin Energy          =      -0.2462688732462894 [Eh]
	 Opposite-Spin Energy      =      -0.7471058851805974 [Eh]
	 Correlation Energy        =      -0.9933747584268868 [Eh]
	 Total Energy              =    -225.8624247150503948 [Eh]

	 ================> DF-SCS-MP2 Energies <==================
	-----------------------------------------------------------
	 SCS Same-Spin Scale       =       0.3333333333333333 [-]
	 SCS Opposite-Spin Scale   =       1.2000000000000000 [-]
	 SCS Same-Spin Energy      =      -0.0820896244154298 [Eh]
	 SCS Opposite-Spin Energy  =      -0.8965270622167169 [Eh]
	 SCS Correlation Energy    =      -0.9786166866321466 [Eh]
	 SCS Total Energy          =    -225.8476666432556499 [Eh]
	-----------------------------------------------------------

  Dipole Moment: [D]
     X:    -1.5563      Y:     1.7277      Z:     0.0001     Total:     2.3253

*** Psi4 exiting successfully. Buy a developer a beer!
