                               Psi4 1.3.2 release

  ==> Input File <==

--------------------------------------------------------------------------
#psi4
#
memory 32 gb

molecule  {
0 1
  N       -1.0175820    -0.3767630     0.0000260
  N        0.0381600    -1.2151070    -0.0000250
  C       -0.6760833     0.9880789     0.0000060
  C        0.7089440     0.9680670    -0.0000050
  C        1.0983770    -0.3824860    -0.0000080
  H       -1.4207460     1.7232830     0.0000220
  H        1.3402470     1.8449540    -0.0000100
  H       -1.9477390    -0.7754960     0.0000400
  H        2.0958970    -0.8015150    -0.0000160
units angstrom
no_reorient  #important for SAPT in psi4, default
symmetry c1  #important for SAPT in psi4, default
}

set PROPERTIES_ORIGIN ["COM"]
properties('MP2/aug-cc-pvtz', properties = ['dipole'])
--------------------------------------------------------------------------

    Molecular point group: c1
  Charge       = 0
  Multiplicity = 1
  Basis Set: AUG-CC-PVTZ
    Blend: AUG-CC-PVTZ
  Basis Set: (AUG-CC-PVTZ AUX)
    Blend: AUG-CC-PVTZ-JKFIT

    Orbital Energies [Eh]
    ---------------------

    Doubly Occupied:

       1A    -15.641734     2A    -15.595682     3A    -11.283049
       4A    -11.255750     5A    -11.229296     6A     -1.362880
       7A     -1.085170     8A     -1.053477     9A     -0.825938
      10A     -0.796613    11A     -0.743065    12A     -0.611265
      13A     -0.598732    14A     -0.587556    15A     -0.570372
      16A     -0.464271    17A     -0.362660    18A     -0.347025

  @DF-RHF Final Energy:  -224.86828044578564

   => Energetics <=

    Nuclear Repulsion Energy =            161.8350635846280454
    One-Electron Energy =                -624.5776227698009961
    Two-Electron Energy =                 237.8742787393872788
    Total Energy =                       -224.8682804457856435
  Basis Set: (AUG-CC-PVTZ AUX)
    Blend: AUG-CC-PVTZ-RI
    Molecular point group: c1

    Geometry (in Angstrom), charge = 0, multiplicity = 1:

       Center              X                  Y                   Z               Mass
    ------------   -----------------  -----------------  -----------------  -----------------
         N           -1.016525553651    -0.356180993383     0.000026495539    14.003074004430
         N            0.039216446349    -1.194524993383    -0.000024504461    14.003074004430
         C           -0.675026853651     1.008660906617     0.000006495539    12.000000000000
         C            0.710000446349     0.988649006617    -0.000004504461    12.000000000000
         C            1.099433446349    -0.361903993383    -0.000007504461    12.000000000000
         H           -1.419689553651     1.743865006617     0.000022495539     1.007825032230
         H            1.341303446349     1.865536006617    -0.000009504461     1.007825032230
         H           -1.946682553651    -0.754913993383     0.000040495539     1.007825032230
         H            2.096953446349    -0.780932993383    -0.000015504461     1.007825032230

  Basis Set: AUG-CC-PVTZ
    Blend: AUG-CC-PVTZ
  Basis Set: (AUG-CC-PVTZ AUX)
    Blend: AUG-CC-PVTZ-JKFIT
	 Reference Energy          =    -224.8682804457856435 [Eh]
	 Singles Energy            =      -0.0000000000000000 [Eh]
	 Same-Spin Energy          =      -0.2462716063612125 [Eh]
	 Opposite-Spin Energy      =      -0.7477040423636938 [Eh]
	 Correlation Energy        =      -0.9939756487249063 [Eh]
	 Total Energy              =    -225.8622560945105420 [Eh]

	 ================> DF-SCS-MP2 Energies <==================
	-----------------------------------------------------------
	 SCS Same-Spin Scale       =       0.3333333333333333 [-]
	 SCS Opposite-Spin Scale   =       1.2000000000000000 [-]
	 SCS Same-Spin Energy      =      -0.0820905354537375 [Eh]
	 SCS Opposite-Spin Energy  =      -0.8972448508364326 [Eh]
	 SCS Correlation Energy    =      -0.9793353862901701 [Eh]
	 SCS Total Energy          =    -225.8476158320758032 [Eh]
	-----------------------------------------------------------

  Dipole Moment: [D]
     X:    -1.4603      Y:     1.7551      Z:     0.0001     Total:     2.2832

*** Psi4 exiting successfully. Buy a developer a beer!
