                               Psi4 1.3.2 release

  ==> Input File <==

--------------------------------------------------------------------------
#psi4
#
memory 32 gb

molecule  {
0 1
  N       -1.0175820    -0.3767630     0.0000260
  N        0.0381600    -1.2151070    -0.0000250
  C       -0.6759380     0.9397300     0.0000060
  C        0.7089440     0.9680670    -0.0000050
  C        1.0983770    -0.3824860    -0.0000080
  H       -1.4207460     1.7232830     0.0000220
  H        1.3402470     1.8449540    -0.0000100
  H       -1.8558279    -0.7360962     0.0000386
  H        2.0958970    -0.8015150    -0.0000160
units angstrom
no_reorient  #important for SAPT in psi4, default
symmetry c1  #important for SAPT in psi4, default
}

set PROPERTIES_ORIGIN ["COM"]
properties('MP2/aug-cc-pvtz', properties = ['dipole'])
--------------------------------------------------------------------------

    Molecular point group: c1
  Charge       = 0
  Multiplicity = 1
  Basis Set: AUG-CC-PVTZ
    Blend: AUG-CC-PVTZ
  Basis Set: (AUG-CC-PVTZ AUX)
    Blend: AUG-CC-PVTZ-JKFIT

    Orbital Energies [Eh]
    ---------------------

    Doubly Occupied:

       1A    -15.633953     2A    -15.591317     3A    -11.283028
       4A    -11.256739     5A    -11.226386     6A     -1.377906
       7A     -1.104744     8A     -1.057132     9A     -0.845553
      10A     -0.801036    11A     -0.746651    12A     -0.617249
      13A     -0.607460    14A     -0.593841    15A     -0.565099
      16A     -0.463978    17A     -0.366936    18A     -0.347128

  @DF-RHF Final Energy:  -224.86710930980456

   => Energetics <=

    Nuclear Repulsion Energy =            163.2248492846274814
    One-Electron Energy =                -627.2116471384573515
    Two-Electron Energy =                 239.1196885440253368
    Total Energy =                       -224.8671093098045617
  Basis Set: (AUG-CC-PVTZ AUX)
    Blend: AUG-CC-PVTZ-RI
    Molecular point group: c1

    Geometry (in Angstrom), charge = 0, multiplicity = 1:

       Center              X                  Y                   Z               Mass
    ------------   -----------------  -----------------  -----------------  -----------------
         N           -1.017912641349    -0.348237152012     0.000026516277    14.003074004430
         N            0.037829358651    -1.186581152012    -0.000024483723    14.003074004430
         C           -0.676268641349     0.968255847988     0.000006516277    12.000000000000
         C            0.708613358651     0.996592847988    -0.000004483723    12.000000000000
         C            1.098046358651    -0.353960152012    -0.000007483723    12.000000000000
         H           -1.421076641349     1.751808847988     0.000022516277     1.007825032230
         H            1.339916358651     1.873479847988    -0.000009483723     1.007825032230
         H           -1.856158541349    -0.707570352012     0.000039116277     1.007825032230
         H            2.095566358651    -0.772989152012    -0.000015483723     1.007825032230

  Basis Set: AUG-CC-PVTZ
    Blend: AUG-CC-PVTZ
  Basis Set: (AUG-CC-PVTZ AUX)
    Blend: AUG-CC-PVTZ-JKFIT
	 Reference Energy          =    -224.8671093098045617 [Eh]
	 Singles Energy            =      -0.0000000000000000 [Eh]
	 Same-Spin Energy          =      -0.2450675768876483 [Eh]
	 Opposite-Spin Energy      =      -0.7446382217085122 [Eh]
	 Correlation Energy        =      -0.9897057985961606 [Eh]
	 Total Energy              =    -225.8568151084007241 [Eh]

	 ================> DF-SCS-MP2 Energies <==================
	-----------------------------------------------------------
	 SCS Same-Spin Scale       =       0.3333333333333333 [-]
	 SCS Opposite-Spin Scale   =       1.2000000000000000 [-]
	 SCS Same-Spin Energy      =      -0.0816891922958828 [Eh]
	 SCS Opposite-Spin Energy  =      -0.8935658660502147 [Eh]
	 SCS Correlation Energy    =      -0.9752550583460975 [Eh]
	 SCS Total Energy          =    -225.8423643681506690 [Eh]
	-----------------------------------------------------------

  Dipole Moment: [D]
     X:    -1.3967      Y:     1.8044      Z:     0.0001     Total:     2.2818

*** Psi4 exiting successfully. Buy a developer a beer!
