                               Psi4 1.4a3.dev225

  ==> Input File <==

--------------------------------------------------------------------------
#psi4
#
memory 32 gb

molecule  {
0 1
  N       -1.0175820    -0.3767630     0.0000260
  N        0.0381600    -1.2151070    -0.0000250
  C       -0.6759380     0.9397300     0.0000060
  C        0.7089440     0.9680670    -0.0000050
  C        1.0983770    -0.3824860    -0.0000080
  H       -1.4207460     1.7232830     0.0000220
  H        1.3402470     1.8449540    -0.0000100
  H       -1.9477390    -0.7754960     0.0000400
  H        2.1419949    -0.8208794    -0.0000164
units angstrom
no_reorient  #important for SAPT in psi4, default
symmetry c1  #important for SAPT in psi4, default
}

set PROPERTIES_ORIGIN ["COM"]
properties('MP2/aug-cc-pvtz', properties = ['dipole'])
--------------------------------------------------------------------------

    Molecular point group: c1
  Charge       = 0
  Multiplicity = 1
  Basis Set: AUG-CC-PVTZ
    Blend: AUG-CC-PVTZ
  Basis Set: (AUG-CC-PVTZ AUX)
    Blend: AUG-CC-PVTZ-JKFIT

    Orbital Energies [Eh]
    ---------------------

    Doubly Occupied:

       1A    -15.643775     2A    -15.590897     3A    -11.282407
       4A    -11.261283     5A    -11.225901     6A     -1.371965
       7A     -1.091831     8A     -1.052988     9A     -0.823726
      10A     -0.793783    11A     -0.742786    12A     -0.606007
      13A     -0.604752    14A     -0.592595    15A     -0.558029
      16A     -0.462577    17A     -0.365147    18A     -0.346554

  @DF-RHF Final Energy:  -224.87102656091707

   => Energetics <=

    Nuclear Repulsion Energy =            162.3822691203218369
    One-Electron Energy =                -625.6725853866232683
    Two-Electron Energy =                 238.4192897053843581
    Total Energy =                       -224.8710265609170733
  Basis Set: (AUG-CC-PVTZ AUX)
    Blend: AUG-CC-PVTZ-RI
    Molecular point group: c1

    Geometry (in Angstrom), charge = 0, multiplicity = 1:

       Center              X                  Y                   Z               Mass
    ------------   -----------------  -----------------  -----------------  -----------------
         N           -1.017234019633    -0.347366689739     0.000026501464    14.003074004430
         N            0.038507980367    -1.185710689739    -0.000024498536    14.003074004430
         C           -0.675590019633     0.969126310261     0.000006501464    12.000000000000
         C            0.709291980367     0.997463310261    -0.000004498536    12.000000000000
         C            1.098724980367    -0.353089689739    -0.000007498536    12.000000000000
         H           -1.420398019633     1.752679310261     0.000022501464     1.007825032230
         H            1.340594980367     1.874350310261    -0.000009498536     1.007825032230
         H           -1.947391019633    -0.746099689739     0.000040501464     1.007825032230
         H            2.142342880367    -0.791483089739    -0.000015898536     1.007825032230

  Basis Set: AUG-CC-PVTZ
    Blend: AUG-CC-PVTZ
  Basis Set: (AUG-CC-PVTZ AUX)
    Blend: AUG-CC-PVTZ-JKFIT
	 Reference Energy          =    -224.8710265609170733 [Eh]
	 Singles Energy            =      -0.0000000000000000 [Eh]
	 Same-Spin Energy          =      -0.2459206819902249 [Eh]
	 Opposite-Spin Energy      =      -0.7465054068766409 [Eh]
	 Correlation Energy        =      -0.9924260888668658 [Eh]
	 Total Energy              =    -225.8634526497839374 [Eh]

	 ================> DF-SCS-MP2 Energies <==================
	-----------------------------------------------------------
	 SCS Same-Spin Scale       =       0.3333333333333333 [-]
	 SCS Opposite-Spin Scale   =       1.2000000000000000 [-]
	 SCS Same-Spin Energy      =      -0.0819735606634083 [Eh]
	 SCS Opposite-Spin Energy  =      -0.8958064882519691 [Eh]
	 SCS Correlation Energy    =      -0.9777800489153774 [Eh]
	 SCS Total Energy          =    -225.8488066098324509 [Eh]
	-----------------------------------------------------------

  Dipole Moment: [D]
     X:    -1.5292      Y:     1.7411      Z:     0.0001     Total:     2.3172

*** Psi4 exiting successfully. Buy a developer a beer!
