                               Psi4 1.3.2 release

  ==> Input File <==

--------------------------------------------------------------------------
#psi4
#
memory 32 gb

molecule  {
0 1
  N       -1.0175820    -0.3767630     0.0000260
  N        0.0526303    -1.1965541    -0.0000249
  C       -0.6759380     0.9397300     0.0000060
  C        0.7089440     0.9680670    -0.0000050
  C        1.0983770    -0.3824860    -0.0000080
  H       -1.4207460     1.7232830     0.0000220
  H        1.3402470     1.8449540    -0.0000100
  H       -1.9477390    -0.7754960     0.0000400
  H        2.0958970    -0.8015150    -0.0000160
units angstrom
no_reorient  #important for SAPT in psi4, default
symmetry c1  #important for SAPT in psi4, default
}

set PROPERTIES_ORIGIN ["COM"]
properties('MP2/aug-cc-pvtz', properties = ['dipole'])
--------------------------------------------------------------------------

    Molecular point group: c1
  Charge       = 0
  Multiplicity = 1
  Basis Set: AUG-CC-PVTZ
    Blend: AUG-CC-PVTZ
  Basis Set: (AUG-CC-PVTZ AUX)
    Blend: AUG-CC-PVTZ-JKFIT

    Orbital Energies [Eh]
    ---------------------

    Doubly Occupied:

       1A    -15.641908     2A    -15.587461     3A    -11.281451
       4A    -11.252962     5A    -11.223909     6A     -1.373960
       7A     -1.098414     8A     -1.050441     9A     -0.824761
      10A     -0.800553    11A     -0.742161    12A     -0.611442
      13A     -0.607126    14A     -0.592038    15A     -0.565074
      16A     -0.459064    17A     -0.367390    18A     -0.346284

  @DF-RHF Final Energy:  -224.87528122492512

   => Energetics <=

    Nuclear Repulsion Energy =            163.0623320617024490
    One-Electron Energy =                -627.0224256407732355
    Two-Electron Energy =                 239.0848123541456403
    Total Energy =                       -224.8752812249251178
  Basis Set: (AUG-CC-PVTZ AUX)
    Blend: AUG-CC-PVTZ-RI
    Molecular point group: c1

    Geometry (in Angstrom), charge = 0, multiplicity = 1:

       Center              X                  Y                   Z               Mass
    ------------   -----------------  -----------------  -----------------  -----------------
         N           -1.019529374155    -0.351471981257     0.000026474958    14.003074004430
         N            0.050682925845    -1.171263081257    -0.000024425042    14.003074004430
         C           -0.677885374155     0.965021018743     0.000006474958    12.000000000000
         C            0.706996625845     0.993358018743    -0.000004525042    12.000000000000
         C            1.096429625845    -0.357194981257    -0.000007525042    12.000000000000
         H           -1.422693374155     1.748574018743     0.000022474958     1.007825032230
         H            1.338299625845     1.870245018743    -0.000009525042     1.007825032230
         H           -1.949686374155    -0.750204981257     0.000040474958     1.007825032230
         H            2.093949625845    -0.776223981257    -0.000015525042     1.007825032230

  Basis Set: AUG-CC-PVTZ
    Blend: AUG-CC-PVTZ
  Basis Set: (AUG-CC-PVTZ AUX)
    Blend: AUG-CC-PVTZ-JKFIT
	 Reference Energy          =    -224.8752812249251178 [Eh]
	 Singles Energy            =      -0.0000000000000000 [Eh]
	 Same-Spin Energy          =      -0.2452415831278117 [Eh]
	 Opposite-Spin Energy      =      -0.7449133576338975 [Eh]
	 Correlation Energy        =      -0.9901549407617093 [Eh]
	 Total Energy              =    -225.8654361656868161 [Eh]

	 ================> DF-SCS-MP2 Energies <==================
	-----------------------------------------------------------
	 SCS Same-Spin Scale       =       0.3333333333333333 [-]
	 SCS Opposite-Spin Scale   =       1.2000000000000000 [-]
	 SCS Same-Spin Energy      =      -0.0817471943759372 [Eh]
	 SCS Opposite-Spin Energy  =      -0.8938960291606770 [Eh]
	 SCS Correlation Energy    =      -0.9756432235366143 [Eh]
	 SCS Total Energy          =    -225.8509244484617398 [Eh]
	-----------------------------------------------------------

  Dipole Moment: [D]
     X:    -1.5257      Y:     1.6922      Z:     0.0001     Total:     2.2785

*** Psi4 exiting successfully. Buy a developer a beer!
