                               Psi4 1.3.2 release

  ==> Input File <==

--------------------------------------------------------------------------
#psi4
#
memory 32 gb

molecule  {
0 1
  N       -1.0175820    -0.3767630     0.0000260
  N        0.0381600    -1.2151070    -0.0000250
  C       -0.6759380     0.9397300     0.0000060
  C        0.7089440     0.9680670    -0.0000050
  C        1.1260832    -0.4785712    -0.0000082
  H       -1.4207460     1.7232830     0.0000220
  H        1.3402470     1.8449540    -0.0000100
  H       -1.9477390    -0.7754960     0.0000400
  H        2.0958970    -0.8015150    -0.0000160
units angstrom
no_reorient  #important for SAPT in psi4, default
symmetry c1  #important for SAPT in psi4, default
}

set PROPERTIES_ORIGIN ["COM"]
properties('MP2/aug-cc-pvtz', properties = ['dipole'])
--------------------------------------------------------------------------

    Molecular point group: c1
  Charge       = 0
  Multiplicity = 1
  Basis Set: AUG-CC-PVTZ
    Blend: AUG-CC-PVTZ
  Basis Set: (AUG-CC-PVTZ AUX)
    Blend: AUG-CC-PVTZ-JKFIT

    Orbital Energies [Eh]
    ---------------------

    Doubly Occupied:

       1A    -15.637969     2A    -15.593216     3A    -11.281192
       4A    -11.259524     5A    -11.230501     6A     -1.370024
       7A     -1.102883     8A     -1.036839     9A     -0.820740
      10A     -0.807715    11A     -0.737992    12A     -0.630460
      13A     -0.604131    14A     -0.588034    15A     -0.563870
      16A     -0.449516    17A     -0.366935    18A     -0.342303

  @DF-RHF Final Energy:  -224.86580100835604

   => Energetics <=

    Nuclear Repulsion Energy =            161.7767975170683883
    One-Electron Energy =                -624.4375060859665609
    Two-Electron Energy =                 237.7949075605421001
    Total Energy =                       -224.8658010083560441
  Basis Set: (AUG-CC-PVTZ AUX)
    Blend: AUG-CC-PVTZ-RI
    Molecular point group: c1

    Geometry (in Angstrom), charge = 0, multiplicity = 1:

       Center              X                  Y                   Z               Mass
    ------------   -----------------  -----------------  -----------------  -----------------
         N           -1.021437819015    -0.330706651716     0.000026530814    14.003074004430
         N            0.034304180985    -1.169050651716    -0.000024469186    14.003074004430
         C           -0.679793819015     0.985786348284     0.000006530814    12.000000000000
         C            0.705088180985     1.014123348284    -0.000004469186    12.000000000000
         C            1.122227380985    -0.432514851716    -0.000007669186    12.000000000000
         H           -1.424601819015     1.769339348284     0.000022530814     1.007825032230
         H            1.336391180985     1.891010348284    -0.000009469186     1.007825032230
         H           -1.951594819015    -0.729439651716     0.000040530814     1.007825032230
         H            2.092041180985    -0.755458651716    -0.000015469186     1.007825032230

  Basis Set: AUG-CC-PVTZ
    Blend: AUG-CC-PVTZ
  Basis Set: (AUG-CC-PVTZ AUX)
    Blend: AUG-CC-PVTZ-JKFIT
	 Reference Energy          =    -224.8658010083560441 [Eh]
	 Singles Energy            =      -0.0000000000000000 [Eh]
	 Same-Spin Energy          =      -0.2441957673594494 [Eh]
	 Opposite-Spin Energy      =      -0.7446205741520415 [Eh]
	 Correlation Energy        =      -0.9888163415114909 [Eh]
	 Total Energy              =    -225.8546173498675387 [Eh]

	 ================> DF-SCS-MP2 Energies <==================
	-----------------------------------------------------------
	 SCS Same-Spin Scale       =       0.3333333333333333 [-]
	 SCS Opposite-Spin Scale   =       1.2000000000000000 [-]
	 SCS Same-Spin Energy      =      -0.0813985891198165 [Eh]
	 SCS Opposite-Spin Energy  =      -0.8935446889824498 [Eh]
	 SCS Correlation Energy    =      -0.9749432781022662 [Eh]
	 SCS Total Energy          =    -225.8407442864583174 [Eh]
	-----------------------------------------------------------

  Dipole Moment: [D]
     X:    -1.4450      Y:     1.6179      Z:     0.0001     Total:     2.1692

*** Psi4 exiting successfully. Buy a developer a beer!
