                               Psi4 1.3.2 release

  ==> Input File <==

--------------------------------------------------------------------------
#psi4
#
memory 32 gb

molecule  {
0 1
  N       -1.0175820    -0.3767630     0.0000260
  N        0.0381600    -1.2151070    -0.0000250
  C       -0.6759380     0.9397300     0.0000060
  C        0.7089440     0.9680670    -0.0000050
  C        1.0983770    -0.3824860    -0.0000080
  H       -1.4207460     1.7232830     0.0000220
  H        1.3402470     1.8449540    -0.0000100
  H       -1.9477390    -0.7754960     0.0000400
  H        2.2802888    -0.8789726    -0.0000175
units angstrom
no_reorient  #important for SAPT in psi4, default
symmetry c1  #important for SAPT in psi4, default
}

set PROPERTIES_ORIGIN ["COM"]
properties('MP2/aug-cc-pvtz', properties = ['dipole'])
--------------------------------------------------------------------------

    Molecular point group: c1
  Charge       = 0
  Multiplicity = 1
  Basis Set: AUG-CC-PVTZ
    Blend: AUG-CC-PVTZ
  Basis Set: (AUG-CC-PVTZ AUX)
    Blend: AUG-CC-PVTZ-JKFIT

    Orbital Energies [Eh]
    ---------------------

    Doubly Occupied:

       1A    -15.644976     2A    -15.592347     3A    -11.283715
       4A    -11.276634     5A    -11.227780     6A     -1.373349
       7A     -1.091156     8A     -1.054014     9A     -0.823038
      10A     -0.781224    11A     -0.743018    12A     -0.607338
      13A     -0.600326    14A     -0.592900    15A     -0.534628
      16A     -0.461830    17A     -0.366329    18A     -0.347741

  @DF-RHF Final Energy:  -224.85074680060396

   => Energetics <=

    Nuclear Repulsion Energy =            161.7754773542442592
    One-Electron Energy =                -624.4477615983729493
    Two-Electron Energy =                 237.8215374435247611
    Total Energy =                       -224.8507468006039574
  Basis Set: (AUG-CC-PVTZ AUX)
    Blend: AUG-CC-PVTZ-RI
    Molecular point group: c1

    Geometry (in Angstrom), charge = 0, multiplicity = 1:

       Center              X                  Y                   Z               Mass
    ------------   -----------------  -----------------  -----------------  -----------------
         N           -1.019282539353    -0.346506166853     0.000026517758    14.003074004430
         N            0.036459460647    -1.184850166853    -0.000024482242    14.003074004430
         C           -0.677638539353     0.969986833147     0.000006517758    12.000000000000
         C            0.707243460647     0.998323833147    -0.000004482242    12.000000000000
         C            1.096676460647    -0.352229166853    -0.000007482242    12.000000000000
         H           -1.422446539353     1.753539833147     0.000022517758     1.007825032230
         H            1.338546460647     1.875210833147    -0.000009482242     1.007825032230
         H           -1.949439539353    -0.745239166853     0.000040517758     1.007825032230
         H            2.278588260647    -0.848715766853    -0.000016982242     1.007825032230

  Basis Set: AUG-CC-PVTZ
    Blend: AUG-CC-PVTZ
  Basis Set: (AUG-CC-PVTZ AUX)
    Blend: AUG-CC-PVTZ-JKFIT
	 Reference Energy          =    -224.8507468006039574 [Eh]
	 Singles Energy            =      -0.0000000000000000 [Eh]
	 Same-Spin Energy          =      -0.2462347143069188 [Eh]
	 Opposite-Spin Energy      =      -0.7479878874934353 [Eh]
	 Correlation Energy        =      -0.9942226018003540 [Eh]
	 Total Energy              =    -225.8449694024043026 [Eh]

	 ================> DF-SCS-MP2 Energies <==================
	-----------------------------------------------------------
	 SCS Same-Spin Scale       =       0.3333333333333333 [-]
	 SCS Opposite-Spin Scale   =       1.2000000000000000 [-]
	 SCS Same-Spin Energy      =      -0.0820782381023063 [Eh]
	 SCS Opposite-Spin Energy  =      -0.8975854649921223 [Eh]
	 SCS Correlation Energy    =      -0.9796637030944286 [Eh]
	 SCS Total Energy          =    -225.8304105036983742 [Eh]
	-----------------------------------------------------------

  Dipole Moment: [D]
     X:    -1.5674      Y:     1.7518      Z:     0.0001     Total:     2.3506

*** Psi4 exiting successfully. Buy a developer a beer!
