                               Psi4 1.3.2 release

  ==> Input File <==

--------------------------------------------------------------------------
#psi4
#
memory 32 gb

molecule  {
0 1
  N       -0.9241677    -0.2710004     0.0000288
  N        0.0381600    -1.2151070    -0.0000250
  C       -0.6759380     0.9397300     0.0000060
  C        0.7089440     0.9680670    -0.0000050
  C        1.0983770    -0.3824860    -0.0000080
  H       -1.4207460     1.7232830     0.0000220
  H        1.3402470     1.8449540    -0.0000100
  H       -1.9477390    -0.7754960     0.0000400
  H        2.0958970    -0.8015150    -0.0000160
units angstrom
no_reorient  #important for SAPT in psi4, default
symmetry c1  #important for SAPT in psi4, default
}

set PROPERTIES_ORIGIN ["COM"]
properties('MP2/aug-cc-pvtz', properties = ['dipole'])
--------------------------------------------------------------------------

    Molecular point group: c1
  Charge       = 0
  Multiplicity = 1
  Basis Set: AUG-CC-PVTZ
    Blend: AUG-CC-PVTZ
  Basis Set: (AUG-CC-PVTZ AUX)
    Blend: AUG-CC-PVTZ-JKFIT

    Orbital Energies [Eh]
    ---------------------

    Doubly Occupied:

       1A    -15.652795     2A    -15.584167     3A    -11.272320
       4A    -11.253245     5A    -11.213974     6A     -1.400999
       7A     -1.122909     8A     -1.040669     9A     -0.813181
      10A     -0.790995    11A     -0.757117    12A     -0.629598
      13A     -0.598640    14A     -0.565501    15A     -0.558028
      16A     -0.474366    17A     -0.373943    18A     -0.338860

  @DF-RHF Final Energy:  -224.83820270824518

   => Energetics <=

    Nuclear Repulsion Energy =            165.1441623270954722
    One-Electron Energy =                -631.0821166077472526
    Two-Electron Energy =                 241.0997515724065750
    Total Energy =                       -224.8382027082451771
  Basis Set: (AUG-CC-PVTZ AUX)
    Blend: AUG-CC-PVTZ-RI
    Molecular point group: c1

    Geometry (in Angstrom), charge = 0, multiplicity = 1:

       Center              X                  Y                   Z               Mass
    ------------   -----------------  -----------------  -----------------  -----------------
         N           -0.942362871573    -0.263658377235     0.000028719259    14.003074004430
         N            0.019964828427    -1.207764977235    -0.000025080741    14.003074004430
         C           -0.694133171573     0.947072022765     0.000005919259    12.000000000000
         C            0.690748828427     0.975409022765    -0.000005080741    12.000000000000
         C            1.080181828427    -0.375143977235    -0.000008080741    12.000000000000
         H           -1.438941171573     1.730625022765     0.000021919259     1.007825032230
         H            1.322051828427     1.852296022765    -0.000010080741     1.007825032230
         H           -1.965934171573    -0.768153977235     0.000039919259     1.007825032230
         H            2.077701828427    -0.794172977235    -0.000016080741     1.007825032230

  Basis Set: AUG-CC-PVTZ
    Blend: AUG-CC-PVTZ
  Basis Set: (AUG-CC-PVTZ AUX)
    Blend: AUG-CC-PVTZ-JKFIT
	 Reference Energy          =    -224.8382027082451771 [Eh]
	 Singles Energy            =      -0.0000000000000000 [Eh]
	 Same-Spin Energy          =      -0.2469969993829735 [Eh]
	 Opposite-Spin Energy      =      -0.7470082153710245 [Eh]
	 Correlation Energy        =      -0.9940052147539979 [Eh]
	 Total Energy              =    -225.8322079229991743 [Eh]

	 ================> DF-SCS-MP2 Energies <==================
	-----------------------------------------------------------
	 SCS Same-Spin Scale       =       0.3333333333333333 [-]
	 SCS Opposite-Spin Scale   =       1.2000000000000000 [-]
	 SCS Same-Spin Energy      =      -0.0823323331276578 [Eh]
	 SCS Opposite-Spin Energy  =      -0.8964098584452294 [Eh]
	 SCS Correlation Energy    =      -0.9787421915728872 [Eh]
	 SCS Total Energy          =    -225.8169448998180542 [Eh]
	-----------------------------------------------------------

  Dipole Moment: [D]
     X:    -1.8173      Y:     1.6990      Z:     0.0001     Total:     2.4878

*** Psi4 exiting successfully. Buy a developer a beer!
