                               Psi4 1.3.2 release

  ==> Input File <==

--------------------------------------------------------------------------
#psi4
#
memory 32 gb

molecule  {
0 1
  N       -1.0175820    -0.3767630     0.0000260
  N        0.1310006    -1.3213687    -0.0000271
  C       -0.6759380     0.9397300     0.0000060
  C        0.7089440     0.9680670    -0.0000050
  C        1.0983770    -0.3824860    -0.0000080
  H       -1.4207460     1.7232830     0.0000220
  H        1.3402470     1.8449540    -0.0000100
  H       -1.9477390    -0.7754960     0.0000400
  H        2.0958970    -0.8015150    -0.0000160
units angstrom
no_reorient  #important for SAPT in psi4, default
symmetry c1  #important for SAPT in psi4, default
}

set PROPERTIES_ORIGIN ["COM"]
properties('MP2/aug-cc-pvtz', properties = ['dipole'])
--------------------------------------------------------------------------

    Molecular point group: c1
  Charge       = 0
  Multiplicity = 1
  Basis Set: AUG-CC-PVTZ
    Blend: AUG-CC-PVTZ
  Basis Set: (AUG-CC-PVTZ AUX)
    Blend: AUG-CC-PVTZ-JKFIT

    Orbital Energies [Eh]
    ---------------------

    Doubly Occupied:

       1A    -15.632372     2A    -15.603214     3A    -11.296891
       4A    -11.266461     5A    -11.225452     6A     -1.324548
       7A     -1.102794     8A     -1.040947     9A     -0.824197
      10A     -0.781398    11A     -0.744389    12A     -0.598371
      13A     -0.582898    14A     -0.579628    15A     -0.556955
      16A     -0.478523    17A     -0.377458    18A     -0.343166

  @DF-RHF Final Energy:  -224.85273165982267

   => Energetics <=

    Nuclear Repulsion Energy =            159.8546510036324548
    One-Electron Energy =                -620.6954424789057612
    Two-Electron Energy =                 235.9880598154506401
    Total Energy =                       -224.8527316598226662
  Basis Set: (AUG-CC-PVTZ AUX)
    Blend: AUG-CC-PVTZ-RI
    Molecular point group: c1

    Geometry (in Angstrom), charge = 0, multiplicity = 1:

       Center              X                  Y                   Z               Mass
    ------------   -----------------  -----------------  -----------------  -----------------
         N           -1.035659095958    -0.325783362291     0.000026927749    14.003074004430
         N            0.112923504042    -1.270389062291    -0.000026172251    14.003074004430
         C           -0.694015095958     0.990709637709     0.000006927749    12.000000000000
         C            0.690866904042     1.019046637709    -0.000004072251    12.000000000000
         C            1.080299904042    -0.331506362291    -0.000007072251    12.000000000000
         H           -1.438823095958     1.774262637709     0.000022927749     1.007825032230
         H            1.322169904042     1.895933637709    -0.000009072251     1.007825032230
         H           -1.965816095958    -0.724516362291     0.000040927749     1.007825032230
         H            2.077819904042    -0.750535362291    -0.000015072251     1.007825032230

  Basis Set: AUG-CC-PVTZ
    Blend: AUG-CC-PVTZ
  Basis Set: (AUG-CC-PVTZ AUX)
    Blend: AUG-CC-PVTZ-JKFIT
	 Reference Energy          =    -224.8527316598226662 [Eh]
	 Singles Energy            =      -0.0000000000000000 [Eh]
	 Same-Spin Energy          =      -0.2460556918536370 [Eh]
	 Opposite-Spin Energy      =      -0.7505689353481113 [Eh]
	 Correlation Energy        =      -0.9966246272017484 [Eh]
	 Total Energy              =    -225.8493562870244205 [Eh]

	 ================> DF-SCS-MP2 Energies <==================
	-----------------------------------------------------------
	 SCS Same-Spin Scale       =       0.3333333333333333 [-]
	 SCS Opposite-Spin Scale   =       1.2000000000000000 [-]
	 SCS Same-Spin Energy      =      -0.0820185639512123 [Eh]
	 SCS Opposite-Spin Energy  =      -0.9006827224177335 [Eh]
	 SCS Correlation Energy    =      -0.9827012863689458 [Eh]
	 SCS Total Energy          =    -225.8354329461916166 [Eh]
	-----------------------------------------------------------

  Dipole Moment: [D]
     X:    -1.4745      Y:     1.9122      Z:     0.0001     Total:     2.4147

*** Psi4 exiting successfully. Buy a developer a beer!
