                               Psi4 1.3.2 release

  ==> Input File <==

--------------------------------------------------------------------------
#psi4
#
memory 32 gb

molecule  {
0 1
  N       -1.0175820    -0.3767630     0.0000260
  N        0.0381600    -1.2151070    -0.0000250
  C       -0.6759380     0.9397300     0.0000060
  C        0.7325737     0.9746578    -0.0000052
  C        1.0983770    -0.3824860    -0.0000080
  H       -1.4207460     1.7232830     0.0000220
  H        1.3402470     1.8449540    -0.0000100
  H       -1.9477390    -0.7754960     0.0000400
  H        2.0958970    -0.8015150    -0.0000160
units angstrom
no_reorient  #important for SAPT in psi4, default
symmetry c1  #important for SAPT in psi4, default
}

set PROPERTIES_ORIGIN ["COM"]
properties('MP2/aug-cc-pvtz', properties = ['dipole'])
--------------------------------------------------------------------------

    Molecular point group: c1
  Charge       = 0
  Multiplicity = 1
  Basis Set: AUG-CC-PVTZ
    Blend: AUG-CC-PVTZ
  Basis Set: (AUG-CC-PVTZ AUX)
    Blend: AUG-CC-PVTZ-JKFIT

    Orbital Energies [Eh]
    ---------------------

    Doubly Occupied:

       1A    -15.645626     2A    -15.589793     3A    -11.285449
       4A    -11.256378     5A    -11.226656     6A     -1.371030
       7A     -1.092771     8A     -1.049594     9A     -0.827158
      10A     -0.799330    11A     -0.742509    12A     -0.608059
      13A     -0.604943    14A     -0.599750    15A     -0.557917
      16A     -0.463201    17A     -0.365788    18A     -0.343192

  @DF-RHF Final Energy:  -224.87206143088818

   => Energetics <=

    Nuclear Repulsion Energy =            162.2564632675884582
    One-Electron Energy =                -625.3987585161618199
    Two-Electron Energy =                 238.2702338176851811
    Total Energy =                       -224.8720614308881807
  Basis Set: (AUG-CC-PVTZ AUX)
    Blend: AUG-CC-PVTZ-RI
    Molecular point group: c1

    Geometry (in Angstrom), charge = 0, multiplicity = 1:

       Center              X                  Y                   Z               Mass
    ------------   -----------------  -----------------  -----------------  -----------------
         N           -1.020718832614    -0.348815972887     0.000026530814    14.003074004430
         N            0.035023167386    -1.187159972887    -0.000024469186    14.003074004430
         C           -0.679074832614     0.967677027113     0.000006530814    12.000000000000
         C            0.729436867386     1.002604827113    -0.000004669186    12.000000000000
         C            1.095240167386    -0.354538972887    -0.000007469186    12.000000000000
         H           -1.423882832614     1.751230027113     0.000022530814     1.007825032230
         H            1.337110167386     1.872901027113    -0.000009469186     1.007825032230
         H           -1.950875832614    -0.747548972887     0.000040530814     1.007825032230
         H            2.092760167386    -0.773567972887    -0.000015469186     1.007825032230

  Basis Set: AUG-CC-PVTZ
    Blend: AUG-CC-PVTZ
  Basis Set: (AUG-CC-PVTZ AUX)
    Blend: AUG-CC-PVTZ-JKFIT
	 Reference Energy          =    -224.8720614308881807 [Eh]
	 Singles Energy            =      -0.0000000000000000 [Eh]
	 Same-Spin Energy          =      -0.2459801186506560 [Eh]
	 Opposite-Spin Energy      =      -0.7465782411010448 [Eh]
	 Correlation Energy        =      -0.9925583597517007 [Eh]
	 Total Energy              =    -225.8646197906398925 [Eh]

	 ================> DF-SCS-MP2 Energies <==================
	-----------------------------------------------------------
	 SCS Same-Spin Scale       =       0.3333333333333333 [-]
	 SCS Opposite-Spin Scale   =       1.2000000000000000 [-]
	 SCS Same-Spin Energy      =      -0.0819933728835520 [Eh]
	 SCS Opposite-Spin Energy  =      -0.8958938893212537 [Eh]
	 SCS Correlation Energy    =      -0.9778872622048057 [Eh]
	 SCS Total Energy          =    -225.8499486930929834 [Eh]
	-----------------------------------------------------------

  Dipole Moment: [D]
     X:    -1.5374      Y:     1.7319      Z:     0.0001     Total:     2.3158

*** Psi4 exiting successfully. Buy a developer a beer!
