                               Psi4 1.3.2 release

  ==> Input File <==

--------------------------------------------------------------------------
#psi4
#
memory 32 gb

molecule  {
0 1
  N       -1.0175820    -0.3767630     0.0000260
  N        0.0237902    -1.1964768    -0.0000251
  C       -0.6759380     0.9397300     0.0000060
  C        0.7089440     0.9680670    -0.0000050
  C        1.0983770    -0.3824860    -0.0000080
  H       -1.4207460     1.7232830     0.0000220
  H        1.3402470     1.8449540    -0.0000100
  H       -1.9477390    -0.7754960     0.0000400
  H        2.0958970    -0.8015150    -0.0000160
units angstrom
no_reorient  #important for SAPT in psi4, default
symmetry c1  #important for SAPT in psi4, default
}

set PROPERTIES_ORIGIN ["COM"]
properties('MP2/aug-cc-pvtz', properties = ['dipole'])
--------------------------------------------------------------------------

    Molecular point group: c1
  Charge       = 0
  Multiplicity = 1
  Basis Set: AUG-CC-PVTZ
    Blend: AUG-CC-PVTZ
  Basis Set: (AUG-CC-PVTZ AUX)
    Blend: AUG-CC-PVTZ-JKFIT

    Orbital Energies [Eh]
    ---------------------

    Doubly Occupied:

       1A    -15.645175     2A    -15.588608     3A    -11.279186
       4A    -11.253964     5A    -11.225391     6A     -1.381413
       7A     -1.090978     8A     -1.054946     9A     -0.825677
      10A     -0.802477    11A     -0.742173    12A     -0.612602
      13A     -0.610410    14A     -0.592759    15A     -0.563728
      16A     -0.459427    17A     -0.364232    18A     -0.345350

  @DF-RHF Final Energy:  -224.87429507276684

   => Energetics <=

    Nuclear Repulsion Energy =            163.1155659608000121
    One-Electron Energy =                -627.1027277716298158
    Two-Electron Energy =                 239.1128667380629338
    Total Energy =                       -224.8742950727668415
  Basis Set: (AUG-CC-PVTZ AUX)
    Blend: AUG-CC-PVTZ-RI
    Molecular point group: c1

    Geometry (in Angstrom), charge = 0, multiplicity = 1:

       Center              X                  Y                   Z               Mass
    ------------   -----------------  -----------------  -----------------  -----------------
         N           -1.013593671602    -0.351487890695     0.000026516121    14.003074004430
         N            0.027778528398    -1.171201690695    -0.000024583879    14.003074004430
         C           -0.671949671602     0.965005109305     0.000006516121    12.000000000000
         C            0.712932328398     0.993342109305    -0.000004483879    12.000000000000
         C            1.102365328398    -0.357210890695    -0.000007483879    12.000000000000
         H           -1.416757671602     1.748558109305     0.000022516121     1.007825032230
         H            1.344235328398     1.870229109305    -0.000009483879     1.007825032230
         H           -1.943750671602    -0.750220890695     0.000040516121     1.007825032230
         H            2.099885328398    -0.776239890695    -0.000015483879     1.007825032230

  Basis Set: AUG-CC-PVTZ
    Blend: AUG-CC-PVTZ
  Basis Set: (AUG-CC-PVTZ AUX)
    Blend: AUG-CC-PVTZ-JKFIT
	 Reference Energy          =    -224.8742950727668415 [Eh]
	 Singles Energy            =      -0.0000000000000000 [Eh]
	 Same-Spin Energy          =      -0.2458160365000077 [Eh]
	 Opposite-Spin Energy      =      -0.7454893296883782 [Eh]
	 Correlation Energy        =      -0.9913053661883859 [Eh]
	 Total Energy              =    -225.8656004389552265 [Eh]

	 ================> DF-SCS-MP2 Energies <==================
	-----------------------------------------------------------
	 SCS Same-Spin Scale       =       0.3333333333333333 [-]
	 SCS Opposite-Spin Scale   =       1.2000000000000000 [-]
	 SCS Same-Spin Energy      =      -0.0819386788333359 [Eh]
	 SCS Opposite-Spin Energy  =      -0.8945871956260538 [Eh]
	 SCS Correlation Energy    =      -0.9765258744593898 [Eh]
	 SCS Total Energy          =    -225.8508209472262251 [Eh]
	-----------------------------------------------------------

  Dipole Moment: [D]
     X:    -1.5297      Y:     1.6983      Z:     0.0001     Total:     2.2857

*** Psi4 exiting successfully. Buy a developer a beer!
