                               Psi4 1.4a3.dev225

  ==> Input File <==

--------------------------------------------------------------------------
#psi4
#
memory 32 gb

molecule  {
0 1
  N       -1.0175820    -0.3767630     0.0000260
  N        0.0381600    -1.2151070    -0.0000250
  C       -0.6759380     0.9397300     0.0000060
  C        0.7089440     0.9680670    -0.0000050
  C        1.0983770    -0.3824860    -0.0000080
  H       -1.4207460     1.7232830     0.0000220
  H        1.3694605     1.8855319    -0.0000102
  H       -1.9477390    -0.7754960     0.0000400
  H        2.0958970    -0.8015150    -0.0000160
units angstrom
no_reorient  #important for SAPT in psi4, default
symmetry c1  #important for SAPT in psi4, default
}

set PROPERTIES_ORIGIN ["COM"]
properties('MP2/aug-cc-pvtz', properties = ['dipole'])
--------------------------------------------------------------------------

    Molecular point group: c1
  Charge       = 0
  Multiplicity = 1
  Basis Set: AUG-CC-PVTZ
    Blend: AUG-CC-PVTZ
  Basis Set: (AUG-CC-PVTZ AUX)
    Blend: AUG-CC-PVTZ-JKFIT

    Orbital Energies [Eh]
    ---------------------

    Doubly Occupied:

       1A    -15.643771     2A    -15.590905     3A    -11.282452
       4A    -11.256159     5A    -11.230982     6A     -1.371965
       7A     -1.092744     8A     -1.051732     9A     -0.823248
      10A     -0.797013    11A     -0.741239    12A     -0.607269
      13A     -0.606005    14A     -0.583808    15A     -0.563802
      16A     -0.462663    17A     -0.365165    18A     -0.346511

  @DF-RHF Final Energy:  -224.87100143234562

   => Energetics <=

    Nuclear Repulsion Energy =            162.3868160394117695
    One-Electron Energy =                -625.6807630085716028
    Two-Electron Energy =                 238.4229455368142112
    Total Energy =                       -224.8710014323456221
  Basis Set: (AUG-CC-PVTZ AUX)
    Blend: AUG-CC-PVTZ-RI
    Molecular point group: c1

    Geometry (in Angstrom), charge = 0, multiplicity = 1:

       Center              X                  Y                   Z               Mass
    ------------   -----------------  -----------------  -----------------  -----------------
         N           -1.016983914413    -0.348254602970     0.000026498502    14.003074004430
         N            0.038758085587    -1.186598602970    -0.000024501498    14.003074004430
         C           -0.675339914413     0.968238397030     0.000006498502    12.000000000000
         C            0.709542085587     0.996575397030    -0.000004501498    12.000000000000
         C            1.098975085587    -0.353977602970    -0.000007501498    12.000000000000
         H           -1.420147914413     1.751791397030     0.000022498502     1.007825032230
         H            1.370058585587     1.914040297030    -0.000009701498     1.007825032230
         H           -1.947140914413    -0.746987602970     0.000040498502     1.007825032230
         H            2.096495085587    -0.773006602970    -0.000015501498     1.007825032230

  Basis Set: AUG-CC-PVTZ
    Blend: AUG-CC-PVTZ
  Basis Set: (AUG-CC-PVTZ AUX)
    Blend: AUG-CC-PVTZ-JKFIT
	 Reference Energy          =    -224.8710014323456221 [Eh]
	 Singles Energy            =      -0.0000000000000000 [Eh]
	 Same-Spin Energy          =      -0.2459201581470243 [Eh]
	 Opposite-Spin Energy      =      -0.7465078617201210 [Eh]
	 Correlation Energy        =      -0.9924280198671452 [Eh]
	 Total Energy              =    -225.8634294522127561 [Eh]

	 ================> DF-SCS-MP2 Energies <==================
	-----------------------------------------------------------
	 SCS Same-Spin Scale       =       0.3333333333333333 [-]
	 SCS Opposite-Spin Scale   =       1.2000000000000000 [-]
	 SCS Same-Spin Energy      =      -0.0819733860490081 [Eh]
	 SCS Opposite-Spin Energy  =      -0.8958094340641451 [Eh]
	 SCS Correlation Energy    =      -0.9777828201131532 [Eh]
	 SCS Total Energy          =    -225.8487842524587847 [Eh]
	-----------------------------------------------------------

  Dipole Moment: [D]
     X:    -1.5236      Y:     1.7347      Z:     0.0001     Total:     2.3089

*** Psi4 exiting successfully. Buy a developer a beer!
