                               Psi4 1.3.2 release

  ==> Input File <==

--------------------------------------------------------------------------
#psi4
#
memory 32 gb

molecule  {
0 1
  N       -1.0175820    -0.3767630     0.0000260
  N        0.0381600    -1.2151070    -0.0000250
  C       -0.6745412     1.0364035     0.0000060
  C        0.7089440     0.9680670    -0.0000050
  C        1.0983770    -0.3824860    -0.0000080
  H       -1.4207460     1.7232830     0.0000220
  H        1.3402470     1.8449540    -0.0000100
  H       -1.9477390    -0.7754960     0.0000400
  H        2.0958970    -0.8015150    -0.0000160
units angstrom
no_reorient  #important for SAPT in psi4, default
symmetry c1  #important for SAPT in psi4, default
}

set PROPERTIES_ORIGIN ["COM"]
properties('MP2/aug-cc-pvtz', properties = ['dipole'])
--------------------------------------------------------------------------

    Molecular point group: c1
  Charge       = 0
  Multiplicity = 1
  Basis Set: AUG-CC-PVTZ
    Blend: AUG-CC-PVTZ
  Basis Set: (AUG-CC-PVTZ AUX)
    Blend: AUG-CC-PVTZ-JKFIT

    Orbital Energies [Eh]
    ---------------------

    Doubly Occupied:

       1A    -15.639564     2A    -15.600721     3A    -11.284323
       4A    -11.255839     5A    -11.233519     6A     -1.355615
       7A     -1.078538     8A     -1.054282     9A     -0.829130
      10A     -0.795440    11A     -0.741080    12A     -0.618722
      13A     -0.592690    14A     -0.583273    15A     -0.570410
      16A     -0.465323    17A     -0.362769    18A     -0.345850

  @DF-RHF Final Energy:  -224.85773601316885

   => Energetics <=

    Nuclear Repulsion Energy =            161.1048932318115305
    One-Electron Energy =                -623.1110850409606883
    Two-Electron Energy =                 237.1484557959803396
    Total Energy =                       -224.8577360131688465
  Basis Set: (AUG-CC-PVTZ AUX)
    Blend: AUG-CC-PVTZ-RI
    Molecular point group: c1

    Geometry (in Angstrom), charge = 0, multiplicity = 1:

       Center              X                  Y                   Z               Mass
    ------------   -----------------  -----------------  -----------------  -----------------
         N           -1.016797539160    -0.364704170190     0.000026495539    14.003074004430
         N            0.038944460840    -1.203048170190    -0.000024504461    14.003074004430
         C           -0.673756739160     1.048462329810     0.000006495539    12.000000000000
         C            0.709728460840     0.980125829810    -0.000004504461    12.000000000000
         C            1.099161460840    -0.370427170190    -0.000007504461    12.000000000000
         H           -1.419961539160     1.735341829810     0.000022495539     1.007825032230
         H            1.341031460840     1.857012829810    -0.000009504461     1.007825032230
         H           -1.946954539160    -0.763437170190     0.000040495539     1.007825032230
         H            2.096681460840    -0.789456170190    -0.000015504461     1.007825032230

  Basis Set: AUG-CC-PVTZ
    Blend: AUG-CC-PVTZ
  Basis Set: (AUG-CC-PVTZ AUX)
    Blend: AUG-CC-PVTZ-JKFIT
	 Reference Energy          =    -224.8577360131688465 [Eh]
	 Singles Energy            =      -0.0000000000000000 [Eh]
	 Same-Spin Energy          =      -0.2467550392434580 [Eh]
	 Opposite-Spin Energy      =      -0.7493832784334268 [Eh]
	 Correlation Energy        =      -0.9961383176768848 [Eh]
	 Total Energy              =    -225.8538743308457413 [Eh]

	 ================> DF-SCS-MP2 Energies <==================
	-----------------------------------------------------------
	 SCS Same-Spin Scale       =       0.3333333333333333 [-]
	 SCS Opposite-Spin Scale   =       1.2000000000000000 [-]
	 SCS Same-Spin Energy      =      -0.0822516797478193 [Eh]
	 SCS Opposite-Spin Energy  =      -0.8992599341201121 [Eh]
	 SCS Correlation Energy    =      -0.9815116138679314 [Eh]
	 SCS Total Energy          =    -225.8392476270367695 [Eh]
	-----------------------------------------------------------

  Dipole Moment: [D]
     X:    -1.3976      Y:     1.7701      Z:     0.0001     Total:     2.2553

*** Psi4 exiting successfully. Buy a developer a beer!
