                               Psi4 1.3.2 release

  ==> Input File <==

--------------------------------------------------------------------------
#psi4
#
memory 32 gb

molecule  {
0 1
  N       -1.0175820    -0.3767630     0.0000260
  N        0.0381600    -1.2151070    -0.0000250
  C       -0.6759380     0.9397300     0.0000060
  C        0.7089440     0.9680670    -0.0000050
  C        1.0983770    -0.3824860    -0.0000080
  H       -1.4896420     1.7957630     0.0000235
  H        1.3402470     1.8449540    -0.0000100
  H       -1.9477390    -0.7754960     0.0000400
  H        2.0958970    -0.8015150    -0.0000160
units angstrom
no_reorient  #important for SAPT in psi4, default
symmetry c1  #important for SAPT in psi4, default
}

set PROPERTIES_ORIGIN ["COM"]
properties('MP2/aug-cc-pvtz', properties = ['dipole'])
--------------------------------------------------------------------------

    Molecular point group: c1
  Charge       = 0
  Multiplicity = 1
  Basis Set: AUG-CC-PVTZ
    Blend: AUG-CC-PVTZ
  Basis Set: (AUG-CC-PVTZ AUX)
    Blend: AUG-CC-PVTZ-JKFIT

    Orbital Energies [Eh]
    ---------------------

    Doubly Occupied:

       1A    -15.644090     2A    -15.590911     3A    -11.292543
       4A    -11.256318     5A    -11.226071     6A     -1.372096
       7A     -1.091610     8A     -1.051756     9A     -0.822101
      10A     -0.798161    11A     -0.727490    12A     -0.606746
      13A     -0.606185    14A     -0.588481    15A     -0.557118
      16A     -0.462772    17A     -0.365358    18A     -0.346579

  @DF-RHF Final Energy:  -224.86587809323041

   => Energetics <=

    Nuclear Repulsion Energy =            162.1698435375107294
    One-Electron Energy =                -625.2586721282709732
    Two-Electron Energy =                 238.2229504975298653
    Total Energy =                       -224.8658780932304069
  Basis Set: (AUG-CC-PVTZ AUX)
    Blend: AUG-CC-PVTZ-RI
    Molecular point group: c1

    Geometry (in Angstrom), charge = 0, multiplicity = 1:

       Center              X                  Y                   Z               Mass
    ------------   -----------------  -----------------  -----------------  -----------------
         N           -1.015530638126    -0.348727162359     0.000026473320    14.003074004430
         N            0.040211361874    -1.187071162359    -0.000024526680    14.003074004430
         C           -0.673886638126     0.967765837641     0.000006473320    12.000000000000
         C            0.710995361874     0.996102837641    -0.000004526680    12.000000000000
         C            1.100428361874    -0.354450162359    -0.000007526680    12.000000000000
         H           -1.487590638126     1.823798837641     0.000023973320     1.007825032230
         H            1.342298361874     1.872989837641    -0.000009526680     1.007825032230
         H           -1.945687638126    -0.747460162359     0.000040473320     1.007825032230
         H            2.097948361874    -0.773479162359    -0.000015526680     1.007825032230

  Basis Set: AUG-CC-PVTZ
    Blend: AUG-CC-PVTZ
  Basis Set: (AUG-CC-PVTZ AUX)
    Blend: AUG-CC-PVTZ-JKFIT
	 Reference Energy          =    -224.8658780932304069 [Eh]
	 Singles Energy            =      -0.0000000000000000 [Eh]
	 Same-Spin Energy          =      -0.2460656872450473 [Eh]
	 Opposite-Spin Energy      =      -0.7470702925613701 [Eh]
	 Correlation Energy        =      -0.9931359798064174 [Eh]
	 Total Energy              =    -225.8590140730368319 [Eh]

	 ================> DF-SCS-MP2 Energies <==================
	-----------------------------------------------------------
	 SCS Same-Spin Scale       =       0.3333333333333333 [-]
	 SCS Opposite-Spin Scale   =       1.2000000000000000 [-]
	 SCS Same-Spin Energy      =      -0.0820218957483491 [Eh]
	 SCS Opposite-Spin Energy  =      -0.8964843510736441 [Eh]
	 SCS Correlation Energy    =      -0.9785062468219932 [Eh]
	 SCS Total Energy          =    -225.8443843400523861 [Eh]
	-----------------------------------------------------------

  Dipole Moment: [D]
     X:    -1.5188      Y:     1.7377      Z:     0.0001     Total:     2.3079

*** Psi4 exiting successfully. Buy a developer a beer!
