                               Psi4 1.3.2 release

  ==> Input File <==

--------------------------------------------------------------------------
#psi4
#
memory 32 gb

molecule  {
0 1
  N       -1.0175820    -0.3767630     0.0000260
  N        0.0988233    -1.2870358    -0.0000247
  C       -0.6759380     0.9397300     0.0000060
  C        0.7089440     0.9680670    -0.0000050
  C        1.0983770    -0.3824860    -0.0000080
  H       -1.4207460     1.7232830     0.0000220
  H        1.3402470     1.8449540    -0.0000100
  H       -1.9477390    -0.7754960     0.0000400
  H        2.0958970    -0.8015150    -0.0000160
units angstrom
no_reorient  #important for SAPT in psi4, default
symmetry c1  #important for SAPT in psi4, default
}

set PROPERTIES_ORIGIN ["COM"]
properties('MP2/aug-cc-pvtz', properties = ['dipole'])
--------------------------------------------------------------------------

    Molecular point group: c1
  Charge       = 0
  Multiplicity = 1
  Basis Set: AUG-CC-PVTZ
    Blend: AUG-CC-PVTZ
  Basis Set: (AUG-CC-PVTZ AUX)
    Blend: AUG-CC-PVTZ-JKFIT

    Orbital Energies [Eh]
    ---------------------

    Doubly Occupied:

       1A    -15.636289     2A    -15.598817     3A    -11.292419
       4A    -11.262832     5A    -11.225453     6A     -1.338166
       7A     -1.099156     8A     -1.044605     9A     -0.823884
      10A     -0.786819    11A     -0.744182    12A     -0.598473
      13A     -0.589527    14A     -0.584482    15A     -0.561998
      16A     -0.474078    17A     -0.372383    18A     -0.345057

  @DF-RHF Final Energy:  -224.86206391813201

   => Energetics <=

    Nuclear Repulsion Energy =            160.7228504235037860
    One-Electron Energy =                -622.4125831170507581
    Two-Electron Energy =                 236.8276687754149350
    Total Energy =                       -224.8620639181320087
  Basis Set: (AUG-CC-PVTZ AUX)
    Blend: AUG-CC-PVTZ-RI
    Molecular point group: c1

    Geometry (in Angstrom), charge = 0, multiplicity = 1:

       Center              X                  Y                   Z               Mass
    ------------   -----------------  -----------------  -----------------  -----------------
         N           -1.029036550205    -0.332849561165     0.000026433795    14.003074004430
         N            0.087368749795    -1.243122361165    -0.000024266205    14.003074004430
         C           -0.687392550205     0.983643438835     0.000006433795    12.000000000000
         C            0.697489449795     1.011980438835    -0.000004566205    12.000000000000
         C            1.086922449795    -0.338572561165    -0.000007566205    12.000000000000
         H           -1.432200550205     1.767196438835     0.000022433795     1.007825032230
         H            1.328792449795     1.888867438835    -0.000009566205     1.007825032230
         H           -1.959193550205    -0.731582561165     0.000040433795     1.007825032230
         H            2.084442449795    -0.757601561165    -0.000015566205     1.007825032230

  Basis Set: AUG-CC-PVTZ
    Blend: AUG-CC-PVTZ
  Basis Set: (AUG-CC-PVTZ AUX)
    Blend: AUG-CC-PVTZ-JKFIT
	 Reference Energy          =    -224.8620639181320087 [Eh]
	 Singles Energy            =      -0.0000000000000000 [Eh]
	 Same-Spin Energy          =      -0.2459754167896798 [Eh]
	 Opposite-Spin Energy      =      -0.7491042608113292 [Eh]
	 Correlation Energy        =      -0.9950796776010090 [Eh]
	 Total Energy              =    -225.8571435957330209 [Eh]

	 ================> DF-SCS-MP2 Energies <==================
	-----------------------------------------------------------
	 SCS Same-Spin Scale       =       0.3333333333333333 [-]
	 SCS Opposite-Spin Scale   =       1.2000000000000000 [-]
	 SCS Same-Spin Energy      =      -0.0819918055965599 [Eh]
	 SCS Opposite-Spin Energy  =      -0.8989251129735950 [Eh]
	 SCS Correlation Energy    =      -0.9809169185701549 [Eh]
	 SCS Total Energy          =    -225.8429808367021678 [Eh]
	-----------------------------------------------------------

  Dipole Moment: [D]
     X:    -1.4900      Y:     1.8667      Z:     0.0001     Total:     2.3885

*** Psi4 exiting successfully. Buy a developer a beer!
