                               Psi4 1.3.2 release

  ==> Input File <==

--------------------------------------------------------------------------
#psi4
#
memory 32 gb

molecule  {
0 1
  N       -1.0175820    -0.3767630     0.0000260
  N        0.0381600    -1.2151070    -0.0000250
  C       -0.6759380     0.9397300     0.0000060
  C        0.6089649     0.9660213    -0.0000042
  C        1.0983770    -0.3824860    -0.0000080
  H       -1.4207460     1.7232830     0.0000220
  H        1.3402470     1.8449540    -0.0000100
  H       -1.9477390    -0.7754960     0.0000400
  H        2.0958970    -0.8015150    -0.0000160
units angstrom
no_reorient  #important for SAPT in psi4, default
symmetry c1  #important for SAPT in psi4, default
}

set PROPERTIES_ORIGIN ["COM"]
properties('MP2/aug-cc-pvtz', properties = ['dipole'])
--------------------------------------------------------------------------

    Molecular point group: c1
  Charge       = 0
  Multiplicity = 1
  Basis Set: AUG-CC-PVTZ
    Blend: AUG-CC-PVTZ
  Basis Set: (AUG-CC-PVTZ AUX)
    Blend: AUG-CC-PVTZ-JKFIT

    Orbital Energies [Eh]
    ---------------------

    Doubly Occupied:

       1A    -15.633488     2A    -15.595205     3A    -11.267075
       4A    -11.256821     5A    -11.221249     6A     -1.373771
       7A     -1.092319     8A     -1.065208     9A     -0.816985
      10A     -0.797061    11A     -0.745114    12A     -0.610425
      13A     -0.608755    14A     -0.586115    15A     -0.561082
      16A     -0.460091    17A     -0.364442    18A     -0.356990

  @DF-RHF Final Energy:  -224.86157669066526

   => Energetics <=

    Nuclear Repulsion Energy =            163.8034787427351375
    One-Electron Energy =                -628.5057220418196948
    Two-Electron Energy =                 239.8406666084192977
    Total Energy =                       -224.8615766906652595
  Basis Set: (AUG-CC-PVTZ AUX)
    Blend: AUG-CC-PVTZ-RI
    Molecular point group: c1

    Geometry (in Angstrom), charge = 0, multiplicity = 1:

       Center              X                  Y                   Z               Mass
    ------------   -----------------  -----------------  -----------------  -----------------
         N           -0.998917521122    -0.347292723517     0.000026354440    14.003074004430
         N            0.056824478878    -1.185636723517    -0.000024645560    14.003074004430
         C           -0.657273521122     0.969200276483     0.000006354440    12.000000000000
         C            0.627629378878     0.995491576483    -0.000003845560    12.000000000000
         C            1.117041478878    -0.353015723517    -0.000007645560    12.000000000000
         H           -1.402081521122     1.752753276483     0.000022354440     1.007825032230
         H            1.358911478878     1.874424276483    -0.000009645560     1.007825032230
         H           -1.929074521122    -0.746025723517     0.000040354440     1.007825032230
         H            2.114561478878    -0.772044723517    -0.000015645560     1.007825032230

  Basis Set: AUG-CC-PVTZ
    Blend: AUG-CC-PVTZ
  Basis Set: (AUG-CC-PVTZ AUX)
    Blend: AUG-CC-PVTZ-JKFIT
	 Reference Energy          =    -224.8615766906652595 [Eh]
	 Singles Energy            =      -0.0000000000000000 [Eh]
	 Same-Spin Energy          =      -0.2450696154613959 [Eh]
	 Opposite-Spin Energy      =      -0.7449983260321174 [Eh]
	 Correlation Energy        =      -0.9900679414935132 [Eh]
	 Total Energy              =    -225.8516446321587807 [Eh]

	 ================> DF-SCS-MP2 Energies <==================
	-----------------------------------------------------------
	 SCS Same-Spin Scale       =       0.3333333333333333 [-]
	 SCS Opposite-Spin Scale   =       1.2000000000000000 [-]
	 SCS Same-Spin Energy      =      -0.0816898718204653 [Eh]
	 SCS Opposite-Spin Energy  =      -0.8939979912385408 [Eh]
	 SCS Correlation Energy    =      -0.9756878630590061 [Eh]
	 SCS Total Energy          =    -225.8372645537242533 [Eh]
	-----------------------------------------------------------

  Dipole Moment: [D]
     X:    -1.4431      Y:     1.7551      Z:     0.0001     Total:     2.2722

*** Psi4 exiting successfully. Buy a developer a beer!
