                               Psi4 1.3.2 release

  ==> Input File <==

--------------------------------------------------------------------------
#psi4
#
memory 32 gb

molecule  {
0 1
  N       -1.0175820    -0.3767630     0.0000260
  N        0.0381600    -1.2151070    -0.0000250
  C       -0.6759380     0.9397300     0.0000060
  C        0.7089440     0.9680670    -0.0000050
  C        1.0983770    -0.3824860    -0.0000080
  H       -1.3518500     1.6508030     0.0000205
  H        1.3402470     1.8449540    -0.0000100
  H       -1.9477390    -0.7754960     0.0000400
  H        2.0958970    -0.8015150    -0.0000160
units angstrom
no_reorient  #important for SAPT in psi4, default
symmetry c1  #important for SAPT in psi4, default
}

set PROPERTIES_ORIGIN ["COM"]
properties('MP2/aug-cc-pvtz', properties = ['dipole'])
--------------------------------------------------------------------------

    Molecular point group: c1
  Charge       = 0
  Multiplicity = 1
  Basis Set: AUG-CC-PVTZ
    Blend: AUG-CC-PVTZ
  Basis Set: (AUG-CC-PVTZ AUX)
    Blend: AUG-CC-PVTZ-JKFIT

    Orbital Energies [Eh]
    ---------------------

    Doubly Occupied:

       1A    -15.643115     2A    -15.590428     3A    -11.270834
       4A    -11.255267     5A    -11.225001     6A     -1.371344
       7A     -1.094163     8A     -1.054572     9A     -0.831513
      10A     -0.800991    11A     -0.758806    12A     -0.610632
      13A     -0.605332    14A     -0.596254    15A     -0.567781
      16A     -0.462740    17A     -0.364561    18A     -0.346149

  @DF-RHF Final Energy:  -224.86724269723445

   => Energetics <=

    Nuclear Repulsion Energy =            163.1135527564925098
    One-Electron Energy =                -627.0626299011097444
    Two-Electron Energy =                 239.0818344473828176
    Total Energy =                       -224.8672426972344454
  Basis Set: (AUG-CC-PVTZ AUX)
    Blend: AUG-CC-PVTZ-RI
    Molecular point group: c1

    Geometry (in Angstrom), charge = 0, multiplicity = 1:

       Center              X                  Y                   Z               Mass
    ------------   -----------------  -----------------  -----------------  -----------------
         N           -1.017571723302    -0.346579899041     0.000026517758    14.003074004430
         N            0.038170276698    -1.184923899041    -0.000024482242    14.003074004430
         C           -0.675927723302     0.969913100959     0.000006517758    12.000000000000
         C            0.708954276698     0.998250100959    -0.000004482242    12.000000000000
         C            1.098387276698    -0.352302899041    -0.000007482242    12.000000000000
         H           -1.351839723302     1.680986100959     0.000021017758     1.007825032230
         H            1.340257276698     1.875137100959    -0.000009482242     1.007825032230
         H           -1.947728723302    -0.745312899041     0.000040517758     1.007825032230
         H            2.095907276698    -0.771331899041    -0.000015482242     1.007825032230

  Basis Set: AUG-CC-PVTZ
    Blend: AUG-CC-PVTZ
  Basis Set: (AUG-CC-PVTZ AUX)
    Blend: AUG-CC-PVTZ-JKFIT
	 Reference Energy          =    -224.8672426972344454 [Eh]
	 Singles Energy            =      -0.0000000000000000 [Eh]
	 Same-Spin Energy          =      -0.2457087628917178 [Eh]
	 Opposite-Spin Energy      =      -0.7457645048358930 [Eh]
	 Correlation Energy        =      -0.9914732677276108 [Eh]
	 Total Energy              =    -225.8587159649620446 [Eh]

	 ================> DF-SCS-MP2 Energies <==================
	-----------------------------------------------------------
	 SCS Same-Spin Scale       =       0.3333333333333333 [-]
	 SCS Opposite-Spin Scale   =       1.2000000000000000 [-]
	 SCS Same-Spin Energy      =      -0.0819029209639059 [Eh]
	 SCS Opposite-Spin Energy  =      -0.8949174058030716 [Eh]
	 SCS Correlation Energy    =      -0.9768203267669775 [Eh]
	 SCS Total Energy          =    -225.8440630240014286 [Eh]
	-----------------------------------------------------------

  Dipole Moment: [D]
     X:    -1.5192      Y:     1.7340      Z:     0.0001     Total:     2.3054

*** Psi4 exiting successfully. Buy a developer a beer!
