                               Psi4 1.3.2 release

  ==> Input File <==

--------------------------------------------------------------------------
#psi4
#
memory 32 gb

molecule  {
0 1
  N       -1.0175820    -0.3767630     0.0000260
  N        0.0381600    -1.2151070    -0.0000250
  C       -0.6759380     0.9397300     0.0000060
  C        0.8522486     1.0013754    -0.0000062
  C        1.0983770    -0.3824860    -0.0000080
  H       -1.4207460     1.7232830     0.0000220
  H        1.3402470     1.8449540    -0.0000100
  H       -1.9477390    -0.7754960     0.0000400
  H        2.0958970    -0.8015150    -0.0000160
units angstrom
no_reorient  #important for SAPT in psi4, default
symmetry c1  #important for SAPT in psi4, default
}

set PROPERTIES_ORIGIN ["COM"]
properties('MP2/aug-cc-pvtz', properties = ['dipole'])
--------------------------------------------------------------------------

    Molecular point group: c1
  Charge       = 0
  Multiplicity = 1
  Basis Set: AUG-CC-PVTZ
    Blend: AUG-CC-PVTZ
  Basis Set: (AUG-CC-PVTZ AUX)
    Blend: AUG-CC-PVTZ-JKFIT

    Orbital Energies [Eh]
    ---------------------

    Doubly Occupied:

       1A    -15.656193     2A    -15.586229     3A    -11.300291
       4A    -11.260955     5A    -11.233257     6A     -1.369643
       7A     -1.095171     8A     -1.036457     9A     -0.841068
      10A     -0.800443    11A     -0.743197    12A     -0.635207
      13A     -0.604226    14A     -0.602692    15A     -0.524601
      16A     -0.465093    17A     -0.371264    18A     -0.329891

  @DF-RHF Final Energy:  -224.84200999129570

   => Energetics <=

    Nuclear Repulsion Energy =            160.6484285097033649
    One-Electron Energy =                -622.0691187777042614
    Two-Electron Energy =                 236.5786802767051995
    Total Energy =                       -224.8420099912956971
  Basis Set: (AUG-CC-PVTZ AUX)
    Blend: AUG-CC-PVTZ-RI
    Molecular point group: c1

    Geometry (in Angstrom), charge = 0, multiplicity = 1:

       Center              X                  Y                   Z               Mass
    ------------   -----------------  -----------------  -----------------  -----------------
         N           -1.041826308560    -0.353528248388     0.000026707187    14.003074004430
         N            0.013915691440    -1.191872248388    -0.000024292813    14.003074004430
         C           -0.700182308560     0.962964751612     0.000006707187    12.000000000000
         C            0.828004291440     1.024610151612    -0.000005492813    12.000000000000
         C            1.074132691440    -0.359251248388    -0.000007292813    12.000000000000
         H           -1.444990308560     1.746517751612     0.000022707187     1.007825032230
         H            1.316002691440     1.868188751612    -0.000009292813     1.007825032230
         H           -1.971983308560    -0.752261248388     0.000040707187     1.007825032230
         H            2.071652691440    -0.778280248388    -0.000015292813     1.007825032230

  Basis Set: AUG-CC-PVTZ
    Blend: AUG-CC-PVTZ
  Basis Set: (AUG-CC-PVTZ AUX)
    Blend: AUG-CC-PVTZ-JKFIT
	 Reference Energy          =    -224.8420099912956971 [Eh]
	 Singles Energy            =      -0.0000000000000000 [Eh]
	 Same-Spin Energy          =      -0.2468804513375528 [Eh]
	 Opposite-Spin Energy      =      -0.7493987286955361 [Eh]
	 Correlation Energy        =      -0.9962791800330889 [Eh]
	 Total Energy              =    -225.8382891713287961 [Eh]

	 ================> DF-SCS-MP2 Energies <==================
	-----------------------------------------------------------
	 SCS Same-Spin Scale       =       0.3333333333333333 [-]
	 SCS Opposite-Spin Scale   =       1.2000000000000000 [-]
	 SCS Same-Spin Energy      =      -0.0822934837791843 [Eh]
	 SCS Opposite-Spin Energy  =      -0.8992784744346434 [Eh]
	 SCS Correlation Energy    =      -0.9815719582138276 [Eh]
	 SCS Total Energy          =    -225.8235819495095313 [Eh]
	-----------------------------------------------------------

  Dipole Moment: [D]
     X:    -1.6136      Y:     1.6714      Z:     0.0001     Total:     2.3232

*** Psi4 exiting successfully. Buy a developer a beer!
