                               Psi4 1.4a3.dev225

  ==> Input File <==

--------------------------------------------------------------------------
#psi4
#
memory 32 gb

molecule  {
0 1
  N       -1.0175820    -0.3767630     0.0000260
  N        0.0381600    -1.2151070    -0.0000250
  C       -0.6759380     0.9397300     0.0000060
  C        0.7089440     0.9680670    -0.0000050
  C        1.0983770    -0.3824860    -0.0000080
  H       -1.4207460     1.7232830     0.0000220
  H        1.3402470     1.8449540    -0.0000100
  H       -1.9293568    -0.7676160     0.0000397
  H        2.0958970    -0.8015150    -0.0000160
units angstrom
no_reorient  #important for SAPT in psi4, default
symmetry c1  #important for SAPT in psi4, default
}

set PROPERTIES_ORIGIN ["COM"]
properties('MP2/aug-cc-pvtz', properties = ['dipole'])
--------------------------------------------------------------------------

    Molecular point group: c1
  Charge       = 0
  Multiplicity = 1
  Basis Set: AUG-CC-PVTZ
    Blend: AUG-CC-PVTZ
  Basis Set: (AUG-CC-PVTZ AUX)
    Blend: AUG-CC-PVTZ-JKFIT

    Orbital Energies [Eh]
    ---------------------

    Doubly Occupied:

       1A    -15.641710     2A    -15.590705     3A    -11.282241
       4A    -11.255910     5A    -11.225598     6A     -1.372705
       7A     -1.094489     8A     -1.053698     9A     -0.828799
      10A     -0.799557    11A     -0.743616    12A     -0.609912
      13A     -0.606011    14A     -0.592827    15A     -0.564288
      16A     -0.462957    17A     -0.365286    18A     -0.346419

  @DF-RHF Final Energy:  -224.87395654264068

   => Energetics <=

    Nuclear Repulsion Energy =            162.7258200198506870
    One-Electron Energy =                -626.3260978473995237
    Two-Electron Energy =                 238.7263212849081526
    Total Energy =                       -224.8739565426406841
  Basis Set: (AUG-CC-PVTZ AUX)
    Blend: AUG-CC-PVTZ-RI
    Molecular point group: c1

    Geometry (in Angstrom), charge = 0, multiplicity = 1:

       Center              X                  Y                   Z               Mass
    ------------   -----------------  -----------------  -----------------  -----------------
         N           -1.016823472545    -0.347770255555     0.000026499983    14.003074004430
         N            0.038918527455    -1.186114255555    -0.000024500017    14.003074004430
         C           -0.675179472545     0.968722744445     0.000006499983    12.000000000000
         C            0.709702527455     0.997059744445    -0.000004500017    12.000000000000
         C            1.099135527455    -0.353493255555    -0.000007500017    12.000000000000
         H           -1.419987472545     1.752275744445     0.000022499983     1.007825032230
         H            1.341005527455     1.873946744445    -0.000009500017     1.007825032230
         H           -1.928598272545    -0.738623255555     0.000040199983     1.007825032230
         H            2.096655527455    -0.772522255555    -0.000015500017     1.007825032230

  Basis Set: AUG-CC-PVTZ
    Blend: AUG-CC-PVTZ
  Basis Set: (AUG-CC-PVTZ AUX)
    Blend: AUG-CC-PVTZ-JKFIT
	 Reference Energy          =    -224.8739565426406841 [Eh]
	 Singles Energy            =      -0.0000000000000000 [Eh]
	 Same-Spin Energy          =      -0.2456793852350506 [Eh]
	 Opposite-Spin Energy      =      -0.7458470208007433 [Eh]
	 Correlation Energy        =      -0.9915264060357939 [Eh]
	 Total Energy              =    -225.8654829486764868 [Eh]

	 ================> DF-SCS-MP2 Energies <==================
	-----------------------------------------------------------
	 SCS Same-Spin Scale       =       0.3333333333333333 [-]
	 SCS Opposite-Spin Scale   =       1.2000000000000000 [-]
	 SCS Same-Spin Energy      =      -0.0818931284116835 [Eh]
	 SCS Opposite-Spin Energy  =      -0.8950164249608920 [Eh]
	 SCS Correlation Energy    =      -0.9769095533725755 [Eh]
	 SCS Total Energy          =    -225.8508660960132488 [Eh]
	-----------------------------------------------------------

  Dipole Moment: [D]
     X:    -1.4976      Y:     1.7528      Z:     0.0001     Total:     2.3055

*** Psi4 exiting successfully. Buy a developer a beer!
