                               Psi4 1.3.2 release

  ==> Input File <==

--------------------------------------------------------------------------
#psi4
#
memory 32 gb

molecule  {
0 1
  N       -1.0175820    -0.3767630     0.0000260
  N        0.0381600    -1.2151070    -0.0000250
  C       -0.7686041     0.9603550     0.0000066
  C        0.7089440     0.9680670    -0.0000050
  C        1.0983770    -0.3824860    -0.0000080
  H       -1.4207460     1.7232830     0.0000220
  H        1.3402470     1.8449540    -0.0000100
  H       -1.9477390    -0.7754960     0.0000400
  H        2.0958970    -0.8015150    -0.0000160
units angstrom
no_reorient  #important for SAPT in psi4, default
symmetry c1  #important for SAPT in psi4, default
}

set PROPERTIES_ORIGIN ["COM"]
properties('MP2/aug-cc-pvtz', properties = ['dipole'])
--------------------------------------------------------------------------

    Molecular point group: c1
  Charge       = 0
  Multiplicity = 1
  Basis Set: AUG-CC-PVTZ
    Blend: AUG-CC-PVTZ
  Basis Set: (AUG-CC-PVTZ AUX)
    Blend: AUG-CC-PVTZ-JKFIT

    Orbital Energies [Eh]
    ---------------------

    Doubly Occupied:

       1A    -15.652691     2A    -15.591457     3A    -11.287394
       4A    -11.256958     5A    -11.233725     6A     -1.369791
       7A     -1.100143     8A     -1.036626     9A     -0.831751
      10A     -0.797654    11A     -0.757201    12A     -0.611263
      13A     -0.603704    14A     -0.596740    15A     -0.551397
      16A     -0.464233    17A     -0.367850    18A     -0.333963

  @DF-RHF Final Energy:  -224.85720385022432

   => Energetics <=

    Nuclear Repulsion Energy =            161.3917266815805931
    One-Electron Energy =                -623.6087792418373965
    Two-Electron Energy =                 237.3598487100324519
    Total Energy =                       -224.8572038502243231
  Basis Set: (AUG-CC-PVTZ AUX)
    Blend: AUG-CC-PVTZ-RI
    Molecular point group: c1

    Geometry (in Angstrom), charge = 0, multiplicity = 1:

       Center              X                  Y                   Z               Mass
    ------------   -----------------  -----------------  -----------------  -----------------
         N           -1.000207340220    -0.351291233271     0.000026389715    14.003074004430
         N            0.055534659780    -1.189635233271    -0.000024610285    14.003074004430
         C           -0.751229440220     0.985826766729     0.000006989715    12.000000000000
         C            0.726318659780     0.993538766729    -0.000004610285    12.000000000000
         C            1.115751659780    -0.357014233271    -0.000007610285    12.000000000000
         H           -1.403371340220     1.748754766729     0.000022389715     1.007825032230
         H            1.357621659780     1.870425766729    -0.000009610285     1.007825032230
         H           -1.930364340220    -0.750024233271     0.000040389715     1.007825032230
         H            2.113271659780    -0.776043233271    -0.000015610285     1.007825032230

  Basis Set: AUG-CC-PVTZ
    Blend: AUG-CC-PVTZ
  Basis Set: (AUG-CC-PVTZ AUX)
    Blend: AUG-CC-PVTZ-JKFIT
	 Reference Energy          =    -224.8572038502243231 [Eh]
	 Singles Energy            =      -0.0000000000000000 [Eh]
	 Same-Spin Energy          =      -0.2468981406815522 [Eh]
	 Opposite-Spin Energy      =      -0.7486188470500477 [Eh]
	 Correlation Energy        =      -0.9955169877315999 [Eh]
	 Total Energy              =    -225.8527208379559283 [Eh]

	 ================> DF-SCS-MP2 Energies <==================
	-----------------------------------------------------------
	 SCS Same-Spin Scale       =       0.3333333333333333 [-]
	 SCS Opposite-Spin Scale   =       1.2000000000000000 [-]
	 SCS Same-Spin Energy      =      -0.0822993802271841 [Eh]
	 SCS Opposite-Spin Energy  =      -0.8983426164600572 [Eh]
	 SCS Correlation Energy    =      -0.9806419966872413 [Eh]
	 SCS Total Energy          =    -225.8378458469115628 [Eh]
	-----------------------------------------------------------

  Dipole Moment: [D]
     X:    -1.5601      Y:     1.6462      Z:     0.0001     Total:     2.2680

*** Psi4 exiting successfully. Buy a developer a beer!
