                               Psi4 1.4a3.dev225

  ==> Input File <==

--------------------------------------------------------------------------
#psi4
#
memory 32 gb

molecule  {
0 1
  N       -1.0175820    -0.3767630     0.0000260
  N        0.0381600    -1.2151070    -0.0000250
  C       -0.6759380     0.9397300     0.0000060
  C        0.6889482     0.9676579    -0.0000048
  C        1.0983770    -0.3824860    -0.0000080
  H       -1.4207460     1.7232830     0.0000220
  H        1.3402470     1.8449540    -0.0000100
  H       -1.9477390    -0.7754960     0.0000400
  H        2.0958970    -0.8015150    -0.0000160
units angstrom
no_reorient  #important for SAPT in psi4, default
symmetry c1  #important for SAPT in psi4, default
}

set PROPERTIES_ORIGIN ["COM"]
properties('MP2/aug-cc-pvtz', properties = ['dipole'])
--------------------------------------------------------------------------

    Molecular point group: c1
  Charge       = 0
  Multiplicity = 1
  Basis Set: AUG-CC-PVTZ
    Blend: AUG-CC-PVTZ
  Basis Set: (AUG-CC-PVTZ AUX)
    Blend: AUG-CC-PVTZ-JKFIT

    Orbital Energies [Eh]
    ---------------------

    Doubly Occupied:

       1A    -15.641492     2A    -15.591479     3A    -11.279256
       4A    -11.255841     5A    -11.224575     6A     -1.371955
       7A     -1.092049     8A     -1.055275     9A     -0.822889
      10A     -0.799212    11A     -0.743015    12A     -0.608202
      13A     -0.606164    14A     -0.587176    15A     -0.568393
      16A     -0.462276    17A     -0.363646    18A     -0.349199

  @DF-RHF Final Energy:  -224.87351206211807

   => Energetics <=

    Nuclear Repulsion Energy =            162.8392893316525658
    One-Electron Energy =                -626.5814126699892768
    Two-Electron Energy =                 238.8686112762186156
    Total Energy =                       -224.8735120621180670
  Basis Set: (AUG-CC-PVTZ AUX)
    Blend: AUG-CC-PVTZ-RI
    Molecular point group: c1

    Geometry (in Angstrom), charge = 0, multiplicity = 1:

       Center              X                  Y                   Z               Mass
    ------------   -----------------  -----------------  -----------------  -----------------
         N           -1.013024452323    -0.347581376319     0.000026460265    14.003074004430
         N            0.042717547677    -1.185925376319    -0.000024539735    14.003074004430
         C           -0.671380452323     0.968911623681     0.000006460265    12.000000000000
         C            0.693505747677     0.996839523681    -0.000004339735    12.000000000000
         C            1.102934547677    -0.353304376319    -0.000007539735    12.000000000000
         H           -1.416188452323     1.752464623681     0.000022460265     1.007825032230
         H            1.344804547677     1.874135623681    -0.000009539735     1.007825032230
         H           -1.943181452323    -0.746314376319     0.000040460265     1.007825032230
         H            2.100454547677    -0.772333376319    -0.000015539735     1.007825032230

  Basis Set: AUG-CC-PVTZ
    Blend: AUG-CC-PVTZ
  Basis Set: (AUG-CC-PVTZ AUX)
    Blend: AUG-CC-PVTZ-JKFIT
	 Reference Energy          =    -224.8735120621180670 [Eh]
	 Singles Energy            =      -0.0000000000000000 [Eh]
	 Same-Spin Energy          =      -0.2456777485245757 [Eh]
	 Opposite-Spin Energy      =      -0.7458894464106062 [Eh]
	 Correlation Energy        =      -0.9915671949351819 [Eh]
	 Total Energy              =    -225.8650792570532531 [Eh]

	 ================> DF-SCS-MP2 Energies <==================
	-----------------------------------------------------------
	 SCS Same-Spin Scale       =       0.3333333333333333 [-]
	 SCS Opposite-Spin Scale   =       1.2000000000000000 [-]
	 SCS Same-Spin Energy      =      -0.0818925828415252 [Eh]
	 SCS Opposite-Spin Energy  =      -0.8950673356927273 [Eh]
	 SCS Correlation Energy    =      -0.9769599185342526 [Eh]
	 SCS Total Energy          =    -225.8504719806523156 [Eh]
	-----------------------------------------------------------

  Dipole Moment: [D]
     X:    -1.5079      Y:     1.7439      Z:     0.0001     Total:     2.3055

*** Psi4 exiting successfully. Buy a developer a beer!
