                               Psi4 1.3.2 release

  ==> Input File <==

--------------------------------------------------------------------------
#psi4
#
memory 32 gb

molecule  {
0 1
  N       -1.0175820    -0.3767630     0.0000260
  N        0.0381600    -1.2151070    -0.0000250
  C       -0.6759380     0.9397300     0.0000060
  C        0.7071114     1.0163814    -0.0000044
  C        1.0983770    -0.3824860    -0.0000080
  H       -1.4207460     1.7232830     0.0000220
  H        1.3402470     1.8449540    -0.0000100
  H       -1.9477390    -0.7754960     0.0000400
  H        2.0958970    -0.8015150    -0.0000160
units angstrom
no_reorient  #important for SAPT in psi4, default
symmetry c1  #important for SAPT in psi4, default
}

set PROPERTIES_ORIGIN ["COM"]
properties('MP2/aug-cc-pvtz', properties = ['dipole'])
--------------------------------------------------------------------------

    Molecular point group: c1
  Charge       = 0
  Multiplicity = 1
  Basis Set: AUG-CC-PVTZ
    Blend: AUG-CC-PVTZ
  Basis Set: (AUG-CC-PVTZ AUX)
    Blend: AUG-CC-PVTZ-JKFIT

    Orbital Energies [Eh]
    ---------------------

    Doubly Occupied:

       1A    -15.641832     2A    -15.592834     3A    -11.283641
       4A    -11.261145     5A    -11.227322     6A     -1.369748
       7A     -1.090921     8A     -1.049769     9A     -0.822729
      10A     -0.801919    11A     -0.742050    12A     -0.612350
      13A     -0.604128    14A     -0.600397    15A     -0.556342
      16A     -0.462666    17A     -0.360276    18A     -0.348652

  @DF-RHF Final Energy:  -224.87095601892239

   => Energetics <=

    Nuclear Repulsion Energy =            161.9352769351497727
    One-Electron Energy =                -624.7550258124294942
    Two-Electron Energy =                 237.9487928583573364
    Total Energy =                       -224.8709560189223851
  Basis Set: (AUG-CC-PVTZ AUX)
    Blend: AUG-CC-PVTZ-RI
    Molecular point group: c1

    Geometry (in Angstrom), charge = 0, multiplicity = 1:

       Center              X                  Y                   Z               Mass
    ------------   -----------------  -----------------  -----------------  -----------------
         N           -1.016227958715    -0.356174908498     0.000026389715    14.003074004430
         N            0.039514041285    -1.194518908498    -0.000024610285    14.003074004430
         C           -0.674583958715     0.960318091502     0.000006389715    12.000000000000
         C            0.708465441285     1.036969491502    -0.000004010285    12.000000000000
         C            1.099731041285    -0.361897908498    -0.000007610285    12.000000000000
         H           -1.419391958715     1.743871091502     0.000022389715     1.007825032230
         H            1.341601041285     1.865542091502    -0.000009610285     1.007825032230
         H           -1.946384958715    -0.754907908498     0.000040389715     1.007825032230
         H            2.097251041285    -0.780926908498    -0.000015610285     1.007825032230

  Basis Set: AUG-CC-PVTZ
    Blend: AUG-CC-PVTZ
  Basis Set: (AUG-CC-PVTZ AUX)
    Blend: AUG-CC-PVTZ-JKFIT
	 Reference Energy          =    -224.8709560189223851 [Eh]
	 Singles Energy            =      -0.0000000000000000 [Eh]
	 Same-Spin Energy          =      -0.2453637866959497 [Eh]
	 Opposite-Spin Energy      =      -0.7460853026284719 [Eh]
	 Correlation Energy        =      -0.9914490893244217 [Eh]
	 Total Energy              =    -225.8624051082468043 [Eh]

	 ================> DF-SCS-MP2 Energies <==================
	-----------------------------------------------------------
	 SCS Same-Spin Scale       =       0.3333333333333333 [-]
	 SCS Opposite-Spin Scale   =       1.2000000000000000 [-]
	 SCS Same-Spin Energy      =      -0.0817879288986499 [Eh]
	 SCS Opposite-Spin Energy  =      -0.8953023631541663 [Eh]
	 SCS Correlation Energy    =      -0.9770902920528162 [Eh]
	 SCS Total Energy          =    -225.8480463109752066 [Eh]
	-----------------------------------------------------------

  Dipole Moment: [D]
     X:    -1.5054      Y:     1.7171      Z:     0.0001     Total:     2.2835

*** Psi4 exiting successfully. Buy a developer a beer!
