                               Psi4 1.3.2 release

  ==> Input File <==

--------------------------------------------------------------------------
#psi4
#
memory 32 gb

molecule  {
0 1
  N       -1.0175820    -0.3767630     0.0000260
  N        0.0381600    -1.2151070    -0.0000250
  C       -0.6759380     0.9397300     0.0000060
  C        0.5699061     0.9199617    -0.0000039
  C        1.0983770    -0.3824860    -0.0000080
  H       -1.4207460     1.7232830     0.0000220
  H        1.3402470     1.8449540    -0.0000100
  H       -1.9477390    -0.7754960     0.0000400
  H        2.0958970    -0.8015150    -0.0000160
units angstrom
no_reorient  #important for SAPT in psi4, default
symmetry c1  #important for SAPT in psi4, default
}

set PROPERTIES_ORIGIN ["COM"]
properties('MP2/aug-cc-pvtz', properties = ['dipole'])
--------------------------------------------------------------------------

    Molecular point group: c1
  Charge       = 0
  Multiplicity = 1
  Basis Set: AUG-CC-PVTZ
    Blend: AUG-CC-PVTZ
  Basis Set: (AUG-CC-PVTZ AUX)
    Blend: AUG-CC-PVTZ-JKFIT

    Orbital Energies [Eh]
    ---------------------

    Doubly Occupied:

       1A    -15.631500     2A    -15.595829     3A    -11.260209
       4A    -11.253534     5A    -11.218572     6A     -1.378492
       7A     -1.095679     8A     -1.072235     9A     -0.821148
      10A     -0.791946    11A     -0.747126    12A     -0.613555
      13A     -0.613144    14A     -0.594450    15A     -0.542232
      16A     -0.458066    17A     -0.370849    18A     -0.357763

  @DF-RHF Final Energy:  -224.84160993363335

   => Energetics <=

    Nuclear Repulsion Energy =            164.9915026336744859
    One-Electron Energy =                -630.8335672425640723
    Two-Electron Energy =                 241.0004546752562362
    Total Energy =                       -224.8416099336333502
  Basis Set: (AUG-CC-PVTZ AUX)
    Blend: AUG-CC-PVTZ-RI
    Molecular point group: c1

    Geometry (in Angstrom), charge = 0, multiplicity = 1:

       Center              X                  Y                   Z               Mass
    ------------   -----------------  -----------------  -----------------  -----------------
         N           -0.992028585501    -0.339169032592     0.000026301528    14.003074004430
         N            0.063713414499    -1.177513032592    -0.000024698472    14.003074004430
         C           -0.650384585501     0.977323967408     0.000006301528    12.000000000000
         C            0.595459514499     0.957555667408    -0.000003598472    12.000000000000
         C            1.123930414499    -0.344892032592    -0.000007698472    12.000000000000
         H           -1.395192585501     1.760876967408     0.000022301528     1.007825032230
         H            1.365800414499     1.882547967408    -0.000009698472     1.007825032230
         H           -1.922185585501    -0.737902032592     0.000040301528     1.007825032230
         H            2.121450414499    -0.763921032592    -0.000015698472     1.007825032230

  Basis Set: AUG-CC-PVTZ
    Blend: AUG-CC-PVTZ
  Basis Set: (AUG-CC-PVTZ AUX)
    Blend: AUG-CC-PVTZ-JKFIT
	 Reference Energy          =    -224.8416099336333502 [Eh]
	 Singles Energy            =      -0.0000000000000000 [Eh]
	 Same-Spin Energy          =      -0.2454521137514520 [Eh]
	 Opposite-Spin Energy      =      -0.7453474384873657 [Eh]
	 Correlation Energy        =      -0.9907995522388178 [Eh]
	 Total Energy              =    -225.8324094858721764 [Eh]

	 ================> DF-SCS-MP2 Energies <==================
	-----------------------------------------------------------
	 SCS Same-Spin Scale       =       0.3333333333333333 [-]
	 SCS Opposite-Spin Scale   =       1.2000000000000000 [-]
	 SCS Same-Spin Energy      =      -0.0818173712504840 [Eh]
	 SCS Opposite-Spin Energy  =      -0.8944169261848388 [Eh]
	 SCS Correlation Energy    =      -0.9762342974353229 [Eh]
	 SCS Total Energy          =    -225.8178442310686762 [Eh]
	-----------------------------------------------------------

  Dipole Moment: [D]
     X:    -1.4534      Y:     1.7470      Z:     0.0001     Total:     2.2725

*** Psi4 exiting successfully. Buy a developer a beer!
