                               Psi4 1.3.2 release

  ==> Input File <==

--------------------------------------------------------------------------
#psi4
#
memory 32 gb

molecule  {
0 1
  N       -1.0175820    -0.3767630     0.0000260
  N        0.0381600    -1.2151070    -0.0000250
  C       -0.6759380     0.9397300     0.0000060
  C        0.7089440     0.9680670    -0.0000050
  C        0.9550724    -0.4157944    -0.0000069
  H       -1.4207460     1.7232830     0.0000220
  H        1.3402470     1.8449540    -0.0000100
  H       -1.9477390    -0.7754960     0.0000400
  H        2.0958970    -0.8015150    -0.0000160
units angstrom
no_reorient  #important for SAPT in psi4, default
symmetry c1  #important for SAPT in psi4, default
}

set PROPERTIES_ORIGIN ["COM"]
properties('MP2/aug-cc-pvtz', properties = ['dipole'])
--------------------------------------------------------------------------

    Molecular point group: c1
  Charge       = 0
  Multiplicity = 1
  Basis Set: AUG-CC-PVTZ
    Blend: AUG-CC-PVTZ
  Basis Set: (AUG-CC-PVTZ AUX)
    Blend: AUG-CC-PVTZ-JKFIT

    Orbital Energies [Eh]
    ---------------------

    Doubly Occupied:

       1A    -15.633538     2A    -15.579869     3A    -11.285796
       4A    -11.251974     5A    -11.221643     6A     -1.401003
       7A     -1.122620     8A     -1.054645     9A     -0.826872
      10A     -0.783244    11A     -0.752287    12A     -0.623273
      13A     -0.607670    14A     -0.597718    15A     -0.539121
      16A     -0.458298    17A     -0.383488    18A     -0.350819

  @DF-RHF Final Energy:  -224.84906219760899

   => Energetics <=

    Nuclear Repulsion Energy =            165.2768394930103568
    One-Electron Energy =                -631.3040466648321853
    Two-Electron Energy =                 241.1781449742128416
    Total Energy =                       -224.8490621976089869
  Basis Set: (AUG-CC-PVTZ AUX)
    Blend: AUG-CC-PVTZ-RI
    Molecular point group: c1

    Geometry (in Angstrom), charge = 0, multiplicity = 1:

       Center              X                  Y                   Z               Mass
    ------------   -----------------  -----------------  -----------------  -----------------
         N           -0.991276052868    -0.341778813012     0.000026301528    14.003074004430
         N            0.064465947132    -1.180122813012    -0.000024698472    14.003074004430
         C           -0.649632052868     0.974714186988     0.000006301528    12.000000000000
         C            0.735249947132     1.003051186988    -0.000004698472    12.000000000000
         C            0.981378347132    -0.380810213012    -0.000006598472    12.000000000000
         H           -1.394440052868     1.758267186988     0.000022301528     1.007825032230
         H            1.366552947132     1.879938186988    -0.000009698472     1.007825032230
         H           -1.921433052868    -0.740511813012     0.000040301528     1.007825032230
         H            2.122202947132    -0.766530813012    -0.000015698472     1.007825032230

  Basis Set: AUG-CC-PVTZ
    Blend: AUG-CC-PVTZ
  Basis Set: (AUG-CC-PVTZ AUX)
    Blend: AUG-CC-PVTZ-JKFIT
	 Reference Energy          =    -224.8490621976089869 [Eh]
	 Singles Energy            =      -0.0000000000000000 [Eh]
	 Same-Spin Energy          =      -0.2434635412067654 [Eh]
	 Opposite-Spin Energy      =      -0.7414767679920573 [Eh]
	 Correlation Energy        =      -0.9849403091988227 [Eh]
	 Total Energy              =    -225.8340025068078205 [Eh]

	 ================> DF-SCS-MP2 Energies <==================
	-----------------------------------------------------------
	 SCS Same-Spin Scale       =       0.3333333333333333 [-]
	 SCS Opposite-Spin Scale   =       1.2000000000000000 [-]
	 SCS Same-Spin Energy      =      -0.0811545137355885 [Eh]
	 SCS Opposite-Spin Energy  =      -0.8897721215904687 [Eh]
	 SCS Correlation Energy    =      -0.9709266353260572 [Eh]
	 SCS Total Energy          =    -225.8199888329350529 [Eh]
	-----------------------------------------------------------

  Dipole Moment: [D]
     X:    -1.6078      Y:     1.7432      Z:     0.0001     Total:     2.3714

*** Psi4 exiting successfully. Buy a developer a beer!
