                               Psi4 1.3.2 release

  ==> Input File <==

--------------------------------------------------------------------------
#psi4
#
memory 32 gb

molecule  {
0 1
  N       -1.0175820    -0.3767630     0.0000260
  N        0.0381600    -1.2151070    -0.0000250
  C       -0.6759380     0.9397300     0.0000060
  C        0.7089440     0.9680670    -0.0000050
  C        1.2556700    -0.2589590    -0.0000055
  H       -1.4207460     1.7232830     0.0000220
  H        1.3402470     1.8449540    -0.0000100
  H       -1.9477390    -0.7754960     0.0000400
  H        2.0958970    -0.8015150    -0.0000160
units angstrom
no_reorient  #important for SAPT in psi4, default
symmetry c1  #important for SAPT in psi4, default
}

set PROPERTIES_ORIGIN ["COM"]
properties('MP2/aug-cc-pvtz', properties = ['dipole'])
--------------------------------------------------------------------------

    Molecular point group: c1
  Charge       = 0
  Multiplicity = 1
  Basis Set: AUG-CC-PVTZ
    Blend: AUG-CC-PVTZ
  Basis Set: (AUG-CC-PVTZ AUX)
    Blend: AUG-CC-PVTZ-JKFIT

    Orbital Energies [Eh]
    ---------------------

    Doubly Occupied:

       1A    -15.663050     2A    -15.597557     3A    -11.278301
       4A    -11.260278     5A    -11.230605     6A     -1.355655
       7A     -1.074512     8A     -1.050070     9A     -0.846245
      10A     -0.802220    11A     -0.738822    12A     -0.617324
      13A     -0.598874    14A     -0.595565    15A     -0.569745
      16A     -0.439219    17A     -0.378973    18A     -0.318785

  @DF-RHF Final Energy:  -224.82191961852070

   => Energetics <=

    Nuclear Repulsion Energy =            160.4013958323891984
    One-Electron Energy =                -621.6150308213974540
    Two-Electron Energy =                 236.3917153704875602
    Total Energy =                       -224.8219196185206954
  Basis Set: (AUG-CC-PVTZ AUX)
    Blend: AUG-CC-PVTZ-RI
    Molecular point group: c1

    Geometry (in Angstrom), charge = 0, multiplicity = 1:

       Center              X                  Y                   Z               Mass
    ------------   -----------------  -----------------  -----------------  -----------------
         N           -1.044293491040    -0.369440414844     0.000026054606    14.003074004430
         N            0.011448508960    -1.207784414844    -0.000024945394    14.003074004430
         C           -0.702649491040     0.947052585156     0.000006054606    12.000000000000
         C            0.682232508960     0.975389585156    -0.000004945394    12.000000000000
         C            1.228958508960    -0.251636414844    -0.000005445394    12.000000000000
         H           -1.447457491040     1.730605585156     0.000022054606     1.007825032230
         H            1.313535508960     1.852276585156    -0.000009945394     1.007825032230
         H           -1.974450491040    -0.768173414844     0.000040054606     1.007825032230
         H            2.069185508960    -0.794192414844    -0.000015945394     1.007825032230

  Basis Set: AUG-CC-PVTZ
    Blend: AUG-CC-PVTZ
  Basis Set: (AUG-CC-PVTZ AUX)
    Blend: AUG-CC-PVTZ-JKFIT
	 Reference Energy          =    -224.8219196185206954 [Eh]
	 Singles Energy            =      -0.0000000000000000 [Eh]
	 Same-Spin Energy          =      -0.2512441139169057 [Eh]
	 Opposite-Spin Energy      =      -0.7573884962199289 [Eh]
	 Correlation Energy        =      -1.0086326101368346 [Eh]
	 Total Energy              =    -225.8305522286575240 [Eh]

	 ================> DF-SCS-MP2 Energies <==================
	-----------------------------------------------------------
	 SCS Same-Spin Scale       =       0.3333333333333333 [-]
	 SCS Opposite-Spin Scale   =       1.2000000000000000 [-]
	 SCS Same-Spin Energy      =      -0.0837480379723019 [Eh]
	 SCS Opposite-Spin Energy  =      -0.9088661954639146 [Eh]
	 SCS Correlation Energy    =      -0.9926142334362165 [Eh]
	 SCS Total Energy          =    -225.8145338519569236 [Eh]
	-----------------------------------------------------------

  Dipole Moment: [D]
     X:    -1.5519      Y:     1.7947      Z:     0.0001     Total:     2.3726

*** Psi4 exiting successfully. Buy a developer a beer!
