                               Psi4 1.3.2 release

  ==> Input File <==

--------------------------------------------------------------------------
#psi4
#
memory 32 gb

molecule  {
0 1
  N       -1.0405059    -0.3706000     0.0000261
  N        0.0381600    -1.2151070    -0.0000250
  C       -0.6759380     0.9397300     0.0000060
  C        0.7089440     0.9680670    -0.0000050
  C        1.0983770    -0.3824860    -0.0000080
  H       -1.4207460     1.7232830     0.0000220
  H        1.3402470     1.8449540    -0.0000100
  H       -1.9477390    -0.7754960     0.0000400
  H        2.0958970    -0.8015150    -0.0000160
units angstrom
no_reorient  #important for SAPT in psi4, default
symmetry c1  #important for SAPT in psi4, default
}

set PROPERTIES_ORIGIN ["COM"]
properties('MP2/aug-cc-pvtz', properties = ['dipole'])
--------------------------------------------------------------------------

    Molecular point group: c1
  Charge       = 0
  Multiplicity = 1
  Basis Set: AUG-CC-PVTZ
    Blend: AUG-CC-PVTZ
  Basis Set: (AUG-CC-PVTZ AUX)
    Blend: AUG-CC-PVTZ-JKFIT

    Orbital Energies [Eh]
    ---------------------

    Doubly Occupied:

       1A    -15.640786     2A    -15.590811     3A    -11.284240
       4A    -11.257992     5A    -11.225673     6A     -1.362999
       7A     -1.095307     8A     -1.050541     9A     -0.829972
      10A     -0.796640    11A     -0.741922    12A     -0.611222
      13A     -0.601225    14A     -0.591156    15A     -0.565044
      16A     -0.460732    17A     -0.367642    18A     -0.345301

  @DF-RHF Final Energy:  -224.87266195062696

   => Energetics <=

    Nuclear Repulsion Energy =            162.1885872072037955
    One-Electron Energy =                -625.2840883126871177
    Two-Electron Energy =                 238.2228391548563593
    Total Energy =                       -224.8726619506269628
  Basis Set: (AUG-CC-PVTZ AUX)
    Blend: AUG-CC-PVTZ-RI
    Molecular point group: c1

    Geometry (in Angstrom), charge = 0, multiplicity = 1:

       Center              X                  Y                   Z               Mass
    ------------   -----------------  -----------------  -----------------  -----------------
         N           -1.034757016222    -0.342758963710     0.000026574958    14.003074004430
         N            0.043908883778    -1.187265963710    -0.000024525042    14.003074004430
         C           -0.670189116222     0.967571036290     0.000006474958    12.000000000000
         C            0.714692883778     0.995908036290    -0.000004525042    12.000000000000
         C            1.104125883778    -0.354644963710    -0.000007525042    12.000000000000
         H           -1.414997116222     1.751124036290     0.000022474958     1.007825032230
         H            1.345995883778     1.872795036290    -0.000009525042     1.007825032230
         H           -1.941990116222    -0.747654963710     0.000040474958     1.007825032230
         H            2.101645883778    -0.773673963710    -0.000015525042     1.007825032230

  Basis Set: AUG-CC-PVTZ
    Blend: AUG-CC-PVTZ
  Basis Set: (AUG-CC-PVTZ AUX)
    Blend: AUG-CC-PVTZ-JKFIT
	 Reference Energy          =    -224.8726619506269628 [Eh]
	 Singles Energy            =      -0.0000000000000000 [Eh]
	 Same-Spin Energy          =      -0.2455818083355012 [Eh]
	 Opposite-Spin Energy      =      -0.7463481286232071 [Eh]
	 Correlation Energy        =      -0.9919299369587083 [Eh]
	 Total Energy              =    -225.8645918875856751 [Eh]

	 ================> DF-SCS-MP2 Energies <==================
	-----------------------------------------------------------
	 SCS Same-Spin Scale       =       0.3333333333333333 [-]
	 SCS Opposite-Spin Scale   =       1.2000000000000000 [-]
	 SCS Same-Spin Energy      =      -0.0818606027785004 [Eh]
	 SCS Opposite-Spin Energy  =      -0.8956177543478485 [Eh]
	 SCS Correlation Energy    =      -0.9774783571263489 [Eh]
	 SCS Total Energy          =    -225.8501403077533212 [Eh]
	-----------------------------------------------------------

  Dipole Moment: [D]
     X:    -1.4699      Y:     1.7532      Z:     0.0001     Total:     2.2879

*** Psi4 exiting successfully. Buy a developer a beer!
