                               Psi4 1.3.2 release

  ==> Input File <==

--------------------------------------------------------------------------
#psi4
#
memory 32 gb

molecule  {
0 1
  N       -1.0175820    -0.3767630     0.0000260
  N        0.0381600    -1.2151070    -0.0000250
  C       -0.6759380     0.9397300     0.0000060
  C        0.7089440     0.9680670    -0.0000050
  C        1.0983770    -0.3824860    -0.0000080
  H       -1.4207460     1.7232830     0.0000220
  H        1.4571012     2.0072658    -0.0000109
  H       -1.9477390    -0.7754960     0.0000400
  H        2.0958970    -0.8015150    -0.0000160
units angstrom
no_reorient  #important for SAPT in psi4, default
symmetry c1  #important for SAPT in psi4, default
}

set PROPERTIES_ORIGIN ["COM"]
properties('MP2/aug-cc-pvtz', properties = ['dipole'])
--------------------------------------------------------------------------

    Molecular point group: c1
  Charge       = 0
  Multiplicity = 1
  Basis Set: AUG-CC-PVTZ
    Blend: AUG-CC-PVTZ
  Basis Set: (AUG-CC-PVTZ AUX)
    Blend: AUG-CC-PVTZ-JKFIT

    Orbital Energies [Eh]
    ---------------------

    Doubly Occupied:

       1A    -15.644888     2A    -15.592172     3A    -11.284039
       4A    -11.257857     5A    -11.246310     6A     -1.373272
       7A     -1.093899     8A     -1.050114     9A     -0.821286
      10A     -0.792379    11A     -0.737609    12A     -0.607518
      13A     -0.607287    14A     -0.569628    15A     -0.548774
      16A     -0.462285    17A     -0.366306    18A     -0.347666

  @DF-RHF Final Energy:  -224.85059025475945

   => Energetics <=

    Nuclear Repulsion Energy =            161.7929556488577987
    One-Electron Energy =                -624.4805126261618398
    Two-Electron Energy =                 237.8369667225445880
    Total Energy =                       -224.8505902547594530
  Basis Set: (AUG-CC-PVTZ AUX)
    Blend: AUG-CC-PVTZ-RI
    Molecular point group: c1

    Geometry (in Angstrom), charge = 0, multiplicity = 1:

       Center              X                  Y                   Z               Mass
    ------------   -----------------  -----------------  -----------------  -----------------
         N           -1.018282118471    -0.350057822741     0.000026508871    14.003074004430
         N            0.037459881529    -1.188401822741    -0.000024491129    14.003074004430
         C           -0.676638118471     0.966435177259     0.000006508871    12.000000000000
         C            0.708243881529     0.994772177259    -0.000004491129    12.000000000000
         C            1.097676881529    -0.355780822741    -0.000007491129    12.000000000000
         H           -1.421446118471     1.749988177259     0.000022508871     1.007825032230
         H            1.456401081529     2.033970977259    -0.000010391129     1.007825032230
         H           -1.948439118471    -0.748790822741     0.000040508871     1.007825032230
         H            2.095196881529    -0.774809822741    -0.000015491129     1.007825032230

  Basis Set: AUG-CC-PVTZ
    Blend: AUG-CC-PVTZ
  Basis Set: (AUG-CC-PVTZ AUX)
    Blend: AUG-CC-PVTZ-JKFIT
	 Reference Energy          =    -224.8505902547594530 [Eh]
	 Singles Energy            =      -0.0000000000000000 [Eh]
	 Same-Spin Energy          =      -0.2462075112147710 [Eh]
	 Opposite-Spin Energy      =      -0.7480061976384825 [Eh]
	 Correlation Energy        =      -0.9942137088532534 [Eh]
	 Total Energy              =    -225.8448039636127191 [Eh]

	 ================> DF-SCS-MP2 Energies <==================
	-----------------------------------------------------------
	 SCS Same-Spin Scale       =       0.3333333333333333 [-]
	 SCS Opposite-Spin Scale   =       1.2000000000000000 [-]
	 SCS Same-Spin Energy      =      -0.0820691704049236 [Eh]
	 SCS Opposite-Spin Energy  =      -0.8976074371661790 [Eh]
	 SCS Correlation Energy    =      -0.9796766075711026 [Eh]
	 SCS Total Energy          =    -225.8302668623305465 [Eh]
	-----------------------------------------------------------

  Dipole Moment: [D]
     X:    -1.5357      Y:     1.7062      Z:     0.0001     Total:     2.2956

*** Psi4 exiting successfully. Buy a developer a beer!
