                               Psi4 1.3.2 release

  ==> Input File <==

--------------------------------------------------------------------------
#psi4
#
memory 32 gb

molecule  {
0 1
  N       -1.0175820    -0.3767630     0.0000260
  N        0.0381600    -1.2151070    -0.0000250
  C       -0.6530141     0.9335670     0.0000059
  C        0.7089440     0.9680670    -0.0000050
  C        1.0983770    -0.3824860    -0.0000080
  H       -1.4207460     1.7232830     0.0000220
  H        1.3402470     1.8449540    -0.0000100
  H       -1.9477390    -0.7754960     0.0000400
  H        2.0958970    -0.8015150    -0.0000160
units angstrom
no_reorient  #important for SAPT in psi4, default
symmetry c1  #important for SAPT in psi4, default
}

set PROPERTIES_ORIGIN ["COM"]
properties('MP2/aug-cc-pvtz', properties = ['dipole'])
--------------------------------------------------------------------------

    Molecular point group: c1
  Charge       = 0
  Multiplicity = 1
  Basis Set: AUG-CC-PVTZ
    Blend: AUG-CC-PVTZ
  Basis Set: (AUG-CC-PVTZ AUX)
    Blend: AUG-CC-PVTZ-JKFIT

    Orbital Energies [Eh]
    ---------------------

    Doubly Occupied:

       1A    -15.641373     2A    -15.590395     3A    -11.280748
       4A    -11.255529     5A    -11.223154     6A     -1.372315
       7A     -1.090616     8A     -1.057571     9A     -0.824023
      10A     -0.799657    11A     -0.739514    12A     -0.610705
      13A     -0.606439    14A     -0.589984    15A     -0.563511
      16A     -0.462303    17A     -0.365033    18A     -0.348972

  @DF-RHF Final Energy:  -224.87336586506797

   => Energetics <=

    Nuclear Repulsion Energy =            162.9417329408447586
    One-Electron Energy =                -626.7865138255635884
    Two-Electron Energy =                 238.9714150196508626
    Total Energy =                       -224.8733658650679672
  Basis Set: (AUG-CC-PVTZ AUX)
    Blend: AUG-CC-PVTZ-RI
    Molecular point group: c1

    Geometry (in Angstrom), charge = 0, multiplicity = 1:

       Center              X                  Y                   Z               Mass
    ------------   -----------------  -----------------  -----------------  -----------------
         N           -1.020594348227    -0.346566541079     0.000026513177    14.003074004430
         N            0.035147651773    -1.184910541079    -0.000024486823    14.003074004430
         C           -0.656026448227     0.963763458921     0.000006413177    12.000000000000
         C            0.705931651773     0.998263458921    -0.000004486823    12.000000000000
         C            1.095364651773    -0.352289541079    -0.000007486823    12.000000000000
         H           -1.423758348227     1.753479458921     0.000022513177     1.007825032230
         H            1.337234651773     1.875150458921    -0.000009486823     1.007825032230
         H           -1.950751348227    -0.745299541079     0.000040513177     1.007825032230
         H            2.092884651773    -0.771318541079    -0.000015486823     1.007825032230

  Basis Set: AUG-CC-PVTZ
    Blend: AUG-CC-PVTZ
  Basis Set: (AUG-CC-PVTZ AUX)
    Blend: AUG-CC-PVTZ-JKFIT
	 Reference Energy          =    -224.8733658650679672 [Eh]
	 Singles Energy            =      -0.0000000000000000 [Eh]
	 Same-Spin Energy          =      -0.2456390982646924 [Eh]
	 Opposite-Spin Energy      =      -0.7458002794727323 [Eh]
	 Correlation Energy        =      -0.9914393777374246 [Eh]
	 Total Energy              =    -225.8648052428054029 [Eh]

	 ================> DF-SCS-MP2 Energies <==================
	-----------------------------------------------------------
	 SCS Same-Spin Scale       =       0.3333333333333333 [-]
	 SCS Opposite-Spin Scale   =       1.2000000000000000 [-]
	 SCS Same-Spin Energy      =      -0.0818796994215641 [Eh]
	 SCS Opposite-Spin Energy  =      -0.8949603353672787 [Eh]
	 SCS Correlation Energy    =      -0.9768400347888428 [Eh]
	 SCS Total Energy          =    -225.8502058998568032 [Eh]
	-----------------------------------------------------------

  Dipole Moment: [D]
     X:    -1.5043      Y:     1.7578      Z:     0.0001     Total:     2.3136

*** Psi4 exiting successfully. Buy a developer a beer!
