                               Psi4 1.3.2 release

  ==> Input File <==

--------------------------------------------------------------------------
#psi4
#
memory 32 gb

molecule  {
0 1
  N       -1.0175820    -0.3767630     0.0000260
  N        0.0381600    -1.2151070    -0.0000250
  C       -0.6989660     0.9454920     0.0000061
  C        0.7089440     0.9680670    -0.0000050
  C        1.0983770    -0.3824860    -0.0000080
  H       -1.4207460     1.7232830     0.0000220
  H        1.3402470     1.8449540    -0.0000100
  H       -1.9477390    -0.7754960     0.0000400
  H        2.0958970    -0.8015150    -0.0000160
units angstrom
no_reorient  #important for SAPT in psi4, default
symmetry c1  #important for SAPT in psi4, default
}

set PROPERTIES_ORIGIN ["COM"]
properties('MP2/aug-cc-pvtz', properties = ['dipole'])
--------------------------------------------------------------------------

    Molecular point group: c1
  Charge       = 0
  Multiplicity = 1
  Basis Set: AUG-CC-PVTZ
    Blend: AUG-CC-PVTZ
  Basis Set: (AUG-CC-PVTZ AUX)
    Blend: AUG-CC-PVTZ-JKFIT

    Orbital Energies [Eh]
    ---------------------

    Doubly Occupied:

       1A    -15.645686     2A    -15.590760     3A    -11.283381
       4A    -11.255958     5A    -11.227604     6A     -1.371023
       7A     -1.094340     8A     -1.048300     9A     -0.826141
      10A     -0.798693    11A     -0.746182    12A     -0.606304
      13A     -0.605019    14A     -0.595097    15A     -0.562869
      16A     -0.463089    17A     -0.365268    18A     -0.343226

  @DF-RHF Final Energy:  -224.87188300796311

   => Energetics <=

    Nuclear Repulsion Energy =            162.2900431561474761
    One-Electron Energy =                -625.4659722574565421
    Two-Electron Energy =                 238.3040460933459599
    Total Energy =                       -224.8718830079631061
  Basis Set: (AUG-CC-PVTZ AUX)
    Blend: AUG-CC-PVTZ-RI
    Molecular point group: c1

    Geometry (in Angstrom), charge = 0, multiplicity = 1:

       Center              X                  Y                   Z               Mass
    ------------   -----------------  -----------------  -----------------  -----------------
         N           -1.012489652724    -0.348669794565     0.000026477902    14.003074004430
         N            0.043252347276    -1.187013794565    -0.000024522098    14.003074004430
         C           -0.693873652724     0.973585205435     0.000006577902    12.000000000000
         C            0.714036347276     0.996160205435    -0.000004522098    12.000000000000
         C            1.103469347276    -0.354392794565    -0.000007522098    12.000000000000
         H           -1.415653652724     1.751376205435     0.000022477902     1.007825032230
         H            1.345339347276     1.873047205435    -0.000009522098     1.007825032230
         H           -1.942646652724    -0.747402794565     0.000040477902     1.007825032230
         H            2.100989347276    -0.773421794565    -0.000015522098     1.007825032230

  Basis Set: AUG-CC-PVTZ
    Blend: AUG-CC-PVTZ
  Basis Set: (AUG-CC-PVTZ AUX)
    Blend: AUG-CC-PVTZ-JKFIT
	 Reference Energy          =    -224.8718830079631061 [Eh]
	 Singles Energy            =      -0.0000000000000000 [Eh]
	 Same-Spin Energy          =      -0.2460716415120194 [Eh]
	 Opposite-Spin Energy      =      -0.7466777639302414 [Eh]
	 Correlation Energy        =      -0.9927494054422608 [Eh]
	 Total Energy              =    -225.8646324134053600 [Eh]

	 ================> DF-SCS-MP2 Energies <==================
	-----------------------------------------------------------
	 SCS Same-Spin Scale       =       0.3333333333333333 [-]
	 SCS Opposite-Spin Scale   =       1.2000000000000000 [-]
	 SCS Same-Spin Energy      =      -0.0820238805040065 [Eh]
	 SCS Opposite-Spin Energy  =      -0.8960133167162897 [Eh]
	 SCS Correlation Energy    =      -0.9780371972202961 [Eh]
	 SCS Total Energy          =    -225.8499202051833947 [Eh]
	-----------------------------------------------------------

  Dipole Moment: [D]
     X:    -1.5370      Y:     1.7196      Z:     0.0001     Total:     2.3064

*** Psi4 exiting successfully. Buy a developer a beer!
