                               Psi4 1.3.2 release

  ==> Input File <==

--------------------------------------------------------------------------
#psi4
#
memory 32 gb

molecule  {
0 1
  N       -1.0461967    -0.4141186     0.0000249
  N        0.0381600    -1.2151070    -0.0000250
  C       -0.6759380     0.9397300     0.0000060
  C        0.7089440     0.9680670    -0.0000050
  C        1.0983770    -0.3824860    -0.0000080
  H       -1.4207460     1.7232830     0.0000220
  H        1.3402470     1.8449540    -0.0000100
  H       -1.9477390    -0.7754960     0.0000400
  H        2.0958970    -0.8015150    -0.0000160
units angstrom
no_reorient  #important for SAPT in psi4, default
symmetry c1  #important for SAPT in psi4, default
}

set PROPERTIES_ORIGIN ["COM"]
properties('MP2/aug-cc-pvtz', properties = ['dipole'])
--------------------------------------------------------------------------

    Molecular point group: c1
  Charge       = 0
  Multiplicity = 1
  Basis Set: AUG-CC-PVTZ
    Blend: AUG-CC-PVTZ
  Basis Set: (AUG-CC-PVTZ AUX)
    Blend: AUG-CC-PVTZ-JKFIT

    Orbital Energies [Eh]
    ---------------------

    Doubly Occupied:

       1A    -15.640067     2A    -15.593138     3A    -11.285267
       4A    -11.256921     5A    -11.229523     6A     -1.364261
       7A     -1.091018     8A     -1.052081     9A     -0.834578
      10A     -0.796526    11A     -0.738058    12A     -0.620769
      13A     -0.599487    14A     -0.590776    15A     -0.564511
      16A     -0.458022    17A     -0.366666    18A     -0.344924

  @DF-RHF Final Energy:  -224.86976796159888

   => Energetics <=

    Nuclear Repulsion Energy =            161.8594327146599028
    One-Electron Energy =                -624.6052111188306526
    Two-Electron Energy =                 237.8760104425718964
    Total Energy =                       -224.8697679615988818
  Basis Set: (AUG-CC-PVTZ AUX)
    Blend: AUG-CC-PVTZ-RI
    Molecular point group: c1

    Geometry (in Angstrom), charge = 0, multiplicity = 1:

       Center              X                  Y                   Z               Mass
    ------------   -----------------  -----------------  -----------------  -----------------
         N           -1.039276568685    -0.377320817196     0.000025621935    14.003074004430
         N            0.045080131315    -1.178309217196    -0.000024278065    14.003074004430
         C           -0.669017868685     0.976527782804     0.000006721935    12.000000000000
         C            0.715864131315     1.004864782804    -0.000004278065    12.000000000000
         C            1.105297131315    -0.345688217196    -0.000007278065    12.000000000000
         H           -1.413825868685     1.760080782804     0.000022721935     1.007825032230
         H            1.347167131315     1.881751782804    -0.000009278065     1.007825032230
         H           -1.940818868685    -0.738698217196     0.000040721935     1.007825032230
         H            2.102817131315    -0.764717217196    -0.000015278065     1.007825032230

  Basis Set: AUG-CC-PVTZ
    Blend: AUG-CC-PVTZ
  Basis Set: (AUG-CC-PVTZ AUX)
    Blend: AUG-CC-PVTZ-JKFIT
	 Reference Energy          =    -224.8697679615988818 [Eh]
	 Singles Energy            =      -0.0000000000000000 [Eh]
	 Same-Spin Energy          =      -0.2455703524956908 [Eh]
	 Opposite-Spin Energy      =      -0.7465140219767397 [Eh]
	 Correlation Energy        =      -0.9920843744724305 [Eh]
	 Total Energy              =    -225.8618523360713084 [Eh]

	 ================> DF-SCS-MP2 Energies <==================
	-----------------------------------------------------------
	 SCS Same-Spin Scale       =       0.3333333333333333 [-]
	 SCS Opposite-Spin Scale   =       1.2000000000000000 [-]
	 SCS Same-Spin Energy      =      -0.0818567841652303 [Eh]
	 SCS Opposite-Spin Energy  =      -0.8958168263720876 [Eh]
	 SCS Correlation Energy    =      -0.9776736105373178 [Eh]
	 SCS Total Energy          =    -225.8474415721362050 [Eh]
	-----------------------------------------------------------

  Dipole Moment: [D]
     X:    -1.4117      Y:     1.7717      Z:     0.0001     Total:     2.2653

*** Psi4 exiting successfully. Buy a developer a beer!
