                               Psi4 1.3.2 release

  ==> Input File <==

--------------------------------------------------------------------------
#psi4
#
memory 32 gb

molecule  {
0 1
  N       -1.0175820    -0.3767630     0.0000260
  N        0.0381600    -1.2151070    -0.0000250
  C       -0.6705878     0.8431945     0.0000060
  C        0.7089440     0.9680670    -0.0000050
  C        1.0983770    -0.3824860    -0.0000080
  H       -1.4207460     1.7232830     0.0000220
  H        1.3402470     1.8449540    -0.0000100
  H       -1.9477390    -0.7754960     0.0000400
  H        2.0958970    -0.8015150    -0.0000160
units angstrom
no_reorient  #important for SAPT in psi4, default
symmetry c1  #important for SAPT in psi4, default
}

set PROPERTIES_ORIGIN ["COM"]
properties('MP2/aug-cc-pvtz', properties = ['dipole'])
--------------------------------------------------------------------------

    Molecular point group: c1
  Charge       = 0
  Multiplicity = 1
  Basis Set: AUG-CC-PVTZ
    Blend: AUG-CC-PVTZ
  Basis Set: (AUG-CC-PVTZ AUX)
    Blend: AUG-CC-PVTZ-JKFIT

    Orbital Energies [Eh]
    ---------------------

    Doubly Occupied:

       1A    -15.645856     2A    -15.580462     3A    -11.280866
       4A    -11.256004     5A    -11.218757     6A     -1.394347
       7A     -1.108641     8A     -1.051793     9A     -0.830344
      10A     -0.807134    11A     -0.735765    12A     -0.622816
      13A     -0.617921    14A     -0.592399    15A     -0.540565
      16A     -0.458567    17A     -0.373601    18A     -0.341753

  @DF-RHF Final Energy:  -224.86442180671170

   => Energetics <=

    Nuclear Repulsion Energy =            164.3092128532335039
    One-Electron Energy =                -629.4320890008734750
    Two-Electron Energy =                 240.2584543409282958
    Total Energy =                       -224.8644218067117038
  Basis Set: (AUG-CC-PVTZ AUX)
    Blend: AUG-CC-PVTZ-RI
    Molecular point group: c1

    Geometry (in Angstrom), charge = 0, multiplicity = 1:

       Center              X                  Y                   Z               Mass
    ------------   -----------------  -----------------  -----------------  -----------------
         N           -1.017494813989    -0.330627230748     0.000026495539    14.003074004430
         N            0.038247186011    -1.168971230748    -0.000024504461    14.003074004430
         C           -0.670500613989     0.889330269252     0.000006495539    12.000000000000
         C            0.709031186011     1.014202769252    -0.000004504461    12.000000000000
         C            1.098464186011    -0.336350230748    -0.000007504461    12.000000000000
         H           -1.420658813989     1.769418769252     0.000022495539     1.007825032230
         H            1.340334186011     1.891089769252    -0.000009504461     1.007825032230
         H           -1.947651813989    -0.729360230748     0.000040495539     1.007825032230
         H            2.095984186011    -0.755379230748    -0.000015504461     1.007825032230

  Basis Set: AUG-CC-PVTZ
    Blend: AUG-CC-PVTZ
  Basis Set: (AUG-CC-PVTZ AUX)
    Blend: AUG-CC-PVTZ-JKFIT
	 Reference Energy          =    -224.8644218067117038 [Eh]
	 Singles Energy            =      -0.0000000000000000 [Eh]
	 Same-Spin Energy          =      -0.2451677463365166 [Eh]
	 Opposite-Spin Energy      =      -0.7437832416846679 [Eh]
	 Correlation Energy        =      -0.9889509880211844 [Eh]
	 Total Energy              =    -225.8533727947328771 [Eh]

	 ================> DF-SCS-MP2 Energies <==================
	-----------------------------------------------------------
	 SCS Same-Spin Scale       =       0.3333333333333333 [-]
	 SCS Opposite-Spin Scale   =       1.2000000000000000 [-]
	 SCS Same-Spin Energy      =      -0.0817225821121722 [Eh]
	 SCS Opposite-Spin Energy  =      -0.8925398900216015 [Eh]
	 SCS Correlation Energy    =      -0.9742624721337737 [Eh]
	 SCS Total Energy          =    -225.8386842788454771 [Eh]
	-----------------------------------------------------------

  Dipole Moment: [D]
     X:    -1.6417      Y:     1.6995      Z:     0.0001     Total:     2.3629

*** Psi4 exiting successfully. Buy a developer a beer!
