                               Psi4 1.4a3.dev225

  ==> Input File <==

--------------------------------------------------------------------------
#psi4
#
memory 32 gb

molecule  {
0 1
  N       -1.0175820    -0.3767630     0.0000260
  N        0.0381600    -1.2151070    -0.0000250
  C       -0.6759380     0.9397300     0.0000060
  C        0.7089440     0.9680670    -0.0000050
  C        1.0983770    -0.3824860    -0.0000080
  H       -1.4207460     1.7232830     0.0000220
  H        1.3402470     1.8449540    -0.0000100
  H       -1.9661212    -0.7833760     0.0000403
  H        2.0958970    -0.8015150    -0.0000160
units angstrom
no_reorient  #important for SAPT in psi4, default
symmetry c1  #important for SAPT in psi4, default
}

set PROPERTIES_ORIGIN ["COM"]
properties('MP2/aug-cc-pvtz', properties = ['dipole'])
--------------------------------------------------------------------------

    Molecular point group: c1
  Charge       = 0
  Multiplicity = 1
  Basis Set: AUG-CC-PVTZ
    Blend: AUG-CC-PVTZ
  Basis Set: (AUG-CC-PVTZ AUX)
    Blend: AUG-CC-PVTZ-JKFIT

    Orbital Energies [Eh]
    ---------------------

    Doubly Occupied:

       1A    -15.645203     2A    -15.590431     3A    -11.281884
       4A    -11.255525     5A    -11.225225     6A     -1.370601
       7A     -1.090602     8A     -1.051876     9A     -0.821277
      10A     -0.798682    11A     -0.741823    12A     -0.605832
      13A     -0.605334    14A     -0.592313    15A     -0.563895
      16A     -0.462438    17A     -0.364512    18A     -0.346073

  @DF-RHF Final Energy:  -224.87235874956431

   => Energetics <=

    Nuclear Repulsion Energy =            162.4983932493224756
    One-Electron Energy =                -625.9144491520841029
    Two-Electron Energy =                 238.5436971531973143
    Total Energy =                       -224.8723587495643130
  Basis Set: (AUG-CC-PVTZ AUX)
    Blend: AUG-CC-PVTZ-RI
    Molecular point group: c1

    Geometry (in Angstrom), charge = 0, multiplicity = 1:

       Center              X                  Y                   Z               Mass
    ------------   -----------------  -----------------  -----------------  -----------------
         N           -1.016278888883    -0.347536805845     0.000026491095    14.003074004430
         N            0.039463111117    -1.185880805845    -0.000024508905    14.003074004430
         C           -0.674634888883     0.968956194155     0.000006491095    12.000000000000
         C            0.710247111117     0.997293194155    -0.000004508905    12.000000000000
         C            1.099680111117    -0.353259805845    -0.000007508905    12.000000000000
         H           -1.419442888883     1.752509194155     0.000022491095     1.007825032230
         H            1.341550111117     1.874180194155    -0.000009508905     1.007825032230
         H           -1.964818088883    -0.754149805845     0.000040791095     1.007825032230
         H            2.097200111117    -0.772288805845    -0.000015508905     1.007825032230

  Basis Set: AUG-CC-PVTZ
    Blend: AUG-CC-PVTZ
  Basis Set: (AUG-CC-PVTZ AUX)
    Blend: AUG-CC-PVTZ-JKFIT
	 Reference Energy          =    -224.8723587495643130 [Eh]
	 Singles Energy            =      -0.0000000000000000 [Eh]
	 Same-Spin Energy          =      -0.2460102101399143 [Eh]
	 Opposite-Spin Energy      =      -0.7465651369844220 [Eh]
	 Correlation Energy        =      -0.9925753471243363 [Eh]
	 Total Energy              =    -225.8649340966886427 [Eh]

	 ================> DF-SCS-MP2 Energies <==================
	-----------------------------------------------------------
	 SCS Same-Spin Scale       =       0.3333333333333333 [-]
	 SCS Opposite-Spin Scale   =       1.2000000000000000 [-]
	 SCS Same-Spin Energy      =      -0.0820034033799714 [Eh]
	 SCS Opposite-Spin Energy  =      -0.8958781643813063 [Eh]
	 SCS Correlation Energy    =      -0.9778815677612778 [Eh]
	 SCS Total Energy          =    -225.8502403173255857 [Eh]
	-----------------------------------------------------------

  Dipole Moment: [D]
     X:    -1.5474      Y:     1.7270      Z:     0.0001     Total:     2.3188

*** Psi4 exiting successfully. Buy a developer a beer!
