                               Psi4 1.4a3.dev225

  ==> Input File <==

--------------------------------------------------------------------------
#psi4
#
memory 32 gb

molecule  {
0 1
  N       -1.0175820    -0.3767630     0.0000260
  N        0.0381600    -1.2151070    -0.0000250
  C       -0.6759380     0.9397300     0.0000060
  C        0.7089440     0.9680670    -0.0000050
  C        1.0983770    -0.3824860    -0.0000080
  H       -1.4207460     1.7232830     0.0000220
  H        1.3402470     1.8449540    -0.0000100
  H       -1.9017834    -0.7557961     0.0000393
  H        2.0958970    -0.8015150    -0.0000160
units angstrom
no_reorient  #important for SAPT in psi4, default
symmetry c1  #important for SAPT in psi4, default
}

set PROPERTIES_ORIGIN ["COM"]
properties('MP2/aug-cc-pvtz', properties = ['dipole'])
--------------------------------------------------------------------------

    Molecular point group: c1
  Charge       = 0
  Multiplicity = 1
  Basis Set: AUG-CC-PVTZ
    Blend: AUG-CC-PVTZ
  Basis Set: (AUG-CC-PVTZ AUX)
    Blend: AUG-CC-PVTZ-JKFIT

    Orbital Energies [Eh]
    ---------------------

    Doubly Occupied:

       1A    -15.638916     2A    -15.590924     3A    -11.282524
       4A    -11.256212     5A    -11.225887     6A     -1.374484
       7A     -1.097918     8A     -1.055028     9A     -0.834866
      10A     -0.800141    11A     -0.744836    12A     -0.612793
      13A     -0.606540    14A     -0.593206    15A     -0.564589
      16A     -0.463342    17A     -0.365889    18A     -0.346682

  @DF-RHF Final Energy:  -224.87318832989948

   => Energetics <=

    Nuclear Repulsion Energy =            162.9056074978611264
    One-Electron Energy =                -626.6480368747960483
    Two-Electron Energy =                 238.8692410470354446
    Total Energy =                       -224.8731883298994774
  Basis Set: (AUG-CC-PVTZ AUX)
    Blend: AUG-CC-PVTZ-RI
    Molecular point group: c1

    Geometry (in Angstrom), charge = 0, multiplicity = 1:

       Center              X                  Y                   Z               Mass
    ------------   -----------------  -----------------  -----------------  -----------------
         N           -1.017231911772    -0.347945341356     0.000026505908    14.003074004430
         N            0.038510088228    -1.186289341356    -0.000024494092    14.003074004430
         C           -0.675587911772     0.968547658644     0.000006505908    12.000000000000
         C            0.709294088228     0.996884658644    -0.000004494092    12.000000000000
         C            1.098727088228    -0.353668341356    -0.000007494092    12.000000000000
         H           -1.420395911772     1.752100658644     0.000022505908     1.007825032230
         H            1.340597088228     1.873771658644    -0.000009494092     1.007825032230
         H           -1.901433311772    -0.726978441356     0.000039805908     1.007825032230
         H            2.096247088228    -0.772697341356    -0.000015494092     1.007825032230

  Basis Set: AUG-CC-PVTZ
    Blend: AUG-CC-PVTZ
  Basis Set: (AUG-CC-PVTZ AUX)
    Blend: AUG-CC-PVTZ-JKFIT
	 Reference Energy          =    -224.8731883298994774 [Eh]
	 Singles Energy            =      -0.0000000000000000 [Eh]
	 Same-Spin Energy          =      -0.2454410475000505 [Eh]
	 Opposite-Spin Energy      =      -0.7453561615507029 [Eh]
	 Correlation Energy        =      -0.9907972090507534 [Eh]
	 Total Energy              =    -225.8639855389502316 [Eh]

	 ================> DF-SCS-MP2 Energies <==================
	-----------------------------------------------------------
	 SCS Same-Spin Scale       =       0.3333333333333333 [-]
	 SCS Opposite-Spin Scale   =       1.2000000000000000 [-]
	 SCS Same-Spin Energy      =      -0.0818136825000168 [Eh]
	 SCS Opposite-Spin Energy  =      -0.8944273938608435 [Eh]
	 SCS Correlation Energy    =      -0.9762410763608603 [Eh]
	 SCS Total Energy          =    -225.8494294062603274 [Eh]
	-----------------------------------------------------------

  Dipole Moment: [D]
     X:    -1.4599      Y:     1.7722      Z:     0.0001     Total:     2.2961

*** Psi4 exiting successfully. Buy a developer a beer!
