                               Psi4 1.4a3.dev225

  ==> Input File <==

--------------------------------------------------------------------------
#psi4
#
memory 32 gb

molecule  {
0 1
  N       -1.0175820    -0.3767630     0.0000260
  N        0.0381600    -1.2151070    -0.0000250
  C       -0.6759380     0.9397300     0.0000060
  C        0.7089440     0.9680670    -0.0000050
  C        1.0983770    -0.3824860    -0.0000080
  H       -1.4069668     1.7087870     0.0000217
  H        1.3402470     1.8449540    -0.0000100
  H       -1.9477390    -0.7754960     0.0000400
  H        2.0958970    -0.8015150    -0.0000160
units angstrom
no_reorient  #important for SAPT in psi4, default
symmetry c1  #important for SAPT in psi4, default
}

set PROPERTIES_ORIGIN ["COM"]
properties('MP2/aug-cc-pvtz', properties = ['dipole'])
--------------------------------------------------------------------------

    Molecular point group: c1
  Charge       = 0
  Multiplicity = 1
  Basis Set: AUG-CC-PVTZ
    Blend: AUG-CC-PVTZ
  Basis Set: (AUG-CC-PVTZ AUX)
    Blend: AUG-CC-PVTZ-JKFIT

    Orbital Energies [Eh]
    ---------------------

    Doubly Occupied:

       1A    -15.643396     2A    -15.590521     3A    -11.279858
       4A    -11.255613     5A    -11.225307     6A     -1.371545
       7A     -1.092714     8A     -1.053084     9A     -0.825867
      10A     -0.799435    11A     -0.746001    12A     -0.608313
      13A     -0.605587    14A     -0.593408    15A     -0.565039
      16A     -0.462696    17A     -0.364818    18A     -0.346206

  @DF-RHF Final Energy:  -224.87360411315223

   => Energetics <=

    Nuclear Repulsion Energy =            162.7055645495587441
    One-Electron Energy =                -626.2995156916865653
    Two-Electron Energy =                 238.7203470289755955
    Total Energy =                       -224.8736041131522256
  Basis Set: (AUG-CC-PVTZ AUX)
    Blend: AUG-CC-PVTZ-RI
    Molecular point group: c1

    Geometry (in Angstrom), charge = 0, multiplicity = 1:

       Center              X                  Y                   Z               Mass
    ------------   -----------------  -----------------  -----------------  -----------------
         N           -1.016755289232    -0.347438804368     0.000026499983    14.003074004430
         N            0.038986710768    -1.185782804368    -0.000024500017    14.003074004430
         C           -0.675111289232     0.969054195632     0.000006499983    12.000000000000
         C            0.709770710768     0.997391195632    -0.000004500017    12.000000000000
         C            1.099203710768    -0.353161804368    -0.000007500017    12.000000000000
         H           -1.406140089232     1.738111195632     0.000022199983     1.007825032230
         H            1.341073710768     1.874278195632    -0.000009500017     1.007825032230
         H           -1.946912289232    -0.746171804368     0.000040499983     1.007825032230
         H            2.096723710768    -0.772190804368    -0.000015500017     1.007825032230

  Basis Set: AUG-CC-PVTZ
    Blend: AUG-CC-PVTZ
  Basis Set: (AUG-CC-PVTZ AUX)
    Blend: AUG-CC-PVTZ-JKFIT
	 Reference Energy          =    -224.8736041131522256 [Eh]
	 Singles Energy            =      -0.0000000000000000 [Eh]
	 Same-Spin Energy          =      -0.2458080134214551 [Eh]
	 Opposite-Spin Energy      =      -0.7460727597841335 [Eh]
	 Correlation Energy        =      -0.9918807732055885 [Eh]
	 Total Energy              =    -225.8654848863578195 [Eh]

	 ================> DF-SCS-MP2 Energies <==================
	-----------------------------------------------------------
	 SCS Same-Spin Scale       =       0.3333333333333333 [-]
	 SCS Opposite-Spin Scale   =       1.2000000000000000 [-]
	 SCS Same-Spin Energy      =      -0.0819360044738184 [Eh]
	 SCS Opposite-Spin Energy  =      -0.8952873117409601 [Eh]
	 SCS Correlation Energy    =      -0.9772233162147784 [Eh]
	 SCS Total Energy          =    -225.8508274293670013 [Eh]
	-----------------------------------------------------------

  Dipole Moment: [D]
     X:    -1.5225      Y:     1.7394      Z:     0.0001     Total:     2.3116

*** Psi4 exiting successfully. Buy a developer a beer!
