                               Psi4 1.3.2 release

  ==> Input File <==

--------------------------------------------------------------------------
#psi4
#
memory 32 gb

molecule  {
0 1
  N       -1.0175820    -0.3767630     0.0000260
  N       -0.0401525    -1.1529206    -0.0000212
  C       -0.6759380     0.9397300     0.0000060
  C        0.7089440     0.9680670    -0.0000050
  C        1.0983770    -0.3824860    -0.0000080
  H       -1.4207460     1.7232830     0.0000220
  H        1.3402470     1.8449540    -0.0000100
  H       -1.9477390    -0.7754960     0.0000400
  H        2.0958970    -0.8015150    -0.0000160
units angstrom
no_reorient  #important for SAPT in psi4, default
symmetry c1  #important for SAPT in psi4, default
}

set PROPERTIES_ORIGIN ["COM"]
properties('MP2/aug-cc-pvtz', properties = ['dipole'])
--------------------------------------------------------------------------

    Molecular point group: c1
  Charge       = 0
  Multiplicity = 1
  Basis Set: AUG-CC-PVTZ
    Blend: AUG-CC-PVTZ
  Basis Set: (AUG-CC-PVTZ AUX)
    Blend: AUG-CC-PVTZ-JKFIT

    Orbital Energies [Eh]
    ---------------------

    Doubly Occupied:

       1A    -15.652762     2A    -15.586039     3A    -11.269032
       4A    -11.250793     5A    -11.227142     6A     -1.417879
       7A     -1.080595     8A     -1.065067     9A     -0.830249
      10A     -0.812005    11A     -0.739956    12A     -0.627777
      13A     -0.624901    14A     -0.593563    15A     -0.560359
      16A     -0.451545    17A     -0.366797    18A     -0.335211

  @DF-RHF Final Energy:  -224.86655037664485

   => Energetics <=

    Nuclear Repulsion Energy =            164.4233661506395947
    One-Electron Energy =                -629.5964888156512416
    Two-Electron Energy =                 240.3065722883667945
    Total Energy =                       -224.8665503766448523
  Basis Set: (AUG-CC-PVTZ AUX)
    Blend: AUG-CC-PVTZ-RI
    Molecular point group: c1

    Geometry (in Angstrom), charge = 0, multiplicity = 1:

       Center              X                  Y                   Z               Mass
    ------------   -----------------  -----------------  -----------------  -----------------
         N           -1.000433354973    -0.360452375823     0.000025713445    14.003074004430
         N           -0.023003854973    -1.136609975823    -0.000021486555    14.003074004430
         C           -0.658789354973     0.956040624177     0.000005713445    12.000000000000
         C            0.726092645027     0.984377624177    -0.000005286555    12.000000000000
         C            1.115525645027    -0.366175375823    -0.000008286555    12.000000000000
         H           -1.403597354973     1.739593624177     0.000021713445     1.007825032230
         H            1.357395645027     1.861264624177    -0.000010286555     1.007825032230
         H           -1.930590354973    -0.759185375823     0.000039713445     1.007825032230
         H            2.113045645027    -0.785204375823    -0.000016286555     1.007825032230

  Basis Set: AUG-CC-PVTZ
    Blend: AUG-CC-PVTZ
  Basis Set: (AUG-CC-PVTZ AUX)
    Blend: AUG-CC-PVTZ-JKFIT
	 Reference Energy          =    -224.8665503766448523 [Eh]
	 Singles Energy            =      -0.0000000000000000 [Eh]
	 Same-Spin Energy          =      -0.2462652150296572 [Eh]
	 Opposite-Spin Energy      =      -0.7444091055188984 [Eh]
	 Correlation Energy        =      -0.9906743205485555 [Eh]
	 Total Energy              =    -225.8572246971934021 [Eh]

	 ================> DF-SCS-MP2 Energies <==================
	-----------------------------------------------------------
	 SCS Same-Spin Scale       =       0.3333333333333333 [-]
	 SCS Opposite-Spin Scale   =       1.2000000000000000 [-]
	 SCS Same-Spin Energy      =      -0.0820884050098857 [Eh]
	 SCS Opposite-Spin Energy  =      -0.8932909266226781 [Eh]
	 SCS Correlation Energy    =      -0.9753793316325639 [Eh]
	 SCS Total Energy          =    -225.8419297082774051 [Eh]
	-----------------------------------------------------------

  Dipole Moment: [D]
     X:    -1.5382      Y:     1.5824      Z:     0.0001     Total:     2.2068

*** Psi4 exiting successfully. Buy a developer a beer!
