                               Psi4 1.4a3.dev225

  ==> Input File <==

--------------------------------------------------------------------------
#psi4
#
memory 32 gb

molecule  {
0 1
  N       -1.0175820    -0.3767630     0.0000260
  N        0.0381600    -1.2151070    -0.0000250
  C       -0.6759380     0.9397300     0.0000060
  C        0.7089440     0.9680670    -0.0000050
  C        1.0983770    -0.3824860    -0.0000080
  H       -1.4207460     1.7232830     0.0000220
  H        1.3402470     1.8449540    -0.0000100
  H       -1.9477390    -0.7754960     0.0000400
  H        2.0774578    -0.7937692    -0.0000159
units angstrom
no_reorient  #important for SAPT in psi4, default
symmetry c1  #important for SAPT in psi4, default
}

set PROPERTIES_ORIGIN ["COM"]
properties('MP2/aug-cc-pvtz', properties = ['dipole'])
--------------------------------------------------------------------------

    Molecular point group: c1
  Charge       = 0
  Multiplicity = 1
  Basis Set: AUG-CC-PVTZ
    Blend: AUG-CC-PVTZ
  Basis Set: (AUG-CC-PVTZ AUX)
    Blend: AUG-CC-PVTZ-JKFIT

    Orbital Energies [Eh]
    ---------------------

    Doubly Occupied:

       1A    -15.643393     2A    -15.590455     3A    -11.281933
       4A    -11.253436     5A    -11.225233     6A     -1.371494
       7A     -1.092773     8A     -1.052736     9A     -0.825739
      10A     -0.801322    11A     -0.742731    12A     -0.609454
      13A     -0.605548    14A     -0.592569    15A     -0.566165
      16A     -0.462741    17A     -0.364814    18A     -0.346133

  @DF-RHF Final Energy:  -224.87358924867948

   => Energetics <=

    Nuclear Repulsion Energy =            162.7059439463064052
    One-Electron Energy =                -626.3017263191597976
    Two-Electron Energy =                 238.7221931241738844
    Total Energy =                       -224.8735892486794796
  Basis Set: (AUG-CC-PVTZ AUX)
    Blend: AUG-CC-PVTZ-RI
    Molecular point group: c1

    Geometry (in Angstrom), charge = 0, multiplicity = 1:

       Center              X                  Y                   Z               Mass
    ------------   -----------------  -----------------  -----------------  -----------------
         N           -1.016278044554    -0.347768267677     0.000026494058    14.003074004430
         N            0.039463955446    -1.186112267677    -0.000024505942    14.003074004430
         C           -0.674634044554     0.968724732323     0.000006494058    12.000000000000
         C            0.710247955446     0.997061732323    -0.000004505942    12.000000000000
         C            1.099680955446    -0.353491267677    -0.000007505942    12.000000000000
         H           -1.419442044554     1.752277732323     0.000022494058     1.007825032230
         H            1.341550955446     1.873948732323    -0.000009505942     1.007825032230
         H           -1.946435044554    -0.746501267677     0.000040494058     1.007825032230
         H            2.078761755446    -0.764774467677    -0.000015405942     1.007825032230

  Basis Set: AUG-CC-PVTZ
    Blend: AUG-CC-PVTZ
  Basis Set: (AUG-CC-PVTZ AUX)
    Blend: AUG-CC-PVTZ-JKFIT
	 Reference Energy          =    -224.8735892486794796 [Eh]
	 Singles Energy            =      -0.0000000000000000 [Eh]
	 Same-Spin Energy          =      -0.2458173626733222 [Eh]
	 Opposite-Spin Energy      =      -0.7461036912988381 [Eh]
	 Correlation Energy        =      -0.9919210539721603 [Eh]
	 Total Energy              =    -225.8655103026516429 [Eh]

	 ================> DF-SCS-MP2 Energies <==================
	-----------------------------------------------------------
	 SCS Same-Spin Scale       =       0.3333333333333333 [-]
	 SCS Opposite-Spin Scale   =       1.2000000000000000 [-]
	 SCS Same-Spin Energy      =      -0.0819391208911074 [Eh]
	 SCS Opposite-Spin Energy  =      -0.8953244295586057 [Eh]
	 SCS Correlation Energy    =      -0.9772635504497131 [Eh]
	 SCS Total Energy          =    -225.8508527991291999 [Eh]
	-----------------------------------------------------------

  Dipole Moment: [D]
     X:    -1.5208      Y:     1.7398      Z:     0.0001     Total:     2.3108

*** Psi4 exiting successfully. Buy a developer a beer!
