                               Psi4 1.4a3.dev225

  ==> Input File <==

--------------------------------------------------------------------------
#psi4
#
memory 32 gb

molecule  {
0 1
  N       -1.0175820    -0.3767630     0.0000260
  N        0.0381600    -1.2151070    -0.0000250
  C       -0.6759380     0.9397300     0.0000060
  C        0.7089440     0.9680670    -0.0000050
  C        1.1122301    -0.4305286    -0.0000081
  H       -1.4207460     1.7232830     0.0000220
  H        1.3402470     1.8449540    -0.0000100
  H       -1.9477390    -0.7754960     0.0000400
  H        2.0958970    -0.8015150    -0.0000160
units angstrom
no_reorient  #important for SAPT in psi4, default
symmetry c1  #important for SAPT in psi4, default
}

set PROPERTIES_ORIGIN ["COM"]
properties('MP2/aug-cc-pvtz', properties = ['dipole'])
--------------------------------------------------------------------------

    Molecular point group: c1
  Charge       = 0
  Multiplicity = 1
  Basis Set: AUG-CC-PVTZ
    Blend: AUG-CC-PVTZ
  Basis Set: (AUG-CC-PVTZ AUX)
    Blend: AUG-CC-PVTZ-JKFIT

    Orbital Energies [Eh]
    ---------------------

    Doubly Occupied:

       1A    -15.640515     2A    -15.591864     3A    -11.281637
       4A    -11.257575     5A    -11.228242     6A     -1.370794
       7A     -1.097583     8A     -1.044342     9A     -0.820707
      10A     -0.805066    11A     -0.740349    12A     -0.617190
      13A     -0.604794    14A     -0.590504    15A     -0.566219
      16A     -0.456794    17A     -0.363689    18A     -0.346079

  @DF-RHF Final Energy:  -224.87254356038929

   => Energetics <=

    Nuclear Repulsion Energy =            162.1851556759623350
    One-Electron Energy =                -625.2675082005602007
    Two-Electron Energy =                 238.2098089642085768
    Total Energy =                       -224.8725435603892890
  Basis Set: (AUG-CC-PVTZ AUX)
    Blend: AUG-CC-PVTZ-RI
    Molecular point group: c1

    Geometry (in Angstrom), charge = 0, multiplicity = 1:

       Center              X                  Y                   Z               Mass
    ------------   -----------------  -----------------  -----------------  -----------------
         N           -1.018994499865    -0.339180091208     0.000026513177    14.003074004430
         N            0.036747500135    -1.177524091208    -0.000024486823    14.003074004430
         C           -0.677350499865     0.977312908792     0.000006513177    12.000000000000
         C            0.707531500135     1.005649908792    -0.000004486823    12.000000000000
         C            1.110817600135    -0.392945691208    -0.000007586823    12.000000000000
         H           -1.422158499865     1.760865908792     0.000022513177     1.007825032230
         H            1.338834500135     1.882536908792    -0.000009486823     1.007825032230
         H           -1.949151499865    -0.737913091208     0.000040513177     1.007825032230
         H            2.094484500135    -0.763932091208    -0.000015486823     1.007825032230

  Basis Set: AUG-CC-PVTZ
    Blend: AUG-CC-PVTZ
  Basis Set: (AUG-CC-PVTZ AUX)
    Blend: AUG-CC-PVTZ-JKFIT
	 Reference Energy          =    -224.8725435603892890 [Eh]
	 Singles Energy            =      -0.0000000000000000 [Eh]
	 Same-Spin Energy          =      -0.2449523942172886 [Eh]
	 Opposite-Spin Energy      =      -0.7452133004037587 [Eh]
	 Correlation Energy        =      -0.9901656946210473 [Eh]
	 Total Energy              =    -225.8627092550103441 [Eh]

	 ================> DF-SCS-MP2 Energies <==================
	-----------------------------------------------------------
	 SCS Same-Spin Scale       =       0.3333333333333333 [-]
	 SCS Opposite-Spin Scale   =       1.2000000000000000 [-]
	 SCS Same-Spin Energy      =      -0.0816507980724295 [Eh]
	 SCS Opposite-Spin Energy  =      -0.8942559604845104 [Eh]
	 SCS Correlation Energy    =      -0.9759067585569399 [Eh]
	 SCS Total Energy          =    -225.8484503189462202 [Eh]
	-----------------------------------------------------------

  Dipole Moment: [D]
     X:    -1.4837      Y:     1.6825      Z:     0.0001     Total:     2.2432

*** Psi4 exiting successfully. Buy a developer a beer!
