                               Psi4 1.3.2 release

  ==> Input File <==

--------------------------------------------------------------------------
#psi4
#
memory 32 gb

molecule  {
0 1
  N       -1.0175820    -0.3767630     0.0000260
  N        0.0381600    -1.2151070    -0.0000250
  C       -0.6759380     0.9397300     0.0000060
  C        0.7089440     0.9680670    -0.0000050
  C        1.0983770    -0.3824860    -0.0000080
  H       -1.4207460     1.7232830     0.0000220
  H        1.3402470     1.8449540    -0.0000100
  H       -1.9477390    -0.7754960     0.0000400
  H        2.0037011    -0.7627862    -0.0000153
units angstrom
no_reorient  #important for SAPT in psi4, default
symmetry c1  #important for SAPT in psi4, default
}

set PROPERTIES_ORIGIN ["COM"]
properties('MP2/aug-cc-pvtz', properties = ['dipole'])
--------------------------------------------------------------------------

    Molecular point group: c1
  Charge       = 0
  Multiplicity = 1
  Basis Set: AUG-CC-PVTZ
    Blend: AUG-CC-PVTZ
  Basis Set: (AUG-CC-PVTZ AUX)
    Blend: AUG-CC-PVTZ-JKFIT

    Orbital Energies [Eh]
    ---------------------

    Doubly Occupied:

       1A    -15.643095     2A    -15.590150     3A    -11.281495
       4A    -11.244131     5A    -11.224650     6A     -1.371100
       7A     -1.094518     8A     -1.052640     9A     -0.832071
      10A     -0.808990    11A     -0.742705    12A     -0.617072
      13A     -0.605154    14A     -0.592575    15A     -0.572479
      16A     -0.462916    17A     -0.364614    18A     -0.345754

  @DF-RHF Final Energy:  -224.86721778523997

   => Energetics <=

    Nuclear Repulsion Energy =            163.1154496468136585
    One-Electron Energy =                -627.0731134648746092
    Two-Electron Energy =                 239.0904460328209780
    Total Energy =                       -224.8672177852399727
  Basis Set: (AUG-CC-PVTZ AUX)
    Blend: AUG-CC-PVTZ-RI
    Molecular point group: c1

    Geometry (in Angstrom), charge = 0, multiplicity = 1:

       Center              X                  Y                   Z               Mass
    ------------   -----------------  -----------------  -----------------  -----------------
         N           -1.015185501394    -0.348227212624     0.000026485170    14.003074004430
         N            0.040556498606    -1.186571212624    -0.000024514830    14.003074004430
         C           -0.673541501394     0.968265787376     0.000006485170    12.000000000000
         C            0.711340498606     0.996602787376    -0.000004514830    12.000000000000
         C            1.100773498606    -0.353950212624    -0.000007514830    12.000000000000
         H           -1.418349501394     1.751818787376     0.000022485170     1.007825032230
         H            1.342643498606     1.873489787376    -0.000009514830     1.007825032230
         H           -1.945342501394    -0.746960212624     0.000040485170     1.007825032230
         H            2.006097598606    -0.734250412624    -0.000014814830     1.007825032230

  Basis Set: AUG-CC-PVTZ
    Blend: AUG-CC-PVTZ
  Basis Set: (AUG-CC-PVTZ AUX)
    Blend: AUG-CC-PVTZ-JKFIT
	 Reference Energy          =    -224.8672177852399727 [Eh]
	 Singles Energy            =      -0.0000000000000000 [Eh]
	 Same-Spin Energy          =      -0.2457511185412446 [Eh]
	 Opposite-Spin Energy      =      -0.7459039152796270 [Eh]
	 Correlation Energy        =      -0.9916550338208716 [Eh]
	 Total Energy              =    -225.8588728190608492 [Eh]

	 ================> DF-SCS-MP2 Energies <==================
	-----------------------------------------------------------
	 SCS Same-Spin Scale       =       0.3333333333333333 [-]
	 SCS Opposite-Spin Scale   =       1.2000000000000000 [-]
	 SCS Same-Spin Energy      =      -0.0819170395137482 [Eh]
	 SCS Opposite-Spin Energy  =      -0.8950846983355524 [Eh]
	 SCS Correlation Energy    =      -0.9770017378493006 [Eh]
	 SCS Total Energy          =    -225.8442195230892651 [Eh]
	-----------------------------------------------------------

  Dipole Moment: [D]
     X:    -1.5186      Y:     1.7413      Z:     0.0001     Total:     2.3105

*** Psi4 exiting successfully. Buy a developer a beer!
