                               Psi4 1.3.2 release

  ==> Input File <==

--------------------------------------------------------------------------
#psi4
#
memory 32 gb

molecule  {
0 1
  N       -1.0175820    -0.3767630     0.0000260
  N        0.0381600    -1.2151070    -0.0000250
  C       -0.6759380     0.9397300     0.0000060
  C        0.7089440     0.9680670    -0.0000050
  C        1.0983770    -0.3824860    -0.0000080
  H       -1.4207460     1.7232830     0.0000220
  H        1.3986741     1.9261099    -0.0000105
  H       -1.9477390    -0.7754960     0.0000400
  H        2.0958970    -0.8015150    -0.0000160
units angstrom
no_reorient  #important for SAPT in psi4, default
symmetry c1  #important for SAPT in psi4, default
}

set PROPERTIES_ORIGIN ["COM"]
properties('MP2/aug-cc-pvtz', properties = ['dipole'])
--------------------------------------------------------------------------

    Molecular point group: c1
  Charge       = 0
  Multiplicity = 1
  Basis Set: AUG-CC-PVTZ
    Blend: AUG-CC-PVTZ
  Basis Set: (AUG-CC-PVTZ AUX)
    Blend: AUG-CC-PVTZ-JKFIT

    Orbital Energies [Eh]
    ---------------------

    Doubly Occupied:

       1A    -15.644097     2A    -15.591286     3A    -11.282915
       4A    -11.256665     5A    -11.236335     6A     -1.372357
       7A     -1.093083     8A     -1.050958     9A     -0.822197
      10A     -0.795147    11A     -0.739864    12A     -0.607168
      13A     -0.606388    14A     -0.575646    15A     -0.562295
      16A     -0.462599    17A     -0.365491    18A     -0.346837

  @DF-RHF Final Energy:  -224.86594584488495

   => Energetics <=

    Nuclear Repulsion Energy =            162.1769580960537382
    One-Electron Energy =                -625.2631476373081796
    Two-Electron Energy =                 238.2202436963694936
    Total Energy =                       -224.8659458448849477
  Basis Set: (AUG-CC-PVTZ AUX)
    Blend: AUG-CC-PVTZ-RI
    Molecular point group: c1

    Geometry (in Angstrom), charge = 0, multiplicity = 1:

       Center              X                  Y                   Z               Mass
    ------------   -----------------  -----------------  -----------------  -----------------
         N           -1.017416649593    -0.348855676721     0.000026502946    14.003074004430
         N            0.038325350407    -1.187199676721    -0.000024497054    14.003074004430
         C           -0.675772649593     0.967637323279     0.000006502946    12.000000000000
         C            0.709109350407     0.995974323279    -0.000004497054    12.000000000000
         C            1.098542350407    -0.354578676721    -0.000007497054    12.000000000000
         H           -1.420580649593     1.751190323279     0.000022502946     1.007825032230
         H            1.398839450407     1.954017223279    -0.000009997054     1.007825032230
         H           -1.947573649593    -0.747588676721     0.000040502946     1.007825032230
         H            2.096062350407    -0.773607676721    -0.000015497054     1.007825032230

  Basis Set: AUG-CC-PVTZ
    Blend: AUG-CC-PVTZ
  Basis Set: (AUG-CC-PVTZ AUX)
    Blend: AUG-CC-PVTZ-JKFIT
	 Reference Energy          =    -224.8659458448849477 [Eh]
	 Singles Energy            =      -0.0000000000000000 [Eh]
	 Same-Spin Energy          =      -0.2460084029506936 [Eh]
	 Opposite-Spin Energy      =      -0.7469212039181861 [Eh]
	 Correlation Energy        =      -0.9929296068688798 [Eh]
	 Total Energy              =    -225.8588754517538177 [Eh]

	 ================> DF-SCS-MP2 Energies <==================
	-----------------------------------------------------------
	 SCS Same-Spin Scale       =       0.3333333333333333 [-]
	 SCS Opposite-Spin Scale   =       1.2000000000000000 [-]
	 SCS Same-Spin Energy      =      -0.0820028009835645 [Eh]
	 SCS Opposite-Spin Energy  =      -0.8963054447018233 [Eh]
	 SCS Correlation Energy    =      -0.9783082456853878 [Eh]
	 SCS Total Energy          =    -225.8442540905703311 [Eh]
	-----------------------------------------------------------

  Dipole Moment: [D]
     X:    -1.5262      Y:     1.7274      Z:     0.0001     Total:     2.3050

*** Psi4 exiting successfully. Buy a developer a beer!
