                               Psi4 1.3.2 release

  ==> Input File <==

--------------------------------------------------------------------------
#psi4
#
memory 32 gb

molecule  {
0 1
  N       -1.0175820    -0.3767630     0.0000260
  N        0.1200073    -1.1001594    -0.0000294
  C       -0.6759380     0.9397300     0.0000060
  C        0.7089440     0.9680670    -0.0000050
  C        1.0983770    -0.3824860    -0.0000080
  H       -1.4207460     1.7232830     0.0000220
  H        1.3402470     1.8449540    -0.0000100
  H       -1.9477390    -0.7754960     0.0000400
  H        2.0958970    -0.8015150    -0.0000160
units angstrom
no_reorient  #important for SAPT in psi4, default
symmetry c1  #important for SAPT in psi4, default
}

set PROPERTIES_ORIGIN ["COM"]
properties('MP2/aug-cc-pvtz', properties = ['dipole'])
--------------------------------------------------------------------------

    Molecular point group: c1
  Charge       = 0
  Multiplicity = 1
  Basis Set: AUG-CC-PVTZ
    Blend: AUG-CC-PVTZ
  Basis Set: (AUG-CC-PVTZ AUX)
    Blend: AUG-CC-PVTZ-JKFIT

    Orbital Energies [Eh]
    ---------------------

    Doubly Occupied:

       1A    -15.634863     2A    -15.570376     3A    -11.278114
       4A    -11.238110     5A    -11.216552     6A     -1.389295
       7A     -1.130778     8A     -1.038481     9A     -0.823413
      10A     -0.810196    11A     -0.737278    12A     -0.632174
      13A     -0.616975    14A     -0.587805    15A     -0.569658
      16A     -0.435294    17A     -0.387407    18A     -0.340983

  @DF-RHF Final Energy:  -224.86257913112792

   => Energetics <=

    Nuclear Repulsion Energy =            165.5122682256334485
    One-Electron Energy =                -631.8741921141119064
    Two-Electron Energy =                 241.4993447573505705
    Total Energy =                       -224.8625791311279158
  Basis Set: (AUG-CC-PVTZ AUX)
    Blend: AUG-CC-PVTZ-RI
    Molecular point group: c1

    Geometry (in Angstrom), charge = 0, multiplicity = 1:

       Center              X                  Y                   Z               Mass
    ------------   -----------------  -----------------  -----------------  -----------------
         N           -1.033396518544    -0.371311380803     0.000027401122    14.003074004430
         N            0.104192781456    -1.094707780803    -0.000027998878    14.003074004430
         C           -0.691752518544     0.945181619197     0.000007401122    12.000000000000
         C            0.693129481456     0.973518619197    -0.000003598878    12.000000000000
         C            1.082562481456    -0.377034380803    -0.000006598878    12.000000000000
         H           -1.436560518544     1.728734619197     0.000023401122     1.007825032230
         H            1.324432481456     1.850405619197    -0.000008598878     1.007825032230
         H           -1.963553518544    -0.770044380803     0.000041401122     1.007825032230
         H            2.080082481456    -0.796063380803    -0.000014598878     1.007825032230

  Basis Set: AUG-CC-PVTZ
    Blend: AUG-CC-PVTZ
  Basis Set: (AUG-CC-PVTZ AUX)
    Blend: AUG-CC-PVTZ-JKFIT
	 Reference Energy          =    -224.8625791311279158 [Eh]
	 Singles Energy            =      -0.0000000000000000 [Eh]
	 Same-Spin Energy          =      -0.2426875291946827 [Eh]
	 Opposite-Spin Energy      =      -0.7396273612275261 [Eh]
	 Correlation Energy        =      -0.9823148904222089 [Eh]
	 Total Energy              =    -225.8448940215501182 [Eh]

	 ================> DF-SCS-MP2 Energies <==================
	-----------------------------------------------------------
	 SCS Same-Spin Scale       =       0.3333333333333333 [-]
	 SCS Opposite-Spin Scale   =       1.2000000000000000 [-]
	 SCS Same-Spin Energy      =      -0.0808958430648942 [Eh]
	 SCS Opposite-Spin Energy  =      -0.8875528334730314 [Eh]
	 SCS Correlation Energy    =      -0.9684486765379257 [Eh]
	 SCS Total Energy          =    -225.8310278076658335 [Eh]
	-----------------------------------------------------------

  Dipole Moment: [D]
     X:    -1.5422      Y:     1.4105      Z:     0.0001     Total:     2.0900

*** Psi4 exiting successfully. Buy a developer a beer!
