                               Psi4 1.3.2 release

  ==> Input File <==

--------------------------------------------------------------------------
#psi4
#
memory 32 gb

molecule  {
0 1
  N       -1.0175820    -0.3767630     0.0000260
  N        0.0381600    -1.2151070    -0.0000250
  C       -0.6713135     1.0846448     0.0000060
  C        0.7089440     0.9680670    -0.0000050
  C        1.0983770    -0.3824860    -0.0000080
  H       -1.4207460     1.7232830     0.0000220
  H        1.3402470     1.8449540    -0.0000100
  H       -1.9477390    -0.7754960     0.0000400
  H        2.0958970    -0.8015150    -0.0000160
units angstrom
no_reorient  #important for SAPT in psi4, default
symmetry c1  #important for SAPT in psi4, default
}

set PROPERTIES_ORIGIN ["COM"]
properties('MP2/aug-cc-pvtz', properties = ['dipole'])
--------------------------------------------------------------------------

    Molecular point group: c1
  Charge       = 0
  Multiplicity = 1
  Basis Set: AUG-CC-PVTZ
    Blend: AUG-CC-PVTZ
  Basis Set: (AUG-CC-PVTZ AUX)
    Blend: AUG-CC-PVTZ-JKFIT

    Orbital Energies [Eh]
    ---------------------

    Doubly Occupied:

       1A    -15.636967     2A    -15.605614     3A    -11.285919
       4A    -11.255935     5A    -11.238059     6A     -1.349595
       7A     -1.072610     8A     -1.055194     9A     -0.834157
      10A     -0.795209    11A     -0.737438    12A     -0.627626
      13A     -0.587404    14A     -0.582952    15A     -0.563828
      16A     -0.465649    17A     -0.364735    18A     -0.343177

  @DF-RHF Final Energy:  -224.84272326251755

   => Energetics <=

    Nuclear Repulsion Energy =            160.4162208631735211
    One-Electron Energy =                -621.7137504653878750
    Two-Electron Energy =                 236.4548063396968018
    Total Energy =                       -224.8427232625175520
  Basis Set: (AUG-CC-PVTZ AUX)
    Blend: AUG-CC-PVTZ-RI
    Molecular point group: c1

    Geometry (in Angstrom), charge = 0, multiplicity = 1:

       Center              X                  Y                   Z               Mass
    ------------   -----------------  -----------------  -----------------  -----------------
         N           -1.017366819770    -0.373212655088     0.000026495539    14.003074004430
         N            0.038375180230    -1.211556655088    -0.000024504461    14.003074004430
         C           -0.671098319770     1.088195144912     0.000006495539    12.000000000000
         C            0.709159180230     0.971617344912    -0.000004504461    12.000000000000
         C            1.098592180230    -0.378935655088    -0.000007504461    12.000000000000
         H           -1.420530819770     1.726833344912     0.000022495539     1.007825032230
         H            1.340462180230     1.848504344912    -0.000009504461     1.007825032230
         H           -1.947523819770    -0.771945655088     0.000040495539     1.007825032230
         H            2.096112180230    -0.797964655088    -0.000015504461     1.007825032230

  Basis Set: AUG-CC-PVTZ
    Blend: AUG-CC-PVTZ
  Basis Set: (AUG-CC-PVTZ AUX)
    Blend: AUG-CC-PVTZ-JKFIT
	 Reference Energy          =    -224.8427232625175520 [Eh]
	 Singles Energy            =      -0.0000000000000000 [Eh]
	 Same-Spin Energy          =      -0.2472893328080386 [Eh]
	 Opposite-Spin Energy      =      -0.7512045405315583 [Eh]
	 Correlation Energy        =      -0.9984938733395969 [Eh]
	 Total Energy              =    -225.8412171358571356 [Eh]

	 ================> DF-SCS-MP2 Energies <==================
	-----------------------------------------------------------
	 SCS Same-Spin Scale       =       0.3333333333333333 [-]
	 SCS Opposite-Spin Scale   =       1.2000000000000000 [-]
	 SCS Same-Spin Energy      =      -0.0824297776026795 [Eh]
	 SCS Opposite-Spin Energy  =      -0.9014454486378699 [Eh]
	 SCS Correlation Energy    =      -0.9838752262405495 [Eh]
	 SCS Total Energy          =    -225.8265984887580942 [Eh]
	-----------------------------------------------------------

  Dipole Moment: [D]
     X:    -1.3351      Y:     1.7864      Z:     0.0001     Total:     2.2302

*** Psi4 exiting successfully. Buy a developer a beer!
