                               Psi4 1.4a3.dev225

  ==> Input File <==

--------------------------------------------------------------------------
#psi4
#
memory 32 gb

molecule  {
0 1
  N       -1.0175820    -0.3767630     0.0000260
  N        0.0381600    -1.2151070    -0.0000250
  C       -0.6633785     0.9881269     0.0000053
  C        0.7089440     0.9680670    -0.0000050
  C        1.0983770    -0.3824860    -0.0000080
  H       -1.4207460     1.7232830     0.0000220
  H        1.3402470     1.8449540    -0.0000100
  H       -1.9477390    -0.7754960     0.0000400
  H        2.0958970    -0.8015150    -0.0000160
units angstrom
no_reorient  #important for SAPT in psi4, default
symmetry c1  #important for SAPT in psi4, default
}

set PROPERTIES_ORIGIN ["COM"]
properties('MP2/aug-cc-pvtz', properties = ['dipole'])
--------------------------------------------------------------------------

    Molecular point group: c1
  Charge       = 0
  Multiplicity = 1
  Basis Set: AUG-CC-PVTZ
    Blend: AUG-CC-PVTZ
  Basis Set: (AUG-CC-PVTZ AUX)
    Blend: AUG-CC-PVTZ-JKFIT

    Orbital Energies [Eh]
    ---------------------

    Doubly Occupied:

       1A    -15.640374     2A    -15.595854     3A    -11.282379
       4A    -11.255579     5A    -11.228217     6A     -1.362597
       7A     -1.083699     8A     -1.056117     9A     -0.825034
      10A     -0.796493    11A     -0.741562    12A     -0.611846
      13A     -0.598637    14A     -0.585865    15A     -0.571651
      16A     -0.464121    17A     -0.363243    18A     -0.347932

  @DF-RHF Final Energy:  -224.86875478481295

   => Energetics <=

    Nuclear Repulsion Energy =            161.9606124054461986
    One-Electron Energy =                -624.8363380821714372
    Two-Electron Energy =                 238.0069708919122604
    Total Energy =                       -224.8687547848129498
  Basis Set: (AUG-CC-PVTZ AUX)
    Blend: AUG-CC-PVTZ-RI
    Molecular point group: c1

    Geometry (in Angstrom), charge = 0, multiplicity = 1:

       Center              X                  Y                   Z               Mass
    ------------   -----------------  -----------------  -----------------  -----------------
         N           -1.018766343159    -0.356189459309     0.000026619001    14.003074004430
         N            0.036975656841    -1.194533459309    -0.000024380999    14.003074004430
         C           -0.664562843159     1.008700440691     0.000005919001    12.000000000000
         C            0.707759656841     0.988640540691    -0.000004380999    12.000000000000
         C            1.097192656841    -0.361912459309    -0.000007380999    12.000000000000
         H           -1.421930343159     1.743856540691     0.000022619001     1.007825032230
         H            1.339062656841     1.865527540691    -0.000009380999     1.007825032230
         H           -1.948923343159    -0.754922459309     0.000040619001     1.007825032230
         H            2.094712656841    -0.780941459309    -0.000015380999     1.007825032230

  Basis Set: AUG-CC-PVTZ
    Blend: AUG-CC-PVTZ
  Basis Set: (AUG-CC-PVTZ AUX)
    Blend: AUG-CC-PVTZ-JKFIT
	 Reference Energy          =    -224.8687547848129498 [Eh]
	 Singles Energy            =      -0.0000000000000000 [Eh]
	 Same-Spin Energy          =      -0.2461554317308312 [Eh]
	 Opposite-Spin Energy      =      -0.7475075653339311 [Eh]
	 Correlation Energy        =      -0.9936629970647624 [Eh]
	 Total Energy              =    -225.8624177818777241 [Eh]

	 ================> DF-SCS-MP2 Energies <==================
	-----------------------------------------------------------
	 SCS Same-Spin Scale       =       0.3333333333333333 [-]
	 SCS Opposite-Spin Scale   =       1.2000000000000000 [-]
	 SCS Same-Spin Energy      =      -0.0820518105769437 [Eh]
	 SCS Opposite-Spin Energy  =      -0.8970090784007173 [Eh]
	 SCS Correlation Energy    =      -0.9790608889776610 [Eh]
	 SCS Total Energy          =    -225.8478156737906204 [Eh]
	-----------------------------------------------------------

  Dipole Moment: [D]
     X:    -1.4488      Y:     1.7701      Z:     0.0001     Total:     2.2874

*** Psi4 exiting successfully. Buy a developer a beer!
