                               Psi4 1.3.2 release

  ==> Input File <==

--------------------------------------------------------------------------
#psi4
#
memory 32 gb

molecule  {
0 1
  N       -1.0175820    -0.3767630     0.0000260
  N        0.0381600    -1.2151070    -0.0000250
  C       -0.6759380     0.9397300     0.0000060
  C        0.7082385     0.9922322    -0.0000047
  C        1.0983770    -0.3824860    -0.0000080
  H       -1.4207460     1.7232830     0.0000220
  H        1.3402470     1.8449540    -0.0000100
  H       -1.9477390    -0.7754960     0.0000400
  H        2.0958970    -0.8015150    -0.0000160
units angstrom
no_reorient  #important for SAPT in psi4, default
symmetry c1  #important for SAPT in psi4, default
}

set PROPERTIES_ORIGIN ["COM"]
properties('MP2/aug-cc-pvtz', properties = ['dipole'])
--------------------------------------------------------------------------

    Molecular point group: c1
  Charge       = 0
  Multiplicity = 1
  Basis Set: AUG-CC-PVTZ
    Blend: AUG-CC-PVTZ
  Basis Set: (AUG-CC-PVTZ AUX)
    Blend: AUG-CC-PVTZ-JKFIT

    Orbital Energies [Eh]
    ---------------------

    Doubly Occupied:

       1A    -15.642630     2A    -15.591695     3A    -11.282811
       4A    -11.258489     5A    -11.226354     6A     -1.370625
       7A     -1.091567     8A     -1.051290     9A     -0.823476
      10A     -0.800672    11A     -0.742489    12A     -0.608986
      13A     -0.604850    14A     -0.597175    15A     -0.560732
      16A     -0.462789    17A     -0.362431    18A     -0.347507

  @DF-RHF Final Energy:  -224.87299818758615

   => Energetics <=

    Nuclear Repulsion Energy =            162.2674406937110518
    One-Electron Energy =                -625.4277419865051115
    Two-Electron Energy =                 238.2873031052079398
    Total Energy =                       -224.8729981875861483
  Basis Set: (AUG-CC-PVTZ AUX)
    Blend: AUG-CC-PVTZ-RI
    Molecular point group: c1

    Geometry (in Angstrom), charge = 0, multiplicity = 1:

       Center              X                  Y                   Z               Mass
    ------------   -----------------  -----------------  -----------------  -----------------
         N           -1.016426749239    -0.351915630587     0.000026442627    14.003074004430
         N            0.039315250761    -1.190259630587    -0.000024557373    14.003074004430
         C           -0.674782749239     0.964577369413     0.000006442627    12.000000000000
         C            0.709393750761     1.017079569413    -0.000004257373    12.000000000000
         C            1.099532250761    -0.357638630587    -0.000007557373    12.000000000000
         H           -1.419590749239     1.748130369413     0.000022442627     1.007825032230
         H            1.341402250761     1.869801369413    -0.000009557373     1.007825032230
         H           -1.946583749239    -0.750648630587     0.000040442627     1.007825032230
         H            2.097052250761    -0.776667630587    -0.000015557373     1.007825032230

  Basis Set: AUG-CC-PVTZ
    Blend: AUG-CC-PVTZ
  Basis Set: (AUG-CC-PVTZ AUX)
    Blend: AUG-CC-PVTZ-JKFIT
	 Reference Energy          =    -224.8729981875861483 [Eh]
	 Singles Energy            =      -0.0000000000000000 [Eh]
	 Same-Spin Energy          =      -0.2455893381528120 [Eh]
	 Opposite-Spin Energy      =      -0.7460980531805976 [Eh]
	 Correlation Energy        =      -0.9916873913334097 [Eh]
	 Total Energy              =    -225.8646855789195627 [Eh]

	 ================> DF-SCS-MP2 Energies <==================
	-----------------------------------------------------------
	 SCS Same-Spin Scale       =       0.3333333333333333 [-]
	 SCS Opposite-Spin Scale   =       1.2000000000000000 [-]
	 SCS Same-Spin Energy      =      -0.0818631127176040 [Eh]
	 SCS Opposite-Spin Energy  =      -0.8953176638167172 [Eh]
	 SCS Correlation Energy    =      -0.9771807765343212 [Eh]
	 SCS Total Energy          =    -225.8501789641204596 [Eh]
	-----------------------------------------------------------

  Dipole Moment: [D]
     X:    -1.5138      Y:     1.7300      Z:     0.0001     Total:     2.2988

*** Psi4 exiting successfully. Buy a developer a beer!
