                               Psi4 1.3.2 release

  ==> Input File <==

--------------------------------------------------------------------------
#psi4
#
memory 32 gb

molecule  {
0 1
  N       -1.0320523    -0.3953159     0.0000255
  N        0.0381600    -1.2151070    -0.0000250
  C       -0.6759380     0.9397300     0.0000060
  C        0.7089440     0.9680670    -0.0000050
  C        1.0983770    -0.3824860    -0.0000080
  H       -1.4207460     1.7232830     0.0000220
  H        1.3402470     1.8449540    -0.0000100
  H       -1.9477390    -0.7754960     0.0000400
  H        2.0958970    -0.8015150    -0.0000160
units angstrom
no_reorient  #important for SAPT in psi4, default
symmetry c1  #important for SAPT in psi4, default
}

set PROPERTIES_ORIGIN ["COM"]
properties('MP2/aug-cc-pvtz', properties = ['dipole'])
--------------------------------------------------------------------------

    Molecular point group: c1
  Charge       = 0
  Multiplicity = 1
  Basis Set: AUG-CC-PVTZ
    Blend: AUG-CC-PVTZ
  Basis Set: (AUG-CC-PVTZ AUX)
    Blend: AUG-CC-PVTZ-JKFIT

    Orbital Energies [Eh]
    ---------------------

    Doubly Occupied:

       1A    -15.641796     2A    -15.591830     3A    -11.283680
       4A    -11.256299     5A    -11.227465     6A     -1.367801
       7A     -1.091036     8A     -1.052859     9A     -0.829676
      10A     -0.797897    11A     -0.740411    12A     -0.614508
      13A     -0.602476    14A     -0.591681    15A     -0.564321
      16A     -0.460414    17A     -0.365483    18A     -0.345828

  @DF-RHF Final Energy:  -224.87257380550508

   => Energetics <=

    Nuclear Repulsion Energy =            162.2291020376696622
    One-Electron Energy =                -625.3524303509184392
    Two-Electron Energy =                 238.2507545077436646
    Total Energy =                       -224.8725738055050840
  Basis Set: (AUG-CC-PVTZ AUX)
    Blend: AUG-CC-PVTZ-RI
    Molecular point group: c1

    Geometry (in Angstrom), charge = 0, multiplicity = 1:

       Center              X                  Y                   Z               Mass
    ------------   -----------------  -----------------  -----------------  -----------------
         N           -1.028043287273    -0.362387980144     0.000026098446    14.003074004430
         N            0.042169012727    -1.182179080144    -0.000024401554    14.003074004430
         C           -0.671928987273     0.972657919856     0.000006598446    12.000000000000
         C            0.712953012727     1.000994919856    -0.000004401554    12.000000000000
         C            1.102386012727    -0.349558080144    -0.000007401554    12.000000000000
         H           -1.416736987273     1.756210919856     0.000022598446     1.007825032230
         H            1.344256012727     1.877881919856    -0.000009401554     1.007825032230
         H           -1.943729987273    -0.742568080144     0.000040598446     1.007825032230
         H            2.099906012727    -0.768587080144    -0.000015401554     1.007825032230

  Basis Set: AUG-CC-PVTZ
    Blend: AUG-CC-PVTZ
  Basis Set: (AUG-CC-PVTZ AUX)
    Blend: AUG-CC-PVTZ-JKFIT
	 Reference Energy          =    -224.8725738055050840 [Eh]
	 Singles Energy            =      -0.0000000000000000 [Eh]
	 Same-Spin Energy          =      -0.2456982349841658 [Eh]
	 Opposite-Spin Energy      =      -0.7463174917702220 [Eh]
	 Correlation Energy        =      -0.9920157267543879 [Eh]
	 Total Energy              =    -225.8645895322594583 [Eh]

	 ================> DF-SCS-MP2 Energies <==================
	-----------------------------------------------------------
	 SCS Same-Spin Scale       =       0.3333333333333333 [-]
	 SCS Opposite-Spin Scale   =       1.2000000000000000 [-]
	 SCS Same-Spin Energy      =      -0.0818994116613886 [Eh]
	 SCS Opposite-Spin Energy  =      -0.8955809901242664 [Eh]
	 SCS Correlation Energy    =      -0.9774804017856550 [Eh]
	 SCS Total Energy          =    -225.8500542072907251 [Eh]
	-----------------------------------------------------------

  Dipole Moment: [D]
     X:    -1.4675      Y:     1.7550      Z:     0.0001     Total:     2.2877

*** Psi4 exiting successfully. Buy a developer a beer!
