                               Psi4 1.4a3.dev225

  ==> Input File <==

--------------------------------------------------------------------------
#psi4
#
memory 32 gb

molecule  {
0 1
  N       -1.0175820    -0.3767630     0.0000260
  N        0.0381600    -1.2151070    -0.0000250
  C       -0.6759380     0.9397300     0.0000060
  C        0.7089440     0.9680670    -0.0000050
  C        1.1141063    -0.3701333    -0.0000077
  H       -1.4207460     1.7232830     0.0000220
  H        1.3402470     1.8449540    -0.0000100
  H       -1.9477390    -0.7754960     0.0000400
  H        2.0958970    -0.8015150    -0.0000160
units angstrom
no_reorient  #important for SAPT in psi4, default
symmetry c1  #important for SAPT in psi4, default
}

set PROPERTIES_ORIGIN ["COM"]
properties('MP2/aug-cc-pvtz', properties = ['dipole'])
--------------------------------------------------------------------------

    Molecular point group: c1
  Charge       = 0
  Multiplicity = 1
  Basis Set: AUG-CC-PVTZ
    Blend: AUG-CC-PVTZ
  Basis Set: (AUG-CC-PVTZ AUX)
    Blend: AUG-CC-PVTZ-JKFIT

    Orbital Energies [Eh]
    ---------------------

    Doubly Occupied:

       1A    -15.645466     2A    -15.591624     3A    -11.281760
       4A    -11.256079     5A    -11.225737     6A     -1.369231
       7A     -1.088480     8A     -1.053923     9A     -0.826772
      10A     -0.799484    11A     -0.742176    12A     -0.608445
      13A     -0.604273    14A     -0.590841    15A     -0.567455
      16A     -0.461907    17A     -0.365049    18A     -0.344023

  @DF-RHF Final Energy:  -224.87146378347026

   => Energetics <=

    Nuclear Repulsion Energy =            162.3709553898886782
    One-Electron Energy =                -625.6393865175211886
    Two-Electron Energy =                 238.3969673441622774
    Total Energy =                       -224.8714637834702614
  Basis Set: (AUG-CC-PVTZ AUX)
    Blend: AUG-CC-PVTZ-RI
    Molecular point group: c1

    Geometry (in Angstrom), charge = 0, multiplicity = 1:

       Center              X                  Y                   Z               Mass
    ------------   -----------------  -----------------  -----------------  -----------------
         N           -1.019325411747    -0.349832219115     0.000026442627    14.003074004430
         N            0.036416588253    -1.188176219115    -0.000024557373    14.003074004430
         C           -0.677681411747     0.966660780885     0.000006442627    12.000000000000
         C            0.707200588253     0.994997780885    -0.000004557373    12.000000000000
         C            1.112362888253    -0.343202519115    -0.000007257373    12.000000000000
         H           -1.422489411747     1.750213780885     0.000022442627     1.007825032230
         H            1.338503588253     1.871884780885    -0.000009557373     1.007825032230
         H           -1.949482411747    -0.748565219115     0.000040442627     1.007825032230
         H            2.094153588253    -0.774584219115    -0.000015557373     1.007825032230

  Basis Set: AUG-CC-PVTZ
    Blend: AUG-CC-PVTZ
  Basis Set: (AUG-CC-PVTZ AUX)
    Blend: AUG-CC-PVTZ-JKFIT
	 Reference Energy          =    -224.8714637834702614 [Eh]
	 Singles Energy            =      -0.0000000000000000 [Eh]
	 Same-Spin Energy          =      -0.2463669417479325 [Eh]
	 Opposite-Spin Energy      =      -0.7471826609452010 [Eh]
	 Correlation Energy        =      -0.9935496026931335 [Eh]
	 Total Energy              =    -225.8650133861633833 [Eh]

	 ================> DF-SCS-MP2 Energies <==================
	-----------------------------------------------------------
	 SCS Same-Spin Scale       =       0.3333333333333333 [-]
	 SCS Opposite-Spin Scale   =       1.2000000000000000 [-]
	 SCS Same-Spin Energy      =      -0.0821223139159775 [Eh]
	 SCS Opposite-Spin Energy  =      -0.8966191931342412 [Eh]
	 SCS Correlation Energy    =      -0.9787415070502187 [Eh]
	 SCS Total Energy          =    -225.8502052905204778 [Eh]
	-----------------------------------------------------------

  Dipole Moment: [D]
     X:    -1.5272      Y:     1.7490      Z:     0.0001     Total:     2.3219

*** Psi4 exiting successfully. Buy a developer a beer!
