                               Psi4 1.3.2 release

  ==> Input File <==

--------------------------------------------------------------------------
#psi4
#
memory 32 gb

molecule  {
0 1
  N       -1.0175820    -0.3767630     0.0000260
  N        0.0381600    -1.2151070    -0.0000250
  C       -0.6752325     0.9155648     0.0000060
  C        0.7089440     0.9680670    -0.0000050
  C        1.0983770    -0.3824860    -0.0000080
  H       -1.4207460     1.7232830     0.0000220
  H        1.3402470     1.8449540    -0.0000100
  H       -1.9477390    -0.7754960     0.0000400
  H        2.0958970    -0.8015150    -0.0000160
units angstrom
no_reorient  #important for SAPT in psi4, default
symmetry c1  #important for SAPT in psi4, default
}

set PROPERTIES_ORIGIN ["COM"]
properties('MP2/aug-cc-pvtz', properties = ['dipole'])
--------------------------------------------------------------------------

    Molecular point group: c1
  Charge       = 0
  Multiplicity = 1
  Basis Set: AUG-CC-PVTZ
    Blend: AUG-CC-PVTZ
  Basis Set: (AUG-CC-PVTZ AUX)
    Blend: AUG-CC-PVTZ-JKFIT

    Orbital Energies [Eh]
    ---------------------

    Doubly Occupied:

       1A    -15.644219     2A    -15.588004     3A    -11.281663
       4A    -11.255733     5A    -11.223601     6A     -1.376607
       7A     -1.096317     8A     -1.052496     9A     -0.825346
      10A     -0.800892    11A     -0.741686    12A     -0.609519
      13A     -0.608829    14A     -0.593533    15A     -0.559336
      16A     -0.461767    17A     -0.366691    18A     -0.345332

  @DF-RHF Final Energy:  -224.87383272133513

   => Energetics <=

    Nuclear Repulsion Energy =            163.0160944007774333
    One-Electron Energy =                -626.9167143858657028
    Two-Electron Energy =                 239.0267872637531354
    Total Energy =                       -224.8738327213351340
  Basis Set: (AUG-CC-PVTZ AUX)
    Blend: AUG-CC-PVTZ-RI
    Molecular point group: c1

    Geometry (in Angstrom), charge = 0, multiplicity = 1:

       Center              X                  Y                   Z               Mass
    ------------   -----------------  -----------------  -----------------  -----------------
         N           -1.016675612189    -0.343391430813     0.000026495539    14.003074004430
         N            0.039066387811    -1.181735430813    -0.000024504461    14.003074004430
         C           -0.674326112189     0.948936369187     0.000006495539    12.000000000000
         C            0.709850387811     1.001438569187    -0.000004504461    12.000000000000
         C            1.099283387811    -0.349114430813    -0.000007504461    12.000000000000
         H           -1.419839612189     1.756654569187     0.000022495539     1.007825032230
         H            1.341153387811     1.878325569187    -0.000009504461     1.007825032230
         H           -1.946832612189    -0.742124430813     0.000040495539     1.007825032230
         H            2.096803387811    -0.768143430813    -0.000015504461     1.007825032230

  Basis Set: AUG-CC-PVTZ
    Blend: AUG-CC-PVTZ
  Basis Set: (AUG-CC-PVTZ AUX)
    Blend: AUG-CC-PVTZ-JKFIT
	 Reference Energy          =    -224.8738327213351340 [Eh]
	 Singles Energy            =      -0.0000000000000000 [Eh]
	 Same-Spin Energy          =      -0.2456506054116089 [Eh]
	 Opposite-Spin Energy      =      -0.7455158415110902 [Eh]
	 Correlation Energy        =      -0.9911664469226991 [Eh]
	 Total Energy              =    -225.8649991682578388 [Eh]

	 ================> DF-SCS-MP2 Energies <==================
	-----------------------------------------------------------
	 SCS Same-Spin Scale       =       0.3333333333333333 [-]
	 SCS Opposite-Spin Scale   =       1.2000000000000000 [-]
	 SCS Same-Spin Energy      =      -0.0818835351372030 [Eh]
	 SCS Opposite-Spin Energy  =      -0.8946190098133082 [Eh]
	 SCS Correlation Energy    =      -0.9765025449505111 [Eh]
	 SCS Total Energy          =    -225.8503352662856400 [Eh]
	-----------------------------------------------------------

  Dipole Moment: [D]
     X:    -1.5533      Y:     1.7316      Z:     0.0001     Total:     2.3262

*** Psi4 exiting successfully. Buy a developer a beer!
