                               Psi4 1.3.2 release

  ==> Input File <==

--------------------------------------------------------------------------
#psi4
#
memory 32 gb

molecule  {
0 1
  N       -1.0175820    -0.3767630     0.0000260
  N        0.0381600    -1.2151070    -0.0000250
  C       -0.6759380     0.9397300     0.0000060
  C        0.7089440     0.9680670    -0.0000050
  C        1.0983770    -0.3824860    -0.0000080
  H       -1.4207460     1.7232830     0.0000220
  H        1.3402470     1.8449540    -0.0000100
  H       -1.7639167    -0.6966964     0.0000372
  H        2.0958970    -0.8015150    -0.0000160
units angstrom
no_reorient  #important for SAPT in psi4, default
symmetry c1  #important for SAPT in psi4, default
}

set PROPERTIES_ORIGIN ["COM"]
properties('MP2/aug-cc-pvtz', properties = ['dipole'])
--------------------------------------------------------------------------

    Molecular point group: c1
  Charge       = 0
  Multiplicity = 1
  Basis Set: AUG-CC-PVTZ
    Blend: AUG-CC-PVTZ
  Basis Set: (AUG-CC-PVTZ AUX)
    Blend: AUG-CC-PVTZ-JKFIT

    Orbital Energies [Eh]
    ---------------------

    Doubly Occupied:

       1A    -15.623175     2A    -15.592214     3A    -11.284164
       4A    -11.257869     5A    -11.227441     6A     -1.386951
       7A     -1.123055     8A     -1.060779     9A     -0.867809
      10A     -0.802698    11A     -0.749599    12A     -0.624946
      13A     -0.609452    14A     -0.595162    15A     -0.566149
      16A     -0.465228    17A     -0.369185    18A     -0.348029

  @DF-RHF Final Energy:  -224.82869964454753

   => Energetics <=

    Nuclear Repulsion Energy =            163.9513075443500725
    One-Electron Energy =                -628.4522058482145894
    Two-Electron Energy =                 239.6721986593169902
    Total Energy =                       -224.8286996445475268
  Basis Set: (AUG-CC-PVTZ AUX)
    Blend: AUG-CC-PVTZ-RI
    Molecular point group: c1

    Geometry (in Angstrom), charge = 0, multiplicity = 1:

       Center              X                  Y                   Z               Mass
    ------------   -----------------  -----------------  -----------------  -----------------
         N           -1.019274103465    -0.348820773323     0.000026537015    14.003074004430
         N            0.036467896535    -1.187164773323    -0.000024462985    14.003074004430
         C           -0.677630103465     0.967672226677     0.000006537015    12.000000000000
         C            0.707251896535     0.996009226677    -0.000004462985    12.000000000000
         C            1.096684896535    -0.354543773323    -0.000007462985    12.000000000000
         H           -1.422438103465     1.751225226677     0.000022537015     1.007825032230
         H            1.338554896535     1.872896226677    -0.000009462985     1.007825032230
         H           -1.765608803465    -0.668754173323     0.000037737015     1.007825032230
         H            2.094204896535    -0.773572773323    -0.000015462985     1.007825032230

  Basis Set: AUG-CC-PVTZ
    Blend: AUG-CC-PVTZ
  Basis Set: (AUG-CC-PVTZ AUX)
    Blend: AUG-CC-PVTZ-JKFIT
	 Reference Energy          =    -224.8286996445475268 [Eh]
	 Singles Energy            =      -0.0000000000000000 [Eh]
	 Same-Spin Energy          =      -0.2444382518247574 [Eh]
	 Opposite-Spin Energy      =      -0.7436365595788017 [Eh]
	 Correlation Energy        =      -0.9880748114035591 [Eh]
	 Total Energy              =    -225.8167744559510766 [Eh]

	 ================> DF-SCS-MP2 Energies <==================
	-----------------------------------------------------------
	 SCS Same-Spin Scale       =       0.3333333333333333 [-]
	 SCS Opposite-Spin Scale   =       1.2000000000000000 [-]
	 SCS Same-Spin Energy      =      -0.0814794172749191 [Eh]
	 SCS Opposite-Spin Energy  =      -0.8923638714945620 [Eh]
	 SCS Correlation Energy    =      -0.9738432887694811 [Eh]
	 SCS Total Energy          =    -225.8025429333169996 [Eh]
	-----------------------------------------------------------

  Dipole Moment: [D]
     X:    -1.2697      Y:     1.8679      Z:     0.0001     Total:     2.2586

*** Psi4 exiting successfully. Buy a developer a beer!
