                               Psi4 1.3.2 release

  ==> Input File <==

--------------------------------------------------------------------------
#psi4
#
memory 32 gb

molecule  {
0 1
  N       -0.8780994    -0.4052626     0.0000253
  N        0.0381600    -1.2151070    -0.0000250
  C       -0.6759380     0.9397300     0.0000060
  C        0.7089440     0.9680670    -0.0000050
  C        1.0983770    -0.3824860    -0.0000080
  H       -1.4207460     1.7232830     0.0000220
  H        1.3402470     1.8449540    -0.0000100
  H       -1.9477390    -0.7754960     0.0000400
  H        2.0958970    -0.8015150    -0.0000160
units angstrom
no_reorient  #important for SAPT in psi4, default
symmetry c1  #important for SAPT in psi4, default
}

set PROPERTIES_ORIGIN ["COM"]
properties('MP2/aug-cc-pvtz', properties = ['dipole'])
--------------------------------------------------------------------------

    Molecular point group: c1
  Charge       = 0
  Multiplicity = 1
  Basis Set: AUG-CC-PVTZ
    Blend: AUG-CC-PVTZ
  Basis Set: (AUG-CC-PVTZ AUX)
    Blend: AUG-CC-PVTZ-JKFIT

    Orbital Energies [Eh]
    ---------------------

    Doubly Occupied:

       1A    -15.661472     2A    -15.591343     3A    -11.270360
       4A    -11.242806     5A    -11.225059     6A     -1.437720
       7A     -1.091760     8A     -1.057501     9A     -0.816584
      10A     -0.795799    11A     -0.750244    12A     -0.639831
      13A     -0.611835    14A     -0.573199    15A     -0.558085
      16A     -0.468935    17A     -0.362976    18A     -0.339955

  @DF-RHF Final Energy:  -224.84048916615711

   => Energetics <=

    Nuclear Repulsion Energy =            165.4064487438301398
    One-Electron Energy =                -631.5029496577109285
    Two-Electron Energy =                 241.2560117477236759
    Total Energy =                       -224.8404891661571128
  Basis Set: (AUG-CC-PVTZ AUX)
    Blend: AUG-CC-PVTZ-RI
    Molecular point group: c1

    Geometry (in Angstrom), charge = 0, multiplicity = 1:

       Center              X                  Y                   Z               Mass
    ------------   -----------------  -----------------  -----------------  -----------------
         N           -0.905776082591    -0.370287507888     0.000025939609    14.003074004430
         N            0.010483317409    -1.180131907888    -0.000024360391    14.003074004430
         C           -0.703614682591     0.974705092112     0.000006639609    12.000000000000
         C            0.681267317409     1.003042092112    -0.000004360391    12.000000000000
         C            1.070700317409    -0.347510907888    -0.000007360391    12.000000000000
         H           -1.448422682591     1.758258092112     0.000022639609     1.007825032230
         H            1.312570317409     1.879929092112    -0.000009360391     1.007825032230
         H           -1.975415682591    -0.740520907888     0.000040639609     1.007825032230
         H            2.068220317409    -0.766539907888    -0.000015360391     1.007825032230

  Basis Set: AUG-CC-PVTZ
    Blend: AUG-CC-PVTZ
  Basis Set: (AUG-CC-PVTZ AUX)
    Blend: AUG-CC-PVTZ-JKFIT
	 Reference Energy          =    -224.8404891661571128 [Eh]
	 Singles Energy            =      -0.0000000000000000 [Eh]
	 Same-Spin Energy          =      -0.2478480599974183 [Eh]
	 Opposite-Spin Energy      =      -0.7469786211246228 [Eh]
	 Correlation Energy        =      -0.9948266811220411 [Eh]
	 Total Energy              =    -225.8353158472791620 [Eh]

	 ================> DF-SCS-MP2 Energies <==================
	-----------------------------------------------------------
	 SCS Same-Spin Scale       =       0.3333333333333333 [-]
	 SCS Opposite-Spin Scale   =       1.2000000000000000 [-]
	 SCS Same-Spin Energy      =      -0.0826160199991394 [Eh]
	 SCS Opposite-Spin Energy  =      -0.8963743453495473 [Eh]
	 SCS Correlation Energy    =      -0.9789903653486868 [Eh]
	 SCS Total Energy          =    -225.8194795315058059 [Eh]
	-----------------------------------------------------------

  Dipole Moment: [D]
     X:    -1.7275      Y:     1.6328      Z:     0.0001     Total:     2.3771

*** Psi4 exiting successfully. Buy a developer a beer!
