                               Psi4 1.3.2 release

  ==> Input File <==

--------------------------------------------------------------------------
#psi4
#
memory 32 gb

molecule  {
0 1
  N       -1.0175820    -0.3767630     0.0000260
  N        0.0381600    -1.2151070    -0.0000250
  C       -0.6759380     0.9397300     0.0000060
  C        0.5089859     0.9639755    -0.0000034
  C        1.0983770    -0.3824860    -0.0000080
  H       -1.4207460     1.7232830     0.0000220
  H        1.3402470     1.8449540    -0.0000100
  H       -1.9477390    -0.7754960     0.0000400
  H        2.0958970    -0.8015150    -0.0000160
units angstrom
no_reorient  #important for SAPT in psi4, default
symmetry c1  #important for SAPT in psi4, default
}

set PROPERTIES_ORIGIN ["COM"]
properties('MP2/aug-cc-pvtz', properties = ['dipole'])
--------------------------------------------------------------------------

    Molecular point group: c1
  Charge       = 0
  Multiplicity = 1
  Basis Set: AUG-CC-PVTZ
    Blend: AUG-CC-PVTZ
  Basis Set: (AUG-CC-PVTZ AUX)
    Blend: AUG-CC-PVTZ-JKFIT

    Orbital Energies [Eh]
    ---------------------

    Doubly Occupied:

       1A    -15.623991     2A    -15.599961     3A    -11.258905
       4A    -11.250293     5A    -11.217000     6A     -1.377346
       7A     -1.103491     8A     -1.070989     9A     -0.816962
      10A     -0.786070    11A     -0.750187    12A     -0.616862
      13A     -0.614000    14A     -0.596478    15A     -0.531581
      16A     -0.455274    17A     -0.384820    18A     -0.351671

  @DF-RHF Final Energy:  -224.81190641912491

   => Energetics <=

    Nuclear Repulsion Energy =            165.1501832977858442
    One-Electron Energy =                -631.1124197431796574
    Two-Electron Energy =                 241.1503300262689322
    Total Energy =                       -224.8119064191249095
  Basis Set: (AUG-CC-PVTZ AUX)
    Blend: AUG-CC-PVTZ-RI
    Molecular point group: c1

    Geometry (in Angstrom), charge = 0, multiplicity = 1:

       Center              X                  Y                   Z               Mass
    ------------   -----------------  -----------------  -----------------  -----------------
         N           -0.981283879166    -0.346931898697     0.000026213342    14.003074004430
         N            0.074458120834    -1.185275898697    -0.000024786658    14.003074004430
         C           -0.639639879166     0.969561101303     0.000006213342    12.000000000000
         C            0.545284020834     0.993806601303    -0.000003186658    12.000000000000
         C            1.134675120834    -0.352654898697    -0.000007786658    12.000000000000
         H           -1.384447879166     1.753114101303     0.000022213342     1.007825032230
         H            1.376545120834     1.874785101303    -0.000009786658     1.007825032230
         H           -1.911440879166    -0.745664898697     0.000040213342     1.007825032230
         H            2.132195120834    -0.771683898697    -0.000015786658     1.007825032230

  Basis Set: AUG-CC-PVTZ
    Blend: AUG-CC-PVTZ
  Basis Set: (AUG-CC-PVTZ AUX)
    Blend: AUG-CC-PVTZ-JKFIT
	 Reference Energy          =    -224.8119064191249095 [Eh]
	 Singles Energy            =      -0.0000000000000000 [Eh]
	 Same-Spin Energy          =      -0.2445382851610984 [Eh]
	 Opposite-Spin Energy      =      -0.7446862193635613 [Eh]
	 Correlation Energy        =      -0.9892245045246597 [Eh]
	 Total Energy              =    -225.8011309236495663 [Eh]

	 ================> DF-SCS-MP2 Energies <==================
	-----------------------------------------------------------
	 SCS Same-Spin Scale       =       0.3333333333333333 [-]
	 SCS Opposite-Spin Scale   =       1.2000000000000000 [-]
	 SCS Same-Spin Energy      =      -0.0815127617203661 [Eh]
	 SCS Opposite-Spin Energy  =      -0.8936234632362735 [Eh]
	 SCS Correlation Energy    =      -0.9751362249566397 [Eh]
	 SCS Total Energy          =    -225.7870426440815379 [Eh]
	-----------------------------------------------------------

  Dipole Moment: [D]
     X:    -1.3527      Y:     1.7573      Z:     0.0001     Total:     2.2176

*** Psi4 exiting successfully. Buy a developer a beer!
