                               Psi4 1.3.2 release

  ==> Input File <==

--------------------------------------------------------------------------
#psi4
#
memory 32 gb

molecule  {
0 1
  N       -1.0175820    -0.3767630     0.0000260
  N        0.0381600    -1.2151070    -0.0000250
  C       -0.6741054     0.8914156     0.0000060
  C        0.7089440     0.9680670    -0.0000050
  C        1.0983770    -0.3824860    -0.0000080
  H       -1.4207460     1.7232830     0.0000220
  H        1.3402470     1.8449540    -0.0000100
  H       -1.9477390    -0.7754960     0.0000400
  H        2.0958970    -0.8015150    -0.0000160
units angstrom
no_reorient  #important for SAPT in psi4, default
symmetry c1  #important for SAPT in psi4, default
}

set PROPERTIES_ORIGIN ["COM"]
properties('MP2/aug-cc-pvtz', properties = ['dipole'])
--------------------------------------------------------------------------

    Molecular point group: c1
  Charge       = 0
  Multiplicity = 1
  Basis Set: AUG-CC-PVTZ
    Blend: AUG-CC-PVTZ
  Basis Set: (AUG-CC-PVTZ AUX)
    Blend: AUG-CC-PVTZ-JKFIT

    Orbital Energies [Eh]
    ---------------------

    Doubly Occupied:

       1A    -15.644852     2A    -15.585457     3A    -11.281330
       4A    -11.255782     5A    -11.221886     6A     -1.382045
       7A     -1.100312     8A     -1.052231     9A     -0.826372
      10A     -0.802878    11A     -0.740106    12A     -0.613647
      13A     -0.611235    14A     -0.593487    15A     -0.553731
      16A     -0.460761    17A     -0.368789    18A     -0.344228

  @DF-RHF Final Energy:  -224.87251081288420

   => Energetics <=

    Nuclear Repulsion Energy =            163.4342386434726677
    One-Electron Energy =                -627.7352403970791102
    Two-Electron Energy =                 239.4284909407222415
    Total Energy =                       -224.8725108128842010
  Basis Set: (AUG-CC-PVTZ AUX)
    Blend: AUG-CC-PVTZ-RI
    Molecular point group: c1

    Geometry (in Angstrom), charge = 0, multiplicity = 1:

       Center              X                  Y                   Z               Mass
    ------------   -----------------  -----------------  -----------------  -----------------
         N           -1.016874402713    -0.339132152902     0.000026495539    14.003074004430
         N            0.038867597287    -1.177476152902    -0.000024504461    14.003074004430
         C           -0.673397802713     0.929046447098     0.000006495539    12.000000000000
         C            0.709651597287     1.005697847098    -0.000004504461    12.000000000000
         C            1.099084597287    -0.344855152902    -0.000007504461    12.000000000000
         H           -1.420038402713     1.760913847098     0.000022495539     1.007825032230
         H            1.340954597287     1.882584847098    -0.000009504461     1.007825032230
         H           -1.947031402713    -0.737865152902     0.000040495539     1.007825032230
         H            2.096604597287    -0.763884152902    -0.000015504461     1.007825032230

  Basis Set: AUG-CC-PVTZ
    Blend: AUG-CC-PVTZ
  Basis Set: (AUG-CC-PVTZ AUX)
    Blend: AUG-CC-PVTZ-JKFIT
	 Reference Energy          =    -224.8725108128842010 [Eh]
	 Singles Energy            =      -0.0000000000000000 [Eh]
	 Same-Spin Energy          =      -0.2454733091987786 [Eh]
	 Opposite-Spin Energy      =      -0.7448851702108579 [Eh]
	 Correlation Energy        =      -0.9903584794096365 [Eh]
	 Total Energy              =    -225.8628692922938512 [Eh]

	 ================> DF-SCS-MP2 Energies <==================
	-----------------------------------------------------------
	 SCS Same-Spin Scale       =       0.3333333333333333 [-]
	 SCS Opposite-Spin Scale   =       1.2000000000000000 [-]
	 SCS Same-Spin Energy      =      -0.0818244363995929 [Eh]
	 SCS Opposite-Spin Energy  =      -0.8938622042530294 [Eh]
	 SCS Correlation Energy    =      -0.9756866406526223 [Eh]
	 SCS Total Energy          =    -225.8481974535368124 [Eh]
	-----------------------------------------------------------

  Dipole Moment: [D]
     X:    -1.5835      Y:     1.7224      Z:     0.0001     Total:     2.3397

*** Psi4 exiting successfully. Buy a developer a beer!
