                               Psi4 1.4a3.dev225

  ==> Input File <==

--------------------------------------------------------------------------
#psi4
#
memory 32 gb

molecule  {
0 1
  N       -1.0175820    -0.3767630     0.0000260
  N        0.0224975    -1.2026697    -0.0000242
  C       -0.6759380     0.9397300     0.0000060
  C        0.7089440     0.9680670    -0.0000050
  C        1.0983770    -0.3824860    -0.0000080
  H       -1.4207460     1.7232830     0.0000220
  H        1.3402470     1.8449540    -0.0000100
  H       -1.9477390    -0.7754960     0.0000400
  H        2.0958970    -0.8015150    -0.0000160
units angstrom
no_reorient  #important for SAPT in psi4, default
symmetry c1  #important for SAPT in psi4, default
}

set PROPERTIES_ORIGIN ["COM"]
properties('MP2/aug-cc-pvtz', properties = ['dipole'])
--------------------------------------------------------------------------

    Molecular point group: c1
  Charge       = 0
  Multiplicity = 1
  Basis Set: AUG-CC-PVTZ
    Blend: AUG-CC-PVTZ
  Basis Set: (AUG-CC-PVTZ AUX)
    Blend: AUG-CC-PVTZ-JKFIT

    Orbital Energies [Eh]
    ---------------------

    Doubly Occupied:

       1A    -15.645313     2A    -15.589497     3A    -11.279664
       4A    -11.254731     5A    -11.225710     6A     -1.379725
       7A     -1.089941     8A     -1.055182     9A     -0.825610
      10A     -0.801754    11A     -0.742344    12A     -0.611257
      13A     -0.609521    14A     -0.592892    15A     -0.563596
      16A     -0.460575    17A     -0.364012    18A     -0.345267

  @DF-RHF Final Energy:  -224.87378806147083

   => Energetics <=

    Nuclear Repulsion Energy =            162.9587022193107373
    One-Electron Energy =                -626.7917993279039592
    Two-Electron Energy =                 238.9593090471223888
    Total Energy =                       -224.8737880614708331
  Basis Set: (AUG-CC-PVTZ AUX)
    Blend: AUG-CC-PVTZ-RI
    Molecular point group: c1

    Geometry (in Angstrom), charge = 0, multiplicity = 1:

       Center              X                  Y                   Z               Mass
    ------------   -----------------  -----------------  -----------------  -----------------
         N           -1.013327615566    -0.350213303841     0.000026330888    14.003074004430
         N            0.026751884434    -1.176120003841    -0.000023869112    14.003074004430
         C           -0.671683615566     0.966279696159     0.000006330888    12.000000000000
         C            0.713198384434     0.994616696159    -0.000004669112    12.000000000000
         C            1.102631384434    -0.355936303841    -0.000007669112    12.000000000000
         H           -1.416491615566     1.749832696159     0.000022330888     1.007825032230
         H            1.344501384434     1.871503696159    -0.000009669112     1.007825032230
         H           -1.943484615566    -0.748946303841     0.000040330888     1.007825032230
         H            2.100151384434    -0.774965303841    -0.000015669112     1.007825032230

  Basis Set: AUG-CC-PVTZ
    Blend: AUG-CC-PVTZ
  Basis Set: (AUG-CC-PVTZ AUX)
    Blend: AUG-CC-PVTZ-JKFIT
	 Reference Energy          =    -224.8737880614708331 [Eh]
	 Singles Energy            =      -0.0000000000000000 [Eh]
	 Same-Spin Energy          =      -0.2459427213491956 [Eh]
	 Opposite-Spin Energy      =      -0.7458444922516940 [Eh]
	 Correlation Energy        =      -0.9917872136008896 [Eh]
	 Total Energy              =    -225.8655752750717340 [Eh]

	 ================> DF-SCS-MP2 Energies <==================
	-----------------------------------------------------------
	 SCS Same-Spin Scale       =       0.3333333333333333 [-]
	 SCS Opposite-Spin Scale   =       1.2000000000000000 [-]
	 SCS Same-Spin Energy      =      -0.0819809071163985 [Eh]
	 SCS Opposite-Spin Energy  =      -0.8950133907020328 [Eh]
	 SCS Correlation Energy    =      -0.9769942978184313 [Eh]
	 SCS Total Energy          =    -225.8507823592892692 [Eh]
	-----------------------------------------------------------

  Dipole Moment: [D]
     X:    -1.5279      Y:     1.7138      Z:     0.0001     Total:     2.2960

*** Psi4 exiting successfully. Buy a developer a beer!
