                               Psi4 1.4a3.dev225

  ==> Input File <==

--------------------------------------------------------------------------
#psi4
#
memory 32 gb

molecule  {
0 1
  N       -1.0175820    -0.3767630     0.0000260
  N        0.0381600    -1.2151070    -0.0000250
  C       -0.6759380     0.9397300     0.0000060
  C        0.7089440     0.9680670    -0.0000050
  C        1.0983770    -0.3824860    -0.0000080
  H       -1.4207460     1.7232830     0.0000220
  H        1.3402470     1.8449540    -0.0000100
  H       -1.9477390    -0.7754960     0.0000400
  H        2.1143362    -0.8092608    -0.0000161
units angstrom
no_reorient  #important for SAPT in psi4, default
symmetry c1  #important for SAPT in psi4, default
}

set PROPERTIES_ORIGIN ["COM"]
properties('MP2/aug-cc-pvtz', properties = ['dipole'])
--------------------------------------------------------------------------

    Molecular point group: c1
  Charge       = 0
  Multiplicity = 1
  Basis Set: AUG-CC-PVTZ
    Blend: AUG-CC-PVTZ
  Basis Set: (AUG-CC-PVTZ AUX)
    Blend: AUG-CC-PVTZ-JKFIT

    Orbital Energies [Eh]
    ---------------------

    Doubly Occupied:

       1A    -15.643597     2A    -15.590688     3A    -11.282193
       4A    -11.257966     5A    -11.225598     6A     -1.371749
       7A     -1.092176     8A     -1.052861     9A     -0.824350
      10A     -0.796958    11A     -0.742759    12A     -0.606521
      13A     -0.605798    14A     -0.592579    15A     -0.561812
      16A     -0.462653    17A     -0.364987    18A     -0.346363

  @DF-RHF Final Energy:  -224.87286159599452

   => Energetics <=

    Nuclear Repulsion Energy =            162.5173980934794429
    One-Electron Energy =                -625.9373035019852978
    Two-Electron Energy =                 238.5470438125113617
    Total Energy =                       -224.8728615959945216
  Basis Set: (AUG-CC-PVTZ AUX)
    Blend: AUG-CC-PVTZ-RI
    Molecular point group: c1

    Geometry (in Angstrom), charge = 0, multiplicity = 1:

       Center              X                  Y                   Z               Mass
    ------------   -----------------  -----------------  -----------------  -----------------
         N           -1.016824316874    -0.347538793723     0.000026497021    14.003074004430
         N            0.038917683126    -1.185882793723    -0.000024502979    14.003074004430
         C           -0.675180316874     0.968954206277     0.000006497021    12.000000000000
         C            0.709701683126     0.997291206277    -0.000004502979    12.000000000000
         C            1.099134683126    -0.353261793723    -0.000007502979    12.000000000000
         H           -1.419988316874     1.752507206277     0.000022497021     1.007825032230
         H            1.341004683126     1.874178206277    -0.000009502979     1.007825032230
         H           -1.946981316874    -0.746271793723     0.000040497021     1.007825032230
         H            2.115093883126    -0.780036593723    -0.000015602979     1.007825032230

  Basis Set: AUG-CC-PVTZ
    Blend: AUG-CC-PVTZ
  Basis Set: (AUG-CC-PVTZ AUX)
    Blend: AUG-CC-PVTZ-JKFIT
	 Reference Energy          =    -224.8728615959945216 [Eh]
	 Singles Energy            =      -0.0000000000000000 [Eh]
	 Same-Spin Energy          =      -0.2458720392819951 [Eh]
	 Opposite-Spin Energy      =      -0.7463081045567184 [Eh]
	 Correlation Energy        =      -0.9921801438387134 [Eh]
	 Total Energy              =    -225.8650417398332308 [Eh]

	 ================> DF-SCS-MP2 Energies <==================
	-----------------------------------------------------------
	 SCS Same-Spin Scale       =       0.3333333333333333 [-]
	 SCS Opposite-Spin Scale   =       1.2000000000000000 [-]
	 SCS Same-Spin Energy      =      -0.0819573464273317 [Eh]
	 SCS Opposite-Spin Energy  =      -0.8955697254680620 [Eh]
	 SCS Correlation Energy    =      -0.9775270718953937 [Eh]
	 SCS Total Energy          =    -225.8503886678899164 [Eh]
	-----------------------------------------------------------

  Dipole Moment: [D]
     X:    -1.5248      Y:     1.7402      Z:     0.0001     Total:     2.3138

*** Psi4 exiting successfully. Buy a developer a beer!
