                               Psi4 1.3.2 release

  ==> Input File <==

--------------------------------------------------------------------------
#psi4
#
memory 32 gb

molecule  {
0 1
  N       -0.9565303    -0.3051603     0.0000279
  N        0.0381600    -1.2151070    -0.0000250
  C       -0.6759380     0.9397300     0.0000060
  C        0.7089440     0.9680670    -0.0000050
  C        1.0983770    -0.3824860    -0.0000080
  H       -1.4207460     1.7232830     0.0000220
  H        1.3402470     1.8449540    -0.0000100
  H       -1.9477390    -0.7754960     0.0000400
  H        2.0958970    -0.8015150    -0.0000160
units angstrom
no_reorient  #important for SAPT in psi4, default
symmetry c1  #important for SAPT in psi4, default
}

set PROPERTIES_ORIGIN ["COM"]
properties('MP2/aug-cc-pvtz', properties = ['dipole'])
--------------------------------------------------------------------------

    Molecular point group: c1
  Charge       = 0
  Multiplicity = 1
  Basis Set: AUG-CC-PVTZ
    Blend: AUG-CC-PVTZ
  Basis Set: (AUG-CC-PVTZ AUX)
    Blend: AUG-CC-PVTZ-JKFIT

    Orbital Energies [Eh]
    ---------------------

    Doubly Occupied:

       1A    -15.649846     2A    -15.586025     3A    -11.275475
       4A    -11.253838     5A    -11.217501     6A     -1.389896
       7A     -1.109913     8A     -1.045815     9A     -0.812808
      10A     -0.797740    11A     -0.752184    12A     -0.620650
      13A     -0.596373    14A     -0.578367    15A     -0.562631
      16A     -0.470849    17A     -0.369227    18A     -0.342450

  @DF-RHF Final Energy:  -224.85791876826741

   => Energetics <=

    Nuclear Repulsion Energy =            164.2532022380418937
    One-Electron Energy =                -629.3590690524088131
    Two-Electron Energy =                 240.2479480460994807
    Total Energy =                       -224.8579187682674103
  Basis Set: (AUG-CC-PVTZ AUX)
    Blend: AUG-CC-PVTZ-RI
    Molecular point group: c1

    Geometry (in Angstrom), charge = 0, multiplicity = 1:

       Center              X                  Y                   Z               Mass
    ------------   -----------------  -----------------  -----------------  -----------------
         N           -0.968064788447    -0.290787684219     0.000028004492    14.003074004430
         N            0.026625511553    -1.200734384219    -0.000024895508    14.003074004430
         C           -0.687472488447     0.954102615781     0.000006104492    12.000000000000
         C            0.697409511553     0.982439615781    -0.000004895508    12.000000000000
         C            1.086842511553    -0.368113384219    -0.000007895508    12.000000000000
         H           -1.432280488447     1.737655615781     0.000022104492     1.007825032230
         H            1.328712511553     1.859326615781    -0.000009895508     1.007825032230
         H           -1.959273488447    -0.761123384219     0.000040104492     1.007825032230
         H            2.084362511553    -0.787142384219    -0.000015895508     1.007825032230

  Basis Set: AUG-CC-PVTZ
    Blend: AUG-CC-PVTZ
  Basis Set: (AUG-CC-PVTZ AUX)
    Blend: AUG-CC-PVTZ-JKFIT
	 Reference Energy          =    -224.8579187682674103 [Eh]
	 Singles Energy            =      -0.0000000000000000 [Eh]
	 Same-Spin Energy          =      -0.2465612400327652 [Eh]
	 Opposite-Spin Energy      =      -0.7464507436804424 [Eh]
	 Correlation Energy        =      -0.9930119837132076 [Eh]
	 Total Energy              =    -225.8509307519806271 [Eh]

	 ================> DF-SCS-MP2 Energies <==================
	-----------------------------------------------------------
	 SCS Same-Spin Scale       =       0.3333333333333333 [-]
	 SCS Opposite-Spin Scale   =       1.2000000000000000 [-]
	 SCS Same-Spin Energy      =      -0.0821870800109217 [Eh]
	 SCS Opposite-Spin Energy  =      -0.8957408924165309 [Eh]
	 SCS Correlation Energy    =      -0.9779279724274526 [Eh]
	 SCS Total Energy          =    -225.8358467406948762 [Eh]
	-----------------------------------------------------------

  Dipole Moment: [D]
     X:    -1.7290      Y:     1.7010      Z:     0.0001     Total:     2.4255

*** Psi4 exiting successfully. Buy a developer a beer!
