                               Psi4 1.4a3.dev225

  ==> Input File <==

--------------------------------------------------------------------------
#psi4
#
memory 32 gb

molecule  {
0 1
  N       -1.0175820    -0.3767630     0.0000260
  N        0.0381600    -1.2151070    -0.0000250
  C       -0.6759380     0.9397300     0.0000060
  C        0.7289398     0.9684761    -0.0000052
  C        1.0983770    -0.3824860    -0.0000080
  H       -1.4207460     1.7232830     0.0000220
  H        1.3402470     1.8449540    -0.0000100
  H       -1.9477390    -0.7754960     0.0000400
  H        2.0958970    -0.8015150    -0.0000160
units angstrom
no_reorient  #important for SAPT in psi4, default
symmetry c1  #important for SAPT in psi4, default
}

set PROPERTIES_ORIGIN ["COM"]
properties('MP2/aug-cc-pvtz', properties = ['dipole'])
--------------------------------------------------------------------------

    Molecular point group: c1
  Charge       = 0
  Multiplicity = 1
  Basis Set: AUG-CC-PVTZ
    Blend: AUG-CC-PVTZ
  Basis Set: (AUG-CC-PVTZ AUX)
    Blend: AUG-CC-PVTZ-JKFIT

    Orbital Energies [Eh]
    ---------------------

    Doubly Occupied:

       1A    -15.645474     2A    -15.589661     3A    -11.284755
       4A    -11.255644     5A    -11.226252     6A     -1.371319
       7A     -1.092938     8A     -1.050407     9A     -0.827102
      10A     -0.798974    11A     -0.742569    12A     -0.607765
      13A     -0.605222    14A     -0.597948    15A     -0.559333
      16A     -0.463082    17A     -0.366192    18A     -0.343406

  @DF-RHF Final Energy:  -224.87243641277121

   => Energetics <=

    Nuclear Repulsion Energy =            162.3856789804271443
    One-Electron Energy =                -625.6601453477564974
    Two-Electron Energy =                 238.4020299545581452
    Total Energy =                       -224.8724364127712079
  Basis Set: (AUG-CC-PVTZ AUX)
    Blend: AUG-CC-PVTZ-RI
    Molecular point group: c1

    Geometry (in Angstrom), charge = 0, multiplicity = 1:

       Center              X                  Y                   Z               Mass
    ------------   -----------------  -----------------  -----------------  -----------------
         N           -1.020077909105    -0.347725685082     0.000026530814    14.003074004430
         N            0.035664090895    -1.186069685082    -0.000024469186    14.003074004430
         C           -0.678433909105     0.968767314918     0.000006530814    12.000000000000
         C            0.726443890895     0.997513414918    -0.000004669186    12.000000000000
         C            1.095881090895    -0.353448685082    -0.000007469186    12.000000000000
         H           -1.423241909105     1.752320314918     0.000022530814     1.007825032230
         H            1.337751090895     1.873991314918    -0.000009469186     1.007825032230
         H           -1.950234909105    -0.746458685082     0.000040530814     1.007825032230
         H            2.093401090895    -0.772477685082    -0.000015469186     1.007825032230

  Basis Set: AUG-CC-PVTZ
    Blend: AUG-CC-PVTZ
  Basis Set: (AUG-CC-PVTZ AUX)
    Blend: AUG-CC-PVTZ-JKFIT
	 Reference Energy          =    -224.8724364127712079 [Eh]
	 Singles Energy            =      -0.0000000000000000 [Eh]
	 Same-Spin Energy          =      -0.2460117293440435 [Eh]
	 Opposite-Spin Energy      =      -0.7465375763976758 [Eh]
	 Correlation Energy        =      -0.9925493057417194 [Eh]
	 Total Energy              =    -225.8649857185129406 [Eh]

	 ================> DF-SCS-MP2 Energies <==================
	-----------------------------------------------------------
	 SCS Same-Spin Scale       =       0.3333333333333333 [-]
	 SCS Opposite-Spin Scale   =       1.2000000000000000 [-]
	 SCS Same-Spin Energy      =      -0.0820039097813478 [Eh]
	 SCS Opposite-Spin Energy  =      -0.8958450916772109 [Eh]
	 SCS Correlation Energy    =      -0.9778490014585588 [Eh]
	 SCS Total Energy          =    -225.8502854142297736 [Eh]
	-----------------------------------------------------------

  Dipole Moment: [D]
     X:    -1.5365      Y:     1.7354      Z:     0.0001     Total:     2.3179

*** Psi4 exiting successfully. Buy a developer a beer!
