                               Psi4 1.3.2 release

  ==> Input File <==

--------------------------------------------------------------------------
#psi4
#
memory 32 gb

molecule  {
0 1
  N       -1.0175820    -0.3767630     0.0000260
  N        0.0381600    -1.2151070    -0.0000250
  C       -0.6759380     0.9397300     0.0000060
  C        0.7089440     0.9680670    -0.0000050
  C        1.1218881    -0.3754838    -0.0000082
  H       -1.4207460     1.7232830     0.0000220
  H        1.3402470     1.8449540    -0.0000100
  H       -1.9477390    -0.7754960     0.0000400
  H        2.0958970    -0.8015150    -0.0000160
units angstrom
no_reorient  #important for SAPT in psi4, default
symmetry c1  #important for SAPT in psi4, default
}

set PROPERTIES_ORIGIN ["COM"]
properties('MP2/aug-cc-pvtz', properties = ['dipole'])
--------------------------------------------------------------------------

    Molecular point group: c1
  Charge       = 0
  Multiplicity = 1
  Basis Set: AUG-CC-PVTZ
    Blend: AUG-CC-PVTZ
  Basis Set: (AUG-CC-PVTZ AUX)
    Blend: AUG-CC-PVTZ-JKFIT

    Orbital Energies [Eh]
    ---------------------

    Doubly Occupied:

       1A    -15.645492     2A    -15.592254     3A    -11.281604
       4A    -11.256592     5A    -11.226497     6A     -1.368338
       7A     -1.088070     8A     -1.052640     9A     -0.826493
      10A     -0.800798    11A     -0.741566    12A     -0.609673
      13A     -0.603654    14A     -0.590139    15A     -0.569470
      16A     -0.460693    17A     -0.364094    18A     -0.343925

  @DF-RHF Final Energy:  -224.87101724747160

   => Energetics <=

    Nuclear Repulsion Energy =            162.2091902744840581
    One-Electron Energy =                -625.3164302240591041
    Two-Electron Energy =                 238.2362227021034471
    Total Energy =                       -224.8710172474715989
  Basis Set: (AUG-CC-PVTZ AUX)
    Blend: AUG-CC-PVTZ-RI
    Molecular point group: c1

    Geometry (in Angstrom), charge = 0, multiplicity = 1:

       Center              X                  Y                   Z               Mass
    ------------   -----------------  -----------------  -----------------  -----------------
         N           -1.020697914722    -0.348888532928     0.000026530814    14.003074004430
         N            0.035044085278    -1.187232532928    -0.000024469186    14.003074004430
         C           -0.679053914722     0.967604467072     0.000006530814    12.000000000000
         C            0.705828085278     0.995941467072    -0.000004469186    12.000000000000
         C            1.118772185278    -0.347609332928    -0.000007669186    12.000000000000
         H           -1.423861914722     1.751157467072     0.000022530814     1.007825032230
         H            1.337131085278     1.872828467072    -0.000009469186     1.007825032230
         H           -1.950854914722    -0.747621532928     0.000040530814     1.007825032230
         H            2.092781085278    -0.773640532928    -0.000015469186     1.007825032230

  Basis Set: AUG-CC-PVTZ
    Blend: AUG-CC-PVTZ
  Basis Set: (AUG-CC-PVTZ AUX)
    Blend: AUG-CC-PVTZ-JKFIT
	 Reference Energy          =    -224.8710172474715989 [Eh]
	 Singles Energy            =      -0.0000000000000000 [Eh]
	 Same-Spin Energy          =      -0.2463594460909680 [Eh]
	 Opposite-Spin Energy      =      -0.7472873496620247 [Eh]
	 Correlation Energy        =      -0.9936467957529928 [Eh]
	 Total Energy              =    -225.8646640432245931 [Eh]

	 ================> DF-SCS-MP2 Energies <==================
	-----------------------------------------------------------
	 SCS Same-Spin Scale       =       0.3333333333333333 [-]
	 SCS Opposite-Spin Scale   =       1.2000000000000000 [-]
	 SCS Same-Spin Energy      =      -0.0821198153636560 [Eh]
	 SCS Opposite-Spin Energy  =      -0.8967448195944296 [Eh]
	 SCS Correlation Energy    =      -0.9788646349580856 [Eh]
	 SCS Total Energy          =    -225.8498818824296848 [Eh]
	-----------------------------------------------------------

  Dipole Moment: [D]
     X:    -1.5226      Y:     1.7424      Z:     0.0001     Total:     2.3139

*** Psi4 exiting successfully. Buy a developer a beer!
