                               Psi4 1.3.2 release

  ==> Input File <==

--------------------------------------------------------------------------
#psi4
#
memory 32 gb

molecule  {
0 1
  N       -1.0175820    -0.3767630     0.0000260
  N        0.0667747    -1.1777514    -0.0000247
  C       -0.6759380     0.9397300     0.0000060
  C        0.7089440     0.9680670    -0.0000050
  C        1.0983770    -0.3824860    -0.0000080
  H       -1.4207460     1.7232830     0.0000220
  H        1.3402470     1.8449540    -0.0000100
  H       -1.9477390    -0.7754960     0.0000400
  H        2.0958970    -0.8015150    -0.0000160
units angstrom
no_reorient  #important for SAPT in psi4, default
symmetry c1  #important for SAPT in psi4, default
}

set PROPERTIES_ORIGIN ["COM"]
properties('MP2/aug-cc-pvtz', properties = ['dipole'])
--------------------------------------------------------------------------

    Molecular point group: c1
  Charge       = 0
  Multiplicity = 1
  Basis Set: AUG-CC-PVTZ
    Blend: AUG-CC-PVTZ
  Basis Set: (AUG-CC-PVTZ AUX)
    Blend: AUG-CC-PVTZ-JKFIT

    Orbital Energies [Eh]
    ---------------------

    Doubly Occupied:

       1A    -15.640374     2A    -15.584242     3A    -11.280822
       4A    -11.250122     5A    -11.222414     6A     -1.376528
       7A     -1.104586     8A     -1.048063     9A     -0.824549
      10A     -0.802161    11A     -0.741432    12A     -0.615296
      13A     -0.608734    14A     -0.591298    15A     -0.566049
      16A     -0.455029    17A     -0.370623    18A     -0.345729

  @DF-RHF Final Energy:  -224.87582748674072

   => Energetics <=

    Nuclear Repulsion Energy =            163.5266343453560580
    One-Electron Energy =                -627.9488211429959392
    Two-Electron Energy =                 239.5463593108991631
    Total Energy =                       -224.8758274867407181
  Basis Set: (AUG-CC-PVTZ AUX)
    Blend: AUG-CC-PVTZ-RI
    Molecular point group: c1

    Geometry (in Angstrom), charge = 0, multiplicity = 1:

       Center              X                  Y                   Z               Mass
    ------------   -----------------  -----------------  -----------------  -----------------
         N           -1.022440492743    -0.355341844204     0.000026433795    14.003074004430
         N            0.061916207257    -1.156330244204    -0.000024266205    14.003074004430
         C           -0.680796492743     0.961151155796     0.000006433795    12.000000000000
         C            0.704085507257     0.989488155796    -0.000004566205    12.000000000000
         C            1.093518507257    -0.361064844204    -0.000007566205    12.000000000000
         H           -1.425604492743     1.744704155796     0.000022433795     1.007825032230
         H            1.335388507257     1.866375155796    -0.000009566205     1.007825032230
         H           -1.952597492743    -0.754074844204     0.000040433795     1.007825032230
         H            2.091038507257    -0.780093844204    -0.000015566205     1.007825032230

  Basis Set: AUG-CC-PVTZ
    Blend: AUG-CC-PVTZ
  Basis Set: (AUG-CC-PVTZ AUX)
    Blend: AUG-CC-PVTZ-JKFIT
	 Reference Energy          =    -224.8758274867407181 [Eh]
	 Singles Energy            =      -0.0000000000000000 [Eh]
	 Same-Spin Energy          =      -0.2446656941640747 [Eh]
	 Opposite-Spin Energy      =      -0.7437011606365976 [Eh]
	 Correlation Energy        =      -0.9883668548006723 [Eh]
	 Total Energy              =    -225.8641943415413778 [Eh]

	 ================> DF-SCS-MP2 Energies <==================
	-----------------------------------------------------------
	 SCS Same-Spin Scale       =       0.3333333333333333 [-]
	 SCS Opposite-Spin Scale   =       1.2000000000000000 [-]
	 SCS Same-Spin Energy      =      -0.0815552313880249 [Eh]
	 SCS Opposite-Spin Energy  =      -0.8924413927639171 [Eh]
	 SCS Correlation Energy    =      -0.9739966241519420 [Eh]
	 SCS Total Energy          =    -225.8498241108926550 [Eh]
	-----------------------------------------------------------

  Dipole Moment: [D]
     X:    -1.5286      Y:     1.6417      Z:     0.0001     Total:     2.2432

*** Psi4 exiting successfully. Buy a developer a beer!
