                               Psi4 1.3.2 release

  ==> Input File <==

--------------------------------------------------------------------------
#psi4
#
memory 32 gb

molecule  {
0 1
  N       -1.0175820    -0.3767630     0.0000260
  N        0.1947850    -1.3394798    -0.0000326
  C       -0.6759380     0.9397300     0.0000060
  C        0.7089440     0.9680670    -0.0000050
  C        1.0983770    -0.3824860    -0.0000080
  H       -1.4207460     1.7232830     0.0000220
  H        1.3402470     1.8449540    -0.0000100
  H       -1.9477390    -0.7754960     0.0000400
  H        2.0958970    -0.8015150    -0.0000160
units angstrom
no_reorient  #important for SAPT in psi4, default
symmetry c1  #important for SAPT in psi4, default
}

set PROPERTIES_ORIGIN ["COM"]
properties('MP2/aug-cc-pvtz', properties = ['dipole'])
--------------------------------------------------------------------------

    Molecular point group: c1
  Charge       = 0
  Multiplicity = 1
  Basis Set: AUG-CC-PVTZ
    Blend: AUG-CC-PVTZ
  Basis Set: (AUG-CC-PVTZ AUX)
    Blend: AUG-CC-PVTZ-JKFIT

    Orbital Energies [Eh]
    ---------------------

    Doubly Occupied:

       1A    -15.625204     2A    -15.606059     3A    -11.300678
       4A    -11.266772     5A    -11.223516     6A     -1.313812
       7A     -1.116791     8A     -1.034272     9A     -0.824716
      10A     -0.775586    11A     -0.742903    12A     -0.598144
      13A     -0.578466    14A     -0.577663    15A     -0.553372
      16A     -0.478227    17A     -0.390358    18A     -0.338657

  @DF-RHF Final Energy:  -224.84273610651277

   => Energetics <=

    Nuclear Repulsion Energy =            159.3957437920670372
    One-Electron Energy =                -619.7865715029108742
    Two-Electron Energy =                 235.5480916043310629
    Total Energy =                       -224.8427361065127741
  Basis Set: (AUG-CC-PVTZ AUX)
    Blend: AUG-CC-PVTZ-RI
    Molecular point group: c1

    Geometry (in Angstrom), charge = 0, multiplicity = 1:

       Center              X                  Y                   Z               Mass
    ------------   -----------------  -----------------  -----------------  -----------------
         N           -1.048786832197    -0.322055840454     0.000028059727    14.003074004430
         N            0.163580167803    -1.284772640454    -0.000030540273    14.003074004430
         C           -0.707142832197     0.994437159546     0.000008059727    12.000000000000
         C            0.677739167803     1.022774159546    -0.000002940273    12.000000000000
         C            1.067172167803    -0.327778840454    -0.000005940273    12.000000000000
         H           -1.451950832197     1.777990159546     0.000024059727     1.007825032230
         H            1.309042167803     1.899661159546    -0.000007940273     1.007825032230
         H           -1.978943832197    -0.720788840454     0.000042059727     1.007825032230
         H            2.064692167803    -0.746807840454    -0.000013940273     1.007825032230

  Basis Set: AUG-CC-PVTZ
    Blend: AUG-CC-PVTZ
  Basis Set: (AUG-CC-PVTZ AUX)
    Blend: AUG-CC-PVTZ-JKFIT
	 Reference Energy          =    -224.8427361065127741 [Eh]
	 Singles Energy            =      -0.0000000000000000 [Eh]
	 Same-Spin Energy          =      -0.2452355553800118 [Eh]
	 Opposite-Spin Energy      =      -0.7504437632785802 [Eh]
	 Correlation Energy        =      -0.9956793186585919 [Eh]
	 Total Energy              =    -225.8384154251713767 [Eh]

	 ================> DF-SCS-MP2 Energies <==================
	-----------------------------------------------------------
	 SCS Same-Spin Scale       =       0.3333333333333333 [-]
	 SCS Opposite-Spin Scale   =       1.2000000000000000 [-]
	 SCS Same-Spin Energy      =      -0.0817451851266706 [Eh]
	 SCS Opposite-Spin Energy  =      -0.9005325159342962 [Eh]
	 SCS Correlation Energy    =      -0.9822777010609668 [Eh]
	 SCS Total Energy          =    -225.8250138075737539 [Eh]
	-----------------------------------------------------------

  Dipole Moment: [D]
     X:    -1.4424      Y:     1.9139      Z:     0.0001     Total:     2.3966

*** Psi4 exiting successfully. Buy a developer a beer!
