                               Psi4 1.3.2 release

  ==> Input File <==

--------------------------------------------------------------------------
#psi4
#
memory 32 gb

molecule  {
0 1
  N       -1.0175820    -0.3767630     0.0000260
  N        0.0381600    -1.2151070    -0.0000250
  C       -0.6759380     0.9397300     0.0000060
  C        0.7089440     0.9680670    -0.0000050
  C        1.1916382    -0.3520306    -0.0000087
  H       -1.4207460     1.7232830     0.0000220
  H        1.3402470     1.8449540    -0.0000100
  H       -1.9477390    -0.7754960     0.0000400
  H        2.0958970    -0.8015150    -0.0000160
units angstrom
no_reorient  #important for SAPT in psi4, default
symmetry c1  #important for SAPT in psi4, default
}

set PROPERTIES_ORIGIN ["COM"]
properties('MP2/aug-cc-pvtz', properties = ['dipole'])
--------------------------------------------------------------------------

    Molecular point group: c1
  Charge       = 0
  Multiplicity = 1
  Basis Set: AUG-CC-PVTZ
    Blend: AUG-CC-PVTZ
  Basis Set: (AUG-CC-PVTZ AUX)
    Blend: AUG-CC-PVTZ-JKFIT

    Orbital Energies [Eh]
    ---------------------

    Doubly Occupied:

       1A    -15.651797     2A    -15.596900     3A    -11.280379
       4A    -11.259459     5A    -11.230431     6A     -1.360678
       7A     -1.076546     8A     -1.052165     9A     -0.834458
      10A     -0.803949    11A     -0.738746    12A     -0.615754
      13A     -0.598765    14A     -0.585254    15A     -0.581400
      16A     -0.452538    17A     -0.364595    18A     -0.335275

  @DF-RHF Final Energy:  -224.85434965571847

   => Energetics <=

    Nuclear Repulsion Energy =            161.0749871756713958
    One-Electron Energy =                -623.0204958721794810
    Two-Electron Energy =                 237.0911590407896483
    Total Energy =                       -224.8543496557184653
  Basis Set: (AUG-CC-PVTZ AUX)
    Blend: AUG-CC-PVTZ-RI
    Molecular point group: c1

    Geometry (in Angstrom), charge = 0, multiplicity = 1:

       Center              X                  Y                   Z               Mass
    ------------   -----------------  -----------------  -----------------  -----------------
         N           -1.032999981053    -0.353025054912     0.000026619001    14.003074004430
         N            0.022742018947    -1.191369054912    -0.000024380999    14.003074004430
         C           -0.691355981053     0.963467945088     0.000006619001    12.000000000000
         C            0.693526018947     0.991804945088    -0.000004380999    12.000000000000
         C            1.176220218947    -0.328292654912    -0.000008080999    12.000000000000
         H           -1.436163981053     1.747020945088     0.000022619001     1.007825032230
         H            1.324829018947     1.868691945088    -0.000009380999     1.007825032230
         H           -1.963156981053    -0.751758054912     0.000040619001     1.007825032230
         H            2.080479018947    -0.777777054912    -0.000015380999     1.007825032230

  Basis Set: AUG-CC-PVTZ
    Blend: AUG-CC-PVTZ
  Basis Set: (AUG-CC-PVTZ AUX)
    Blend: AUG-CC-PVTZ-JKFIT
	 Reference Energy          =    -224.8543496557184653 [Eh]
	 Singles Energy            =      -0.0000000000000000 [Eh]
	 Same-Spin Energy          =      -0.2480793194963221 [Eh]
	 Opposite-Spin Energy      =      -0.7510506230821363 [Eh]
	 Correlation Energy        =      -0.9991299425784583 [Eh]
	 Total Energy              =    -225.8534795982969285 [Eh]

	 ================> DF-SCS-MP2 Energies <==================
	-----------------------------------------------------------
	 SCS Same-Spin Scale       =       0.3333333333333333 [-]
	 SCS Opposite-Spin Scale   =       1.2000000000000000 [-]
	 SCS Same-Spin Energy      =      -0.0826931064987740 [Eh]
	 SCS Opposite-Spin Energy  =      -0.9012607476985636 [Eh]
	 SCS Correlation Energy    =      -0.9839538541973376 [Eh]
	 SCS Total Energy          =    -225.8383035099157894 [Eh]
	-----------------------------------------------------------

  Dipole Moment: [D]
     X:    -1.5360      Y:     1.7541      Z:     0.0001     Total:     2.3315

*** Psi4 exiting successfully. Buy a developer a beer!
