                               Psi4 1.3.2 release

  ==> Input File <==

--------------------------------------------------------------------------
#psi4
#
memory 32 gb

molecule  {
0 1
  S       -1.3336960    -0.3724180    -1.1448160
  O        1.3948110    -1.6888110     0.5141610
  N        0.9516030     0.5158590     0.1032830
  C       -0.4318110     0.2636330     0.1956970
  C        1.3527330     1.8066140    -0.4558870
  C        1.8123640    -0.5701240     0.2233340
  C       -1.2481770     0.5074040     1.2784860
  C       -2.6022980     0.1802550     1.0222870
  C        3.2848510    -0.2882260     0.0069730
  C       -2.7981330    -0.3054580    -0.2520070
  H        0.6391180     2.5565960    -0.1121450
  H        1.3549250     1.8004410    -1.5532040
  H        2.3443270     2.0847450    -0.0978400
  H       -0.8644230     0.8946460     2.2167190
  H       -3.4051180     0.2883830     1.7439780
  H        3.6654260     0.4295190     0.7396260
  H        3.4786200     0.1121010    -0.9922510
  H        3.8138040    -1.2333750     0.1250220
  H       -3.6830727    -0.8715016    -0.6190257
units angstrom
no_reorient  #important for SAPT in psi4, default
symmetry c1  #important for SAPT in psi4, default
}

set PROPERTIES_ORIGIN ["COM"]
properties('MP2/aug-cc-pvtz', properties = ['dipole'])
--------------------------------------------------------------------------

    Molecular point group: c1
  Charge       = 0
  Multiplicity = 1
  Basis Set: AUG-CC-PVTZ
    Blend: AUG-CC-PVTZ
  Basis Set: (AUG-CC-PVTZ AUX)
    Blend: AUG-CC-PVTZ-JKFIT

    Orbital Energies [Eh]
    ---------------------

    Doubly Occupied:

       1A    -91.982645     2A    -20.523247     3A    -15.602757
       4A    -11.358587     5A    -11.297380     6A    -11.278280
       7A    -11.264706     8A    -11.243337     9A    -11.240113
      10A    -11.238121    11A     -8.983041    12A     -6.663993
      13A     -6.663502    14A     -6.662725    15A     -1.380667
      16A     -1.263553    17A     -1.159023    18A     -1.021904
      19A     -0.987395    20A     -0.982601    21A     -0.942023
      22A     -0.812786    23A     -0.759437    24A     -0.714590
      25A     -0.687212    26A     -0.680633    27A     -0.647897
      28A     -0.623874    29A     -0.591392    30A     -0.579668
      31A     -0.565698    32A     -0.562953    33A     -0.554980
      34A     -0.546687    35A     -0.513658    36A     -0.504627
      37A     -0.477958    38A     -0.427693    39A     -0.386881
      40A     -0.345902    41A     -0.320972

  @DF-RHF Final Energy:  -797.29401770100424

   => Energetics <=

    Nuclear Repulsion Energy =            606.3183889884763857
    One-Electron Energy =               -2297.1346178587477880
    Two-Electron Energy =                 893.5222111692672797
    Total Energy =                       -797.2940177010042362
  Basis Set: (AUG-CC-PVTZ AUX)
    Blend: AUG-CC-PVTZ-RI
    Molecular point group: c1

    Geometry (in Angstrom), charge = 0, multiplicity = 1:

       Center              X                  Y                   Z               Mass
    ------------   -----------------  -----------------  -----------------  -----------------
         S           -1.287447724334    -0.330767017412    -1.136798291803    31.972071174400
         O            1.441059275666    -1.647160017412     0.522178708197    15.994914619570
         N            0.997851275666     0.557509982588     0.111300708197    14.003074004430
         C           -0.385562724334     0.305283982588     0.203714708197    12.000000000000
         C            1.398981275666     1.848264982588    -0.447869291803    12.000000000000
         C            1.858612275666    -0.528473017412     0.231351708197    12.000000000000
         C           -1.201928724334     0.549054982588     1.286503708197    12.000000000000
         C           -2.556049724334     0.221905982588     1.030304708197    12.000000000000
         C            3.331099275666    -0.246575017412     0.014990708197    12.000000000000
         C           -2.751884724334    -0.263807017412    -0.243989291803    12.000000000000
         H            0.685366275666     2.598246982588    -0.104127291803     1.007825032230
         H            1.401173275666     1.842091982588    -1.545186291803     1.007825032230
         H            2.390575275666     2.126395982588    -0.089822291803     1.007825032230
         H           -0.818174724334     0.936296982588     2.224736708197     1.007825032230
         H           -3.358869724334     0.330033982588     1.751995708197     1.007825032230
         H            3.711674275666     0.471169982588     0.747643708197     1.007825032230
         H            3.524868275666     0.153751982588    -0.984233291803     1.007825032230
         H            3.860052275666    -1.191724017412     0.133039708197     1.007825032230
         H           -3.636824424334    -0.829850617412    -0.611007991803     1.007825032230

  Basis Set: AUG-CC-PVTZ
    Blend: AUG-CC-PVTZ
  Basis Set: (AUG-CC-PVTZ AUX)
    Blend: AUG-CC-PVTZ-JKFIT
	 Reference Energy          =    -797.2940177010042362 [Eh]
	 Singles Energy            =      -0.0000000000000000 [Eh]
	 Same-Spin Energy          =      -0.4869604105353163 [Eh]
	 Opposite-Spin Energy      =      -1.5062998559294958 [Eh]
	 Correlation Energy        =      -1.9932602664648120 [Eh]
	 Total Energy              =    -799.2872779674690946 [Eh]

	 ================> DF-SCS-MP2 Energies <==================
	-----------------------------------------------------------
	 SCS Same-Spin Scale       =       0.3333333333333333 [-]
	 SCS Opposite-Spin Scale   =       1.2000000000000000 [-]
	 SCS Same-Spin Energy      =      -0.1623201368451054 [Eh]
	 SCS Opposite-Spin Energy  =      -1.8075598271153948 [Eh]
	 SCS Correlation Energy    =      -1.9698799639605002 [Eh]
	 SCS Total Energy          =    -799.2638976649647020 [Eh]
	-----------------------------------------------------------

  Dipole Moment: [D]
     X:     0.7664      Y:     3.3189      Z:    -0.5641     Total:     3.4527

*** Psi4 exiting successfully. Buy a developer a beer!
