                               Psi4 1.3.2 release

  ==> Input File <==

--------------------------------------------------------------------------
#psi4
#
memory 32 gb

molecule  {
0 1
  S       -1.3336960    -0.3724180    -1.1448160
  O        1.3948110    -1.6888110     0.5141610
  N        0.9516030     0.5158590     0.1032830
  C       -0.4318110     0.2636330     0.1956970
  C        1.3527330     1.8066140    -0.4558870
  C        1.8123640    -0.5701240     0.2233340
  C       -1.2211911     0.3684068     1.3279990
  C       -2.6022980     0.1802550     1.0222870
  C        3.2848510    -0.2882260     0.0069730
  C       -2.7981330    -0.3054580    -0.2520070
  H        0.6391180     2.5565960    -0.1121450
  H        1.3549250     1.8004410    -1.5532040
  H        2.3443270     2.0847450    -0.0978400
  H       -0.8644230     0.8946460     2.2167190
  H       -3.4051180     0.2883830     1.7439780
  H        3.6654260     0.4295190     0.7396260
  H        3.4786200     0.1121010    -0.9922510
  H        3.8138040    -1.2333750     0.1250220
  H       -3.7244210    -0.6394710    -0.7024050
units angstrom
no_reorient  #important for SAPT in psi4, default
symmetry c1  #important for SAPT in psi4, default
}

set PROPERTIES_ORIGIN ["COM"]
properties('MP2/aug-cc-pvtz', properties = ['dipole'])
--------------------------------------------------------------------------

    Molecular point group: c1
  Charge       = 0
  Multiplicity = 1
  Basis Set: AUG-CC-PVTZ
    Blend: AUG-CC-PVTZ
  Basis Set: (AUG-CC-PVTZ AUX)
    Blend: AUG-CC-PVTZ-JKFIT

    Orbital Energies [Eh]
    ---------------------

    Doubly Occupied:

       1A    -91.983010     2A    -20.522744     3A    -15.602399
       4A    -11.358029     5A    -11.297972     6A    -11.278644
       7A    -11.262764     8A    -11.243066     9A    -11.240542
      10A    -11.239530    11A     -8.983400    12A     -6.664353
      13A     -6.663878    14A     -6.663096    15A     -1.380196
      16A     -1.263101    17A     -1.157665    18A     -1.021579
      19A     -0.986430    20A     -0.982754    21A     -0.941371
      22A     -0.813301    23A     -0.761500    24A     -0.713153
      25A     -0.686800    26A     -0.680261    27A     -0.648280
      28A     -0.623854    29A     -0.591260    30A     -0.579715
      31A     -0.565557    32A     -0.563680    33A     -0.553335
      34A     -0.545675    35A     -0.514007    36A     -0.504424
      37A     -0.477147    38A     -0.427112    39A     -0.386644
      40A     -0.345074    41A     -0.320671

  @DF-RHF Final Energy:  -797.29121730674956

   => Energetics <=

    Nuclear Repulsion Energy =            606.3229929901697233
    One-Electron Energy =               -2297.1524769584798378
    Two-Electron Energy =                 893.5382666615605558
    Total Energy =                       -797.2912173067495587
  Basis Set: (AUG-CC-PVTZ AUX)
    Blend: AUG-CC-PVTZ-RI
    Molecular point group: c1

    Geometry (in Angstrom), charge = 0, multiplicity = 1:

       Center              X                  Y                   Z               Mass
    ------------   -----------------  -----------------  -----------------  -----------------
         S           -1.289267629297    -0.321517045366    -1.140088556626    31.972071174400
         O            1.439239370703    -1.637910045366     0.518888443374    15.994914619570
         N            0.996031370703     0.566759954634     0.108010443374    14.003074004430
         C           -0.387382629297     0.314533954634     0.200424443374    12.000000000000
         C            1.397161370703     1.857514954634    -0.451159556626    12.000000000000
         C            1.856792370703    -0.519223045366     0.228061443374    12.000000000000
         C           -1.176762729297     0.419307754634     1.332726443374    12.000000000000
         C           -2.557869629297     0.231155954634     1.027014443374    12.000000000000
         C            3.329279370703    -0.237325045366     0.011700443374    12.000000000000
         C           -2.753704629297    -0.254557045366    -0.247279556626    12.000000000000
         H            0.683546370703     2.607496954634    -0.107417556626     1.007825032230
         H            1.399353370703     1.851341954634    -1.548476556626     1.007825032230
         H            2.388755370703     2.135645954634    -0.093112556626     1.007825032230
         H           -0.819994629297     0.945546954634     2.221446443374     1.007825032230
         H           -3.360689629297     0.339283954634     1.748705443374     1.007825032230
         H            3.709854370703     0.480419954634     0.744353443374     1.007825032230
         H            3.523048370703     0.163001954634    -0.987523556626     1.007825032230
         H            3.858232370703    -1.182474045366     0.129749443374     1.007825032230
         H           -3.679992629297    -0.588570045366    -0.697677556626     1.007825032230

  Basis Set: AUG-CC-PVTZ
    Blend: AUG-CC-PVTZ
  Basis Set: (AUG-CC-PVTZ AUX)
    Blend: AUG-CC-PVTZ-JKFIT
	 Reference Energy          =    -797.2912173067495587 [Eh]
	 Singles Energy            =      -0.0000000000000000 [Eh]
	 Same-Spin Energy          =      -0.4870588298818567 [Eh]
	 Opposite-Spin Energy      =      -1.5067249993461345 [Eh]
	 Correlation Energy        =      -1.9937838292279912 [Eh]
	 Total Energy              =    -799.2850011359774953 [Eh]

	 ================> DF-SCS-MP2 Energies <==================
	-----------------------------------------------------------
	 SCS Same-Spin Scale       =       0.3333333333333333 [-]
	 SCS Opposite-Spin Scale   =       1.2000000000000000 [-]
	 SCS Same-Spin Energy      =      -0.1623529432939522 [Eh]
	 SCS Opposite-Spin Energy  =      -1.8080699992153613 [Eh]
	 SCS Correlation Energy    =      -1.9704229425093134 [Eh]
	 SCS Total Energy          =    -799.2616402492589032 [Eh]
	-----------------------------------------------------------

  Dipole Moment: [D]
     X:     0.6725      Y:     3.5476      Z:    -0.7134     Total:     3.6806

*** Psi4 exiting successfully. Buy a developer a beer!
