                               Psi4 1.3.2 release

  ==> Input File <==

--------------------------------------------------------------------------
#psi4
#
memory 32 gb

molecule  {
0 1
  S       -1.3336960    -0.3724180    -1.1448160
  O        1.3948110    -1.6888110     0.5141610
  N        0.9516030     0.5158590     0.1032830
  C       -0.4318110     0.2636330     0.1956970
  C        1.3527330     1.8066140    -0.4558870
  C        1.8123640    -0.5701240     0.2233340
  C       -1.2481770     0.5074040     1.2784860
  C       -2.6022980     0.1802550     1.0222870
  C        3.2793371    -0.2983998    -0.0416695
  C       -2.7981330    -0.3054580    -0.2520070
  H        0.6391180     2.5565960    -0.1121450
  H        1.3549250     1.8004410    -1.5532040
  H        2.3443270     2.0847450    -0.0978400
  H       -0.8644230     0.8946460     2.2167190
  H       -3.4051180     0.2883830     1.7439780
  H        3.6654260     0.4295190     0.7396260
  H        3.4786200     0.1121010    -0.9922510
  H        3.8138040    -1.2333750     0.1250220
  H       -3.7244210    -0.6394710    -0.7024050
units angstrom
no_reorient  #important for SAPT in psi4, default
symmetry c1  #important for SAPT in psi4, default
}

set PROPERTIES_ORIGIN ["COM"]
properties('MP2/aug-cc-pvtz', properties = ['dipole'])
--------------------------------------------------------------------------

    Molecular point group: c1
  Charge       = 0
  Multiplicity = 1
  Basis Set: AUG-CC-PVTZ
    Blend: AUG-CC-PVTZ
  Basis Set: (AUG-CC-PVTZ AUX)
    Blend: AUG-CC-PVTZ-JKFIT

    Orbital Energies [Eh]
    ---------------------

    Doubly Occupied:

       1A    -91.982815     2A    -20.522924     3A    -15.602288
       4A    -11.358422     5A    -11.296550     6A    -11.278025
       7A    -11.262944     8A    -11.243469     9A    -11.239225
      10A    -11.237713    11A     -8.983185    12A     -6.664142
      13A     -6.663670    14A     -6.662883    15A     -1.380338
      16A     -1.263106    17A     -1.158893    18A     -1.021871
      19A     -0.987558    20A     -0.982559    21A     -0.942322
      22A     -0.813407    23A     -0.762574    24A     -0.714538
      25A     -0.687899    26A     -0.681731    27A     -0.647978
      28A     -0.624844    29A     -0.594866    30A     -0.578331
      31A     -0.565022    32A     -0.562125    33A     -0.555048
      34A     -0.546569    35A     -0.514971    36A     -0.504442
      37A     -0.478063    38A     -0.427216    39A     -0.386926
      40A     -0.345782    41A     -0.320677

  @DF-RHF Final Energy:  -797.29521814004784

   => Energetics <=

    Nuclear Repulsion Energy =            606.4538071300444244
    One-Electron Energy =               -2297.4022265730186518
    Two-Electron Energy =                 893.6532013029263908
    Total Energy =                       -797.2952181400478366
  Basis Set: (AUG-CC-PVTZ AUX)
    Blend: AUG-CC-PVTZ-RI
    Molecular point group: c1

    Geometry (in Angstrom), charge = 0, multiplicity = 1:

       Center              X                  Y                   Z               Mass
    ------------   -----------------  -----------------  -----------------  -----------------
         S           -1.286752172771    -0.331487865563    -1.132491405474    31.972071174400
         O            1.441754827229    -1.647880865563     0.526485594526    15.994914619570
         N            0.998546827229     0.556789134437     0.115607594526    14.003074004430
         C           -0.384867172771     0.304563134437     0.208021594526    12.000000000000
         C            1.399676827229     1.847544134437    -0.443562405474    12.000000000000
         C            1.859307827229    -0.529193865563     0.235658594526    12.000000000000
         C           -1.201233172771     0.548334134437     1.290810594526    12.000000000000
         C           -2.555354172771     0.221185134437     1.034611594526    12.000000000000
         C            3.326280927229    -0.257469665563    -0.029344905474    12.000000000000
         C           -2.751189172771    -0.264527865563    -0.239682405474    12.000000000000
         H            0.686061827229     2.597526134437    -0.099820405474     1.007825032230
         H            1.401868827229     1.841371134437    -1.540879405474     1.007825032230
         H            2.391270827229     2.125675134437    -0.085515405474     1.007825032230
         H           -0.817479172771     0.935576134437     2.229043594526     1.007825032230
         H           -3.358174172771     0.329313134437     1.756302594526     1.007825032230
         H            3.712369827229     0.470449134437     0.751950594526     1.007825032230
         H            3.525563827229     0.153031134437    -0.979926405474     1.007825032230
         H            3.860747827229    -1.192444865563     0.137346594526     1.007825032230
         H           -3.677477172771    -0.598540865563    -0.690080405474     1.007825032230

  Basis Set: AUG-CC-PVTZ
    Blend: AUG-CC-PVTZ
  Basis Set: (AUG-CC-PVTZ AUX)
    Blend: AUG-CC-PVTZ-JKFIT
	 Reference Energy          =    -797.2952181400478366 [Eh]
	 Singles Energy            =      -0.0000000000000000 [Eh]
	 Same-Spin Energy          =      -0.4867398125262823 [Eh]
	 Opposite-Spin Energy      =      -1.5058355087062785 [Eh]
	 Correlation Energy        =      -1.9925753212325608 [Eh]
	 Total Energy              =    -799.2877934612804438 [Eh]

	 ================> DF-SCS-MP2 Energies <==================
	-----------------------------------------------------------
	 SCS Same-Spin Scale       =       0.3333333333333333 [-]
	 SCS Opposite-Spin Scale   =       1.2000000000000000 [-]
	 SCS Same-Spin Energy      =      -0.1622466041754274 [Eh]
	 SCS Opposite-Spin Energy  =      -1.8070026104475341 [Eh]
	 SCS Correlation Energy    =      -1.9692492146229614 [Eh]
	 SCS Total Energy          =    -799.2644673546708418 [Eh]
	-----------------------------------------------------------

  Dipole Moment: [D]
     X:     0.6781      Y:     3.4812      Z:    -0.6721     Total:     3.6098

*** Psi4 exiting successfully. Buy a developer a beer!
