                               Psi4 1.3.2 release

  ==> Input File <==

--------------------------------------------------------------------------
#psi4
#
memory 32 gb

molecule  {
0 1
  S       -1.3336960    -0.3724180    -1.1448160
  O        1.3948110    -1.6888110     0.5141610
  N        0.9516030     0.5158590     0.1032830
  C       -0.4318110     0.2636330     0.1956970
  C        1.3527330     1.8066140    -0.4558870
  C        1.8123640    -0.5701240     0.2233340
  C       -1.2481770     0.5074040     1.2784860
  C       -2.6022980     0.1802550     1.0222870
  C        3.2848510    -0.2882260     0.0069730
  C       -2.7981330    -0.3054580    -0.2520070
  H        0.6391180     2.5565960    -0.1121450
  H        1.3549250     1.8004410    -1.5532040
  H        2.3443270     2.0847450    -0.0978400
  H       -0.8644230     0.8946460     2.2167190
  H       -3.4051180     0.2883830     1.7439780
  H        3.6654260     0.4295190     0.7396260
  H        3.4786200     0.1121010    -0.9922510
  H        3.8138040    -1.2333750     0.1250220
  H       -3.6996120    -0.7786894    -0.6523774
units angstrom
no_reorient  #important for SAPT in psi4, default
symmetry c1  #important for SAPT in psi4, default
}

set PROPERTIES_ORIGIN ["COM"]
properties('MP2/aug-cc-pvtz', properties = ['dipole'])
--------------------------------------------------------------------------

    Molecular point group: c1
  Charge       = 0
  Multiplicity = 1
  Basis Set: AUG-CC-PVTZ
    Blend: AUG-CC-PVTZ
  Basis Set: (AUG-CC-PVTZ AUX)
    Blend: AUG-CC-PVTZ-JKFIT

    Orbital Energies [Eh]
    ---------------------

    Doubly Occupied:

       1A    -91.982696     2A    -20.523057     3A    -15.602528
       4A    -11.358350     5A    -11.296852     6A    -11.278132
       7A    -11.263549     8A    -11.243168     9A    -11.239565
      10A    -11.237891    11A     -8.983079    12A     -6.664033
      13A     -6.663552    14A     -6.662770    15A     -1.380462
      16A     -1.263298    17A     -1.158927    18A     -1.021798
      19A     -0.987476    20A     -0.982573    21A     -0.942144
      22A     -0.813083    23A     -0.761315    24A     -0.714532
      25A     -0.687650    26A     -0.680457    27A     -0.648020
      28A     -0.624426    29A     -0.591258    30A     -0.579601
      31A     -0.565603    32A     -0.563888    33A     -0.555226
      34A     -0.546568    35A     -0.514364    36A     -0.505076
      37A     -0.478002    38A     -0.427478    39A     -0.386873
      40A     -0.345803    41A     -0.320839

  @DF-RHF Final Energy:  -797.29645650000759

   => Energetics <=

    Nuclear Repulsion Energy =            606.3843096934622281
    One-Electron Energy =               -2297.2696070070937822
    Two-Electron Energy =                 893.5888408136239605
    Total Energy =                       -797.2964565000075936
  Basis Set: (AUG-CC-PVTZ AUX)
    Blend: AUG-CC-PVTZ-RI
    Molecular point group: c1

    Geometry (in Angstrom), charge = 0, multiplicity = 1:

       Center              X                  Y                   Z               Mass
    ------------   -----------------  -----------------  -----------------  -----------------
         S           -1.287340212283    -0.331370333755    -1.136581492442    31.972071174400
         O            1.441166787717    -1.647763333755     0.522395507558    15.994914619570
         N            0.997958787717     0.556906666245     0.111517507558    14.003074004430
         C           -0.385455212283     0.304680666245     0.203931507558    12.000000000000
         C            1.399088787717     1.847661666245    -0.447652492442    12.000000000000
         C            1.858719787717    -0.529076333755     0.231568507558    12.000000000000
         C           -1.201821212283     0.548451666245     1.286720507558    12.000000000000
         C           -2.555942212283     0.221302666245     1.030521507558    12.000000000000
         C            3.331206787717    -0.247178333755     0.015207507558    12.000000000000
         C           -2.751777212283    -0.264410333755    -0.243772492442    12.000000000000
         H            0.685473787717     2.597643666245    -0.103910492442     1.007825032230
         H            1.401280787717     1.841488666245    -1.544969492442     1.007825032230
         H            2.390682787717     2.125792666245    -0.089605492442     1.007825032230
         H           -0.818067212283     0.935693666245     2.224953507558     1.007825032230
         H           -3.358762212283     0.329430666245     1.752212507558     1.007825032230
         H            3.711781787717     0.470566666245     0.747860507558     1.007825032230
         H            3.524975787717     0.153148666245    -0.984016492442     1.007825032230
         H            3.860159787717    -1.192327333755     0.133256507558     1.007825032230
         H           -3.653256212283    -0.737641733755    -0.644142892442     1.007825032230

  Basis Set: AUG-CC-PVTZ
    Blend: AUG-CC-PVTZ
  Basis Set: (AUG-CC-PVTZ AUX)
    Blend: AUG-CC-PVTZ-JKFIT
	 Reference Energy          =    -797.2964565000075936 [Eh]
	 Singles Energy            =      -0.0000000000000000 [Eh]
	 Same-Spin Energy          =      -0.4867966870728151 [Eh]
	 Opposite-Spin Energy      =      -1.5059430680641270 [Eh]
	 Correlation Energy        =      -1.9927397551369421 [Eh]
	 Total Energy              =    -799.2891962551445886 [Eh]

	 ================> DF-SCS-MP2 Energies <==================
	-----------------------------------------------------------
	 SCS Same-Spin Scale       =       0.3333333333333333 [-]
	 SCS Opposite-Spin Scale   =       1.2000000000000000 [-]
	 SCS Same-Spin Energy      =      -0.1622655623576050 [Eh]
	 SCS Opposite-Spin Energy  =      -1.8071316816769523 [Eh]
	 SCS Correlation Energy    =      -1.9693972440345573 [Eh]
	 SCS Total Energy          =    -799.2658537440421469 [Eh]
	-----------------------------------------------------------

  Dipole Moment: [D]
     X:     0.7219      Y:     3.3807      Z:    -0.6058     Total:     3.5096

*** Psi4 exiting successfully. Buy a developer a beer!
