                               Psi4 1.3.2 release

  ==> Input File <==

--------------------------------------------------------------------------
#psi4
#
memory 32 gb

molecule  {
0 1
  S       -1.3336960    -0.3724180    -1.1448160
  O        1.3948110    -1.6888110     0.5141610
  N        0.9516030     0.5158590     0.1032830
  C       -0.4318110     0.2636330     0.1956970
  C        1.3527330     1.8066140    -0.4558870
  C        1.8123640    -0.5701240     0.2233340
  C       -1.2301864     0.4147392     1.3114947
  C       -2.6022980     0.1802550     1.0222870
  C        3.2848510    -0.2882260     0.0069730
  C       -2.7981330    -0.3054580    -0.2520070
  H        0.6391180     2.5565960    -0.1121450
  H        1.3549250     1.8004410    -1.5532040
  H        2.3443270     2.0847450    -0.0978400
  H       -0.8644230     0.8946460     2.2167190
  H       -3.4051180     0.2883830     1.7439780
  H        3.6654260     0.4295190     0.7396260
  H        3.4786200     0.1121010    -0.9922510
  H        3.8138040    -1.2333750     0.1250220
  H       -3.7244210    -0.6394710    -0.7024050
units angstrom
no_reorient  #important for SAPT in psi4, default
symmetry c1  #important for SAPT in psi4, default
}

set PROPERTIES_ORIGIN ["COM"]
properties('MP2/aug-cc-pvtz', properties = ['dipole'])
--------------------------------------------------------------------------

    Molecular point group: c1
  Charge       = 0
  Multiplicity = 1
  Basis Set: AUG-CC-PVTZ
    Blend: AUG-CC-PVTZ
  Basis Set: (AUG-CC-PVTZ AUX)
    Blend: AUG-CC-PVTZ-JKFIT

    Orbital Energies [Eh]
    ---------------------

    Doubly Occupied:

       1A    -91.982795     2A    -20.522724     3A    -15.602269
       4A    -11.357975     5A    -11.296842     6A    -11.278362
       7A    -11.262900     8A    -11.242991     9A    -11.239771
      10A    -11.238629    11A     -8.983175    12A     -6.664131
      13A     -6.663656    14A     -6.662872    15A     -1.380143
      16A     -1.262992    17A     -1.158261    18A     -1.021573
      19A     -0.987022    20A     -0.982693    21A     -0.941660
      22A     -0.813237    23A     -0.762106    24A     -0.714070
      25A     -0.687337    26A     -0.680222    27A     -0.648153
      28A     -0.624264    29A     -0.591167    30A     -0.579596
      31A     -0.565513    32A     -0.564204    33A     -0.554278
      34A     -0.546172    35A     -0.514599    36A     -0.504543
      37A     -0.477598    38A     -0.427095    39A     -0.386621
      40A     -0.345309    41A     -0.320856

  @DF-RHF Final Energy:  -797.29488544332685

   => Energetics <=

    Nuclear Repulsion Energy =            606.4125819154326109
    One-Electron Energy =               -2297.3341793586005224
    Two-Electron Energy =                 893.6267119998410635
    Total Energy =                       -797.2948854433268480
  Basis Set: (AUG-CC-PVTZ AUX)
    Blend: AUG-CC-PVTZ-RI
    Molecular point group: c1

    Geometry (in Angstrom), charge = 0, multiplicity = 1:

       Center              X                  Y                   Z               Mass
    ------------   -----------------  -----------------  -----------------  -----------------
         S           -1.288571400825    -0.325103133217    -1.138811138022    31.972071174400
         O            1.439935599175    -1.641496133217     0.520165861978    15.994914619570
         N            0.996727599175     0.563173866783     0.109287861978    14.003074004430
         C           -0.386686400825     0.310947866783     0.201701861978    12.000000000000
         C            1.397857599175     1.853928866783    -0.449882138022    12.000000000000
         C            1.857488599175    -0.522809133217     0.229338861978    12.000000000000
         C           -1.185061800825     0.462054066783     1.317499561978    12.000000000000
         C           -2.557173400825     0.227569866783     1.028291861978    12.000000000000
         C            3.329975599175    -0.240911133217     0.012977861978    12.000000000000
         C           -2.753008400825    -0.258143133217    -0.246002138022    12.000000000000
         H            0.684242599175     2.603910866783    -0.106140138022     1.007825032230
         H            1.400049599175     1.847755866783    -1.547199138022     1.007825032230
         H            2.389451599175     2.132059866783    -0.091835138022     1.007825032230
         H           -0.819298400825     0.941960866783     2.222723861978     1.007825032230
         H           -3.359993400825     0.335697866783     1.749982861978     1.007825032230
         H            3.710550599175     0.476833866783     0.745630861978     1.007825032230
         H            3.523744599175     0.159415866783    -0.986246138022     1.007825032230
         H            3.858928599175    -1.186060133217     0.131026861978     1.007825032230
         H           -3.679296400825    -0.592156133217    -0.696400138022     1.007825032230

  Basis Set: AUG-CC-PVTZ
    Blend: AUG-CC-PVTZ
  Basis Set: (AUG-CC-PVTZ AUX)
    Blend: AUG-CC-PVTZ-JKFIT
	 Reference Energy          =    -797.2948854433268480 [Eh]
	 Singles Energy            =      -0.0000000000000000 [Eh]
	 Same-Spin Energy          =      -0.4868438923628999 [Eh]
	 Opposite-Spin Energy      =      -1.5061585535800324 [Eh]
	 Correlation Energy        =      -1.9930024459429323 [Eh]
	 Total Energy              =    -799.2878878892697685 [Eh]

	 ================> DF-SCS-MP2 Energies <==================
	-----------------------------------------------------------
	 SCS Same-Spin Scale       =       0.3333333333333333 [-]
	 SCS Opposite-Spin Scale   =       1.2000000000000000 [-]
	 SCS Same-Spin Energy      =      -0.1622812974543000 [Eh]
	 SCS Opposite-Spin Energy  =      -1.8073902642960387 [Eh]
	 SCS Correlation Energy    =      -1.9696715617503386 [Eh]
	 SCS Total Energy          =    -799.2645570050772221 [Eh]
	-----------------------------------------------------------

  Dipole Moment: [D]
     X:     0.6745      Y:     3.5307      Z:    -0.6840     Total:     3.6590

*** Psi4 exiting successfully. Buy a developer a beer!
