                               Psi4 1.3.2 release

  ==> Input File <==

--------------------------------------------------------------------------
#psi4
#
memory 32 gb

molecule  {
0 1
  S       -1.3336960    -0.3724180    -1.1448160
  O        1.3948110    -1.6888110     0.5141610
  N        0.9516030     0.5158590     0.1032830
  C       -0.4318110     0.2636330     0.1956970
  C        1.3527330     1.8066140    -0.4558870
  C        1.8123640    -0.5701240     0.2233340
  C       -1.2481770     0.5074040     1.2784860
  C       -2.6022980     0.1802550     1.0222870
  C        3.2848510    -0.2882260     0.0069730
  C       -2.7981330    -0.3054580    -0.2520070
  H        0.6391180     2.5565960    -0.1121450
  H        1.3549250     1.8004410    -1.5532040
  H        2.3443270     2.0847450    -0.0978400
  H       -0.9043350     1.1276647     2.1354214
  H       -3.4051180     0.2883830     1.7439780
  H        3.6654260     0.4295190     0.7396260
  H        3.4786200     0.1121010    -0.9922510
  H        3.8138040    -1.2333750     0.1250220
  H       -3.7244210    -0.6394710    -0.7024050
units angstrom
no_reorient  #important for SAPT in psi4, default
symmetry c1  #important for SAPT in psi4, default
}

set PROPERTIES_ORIGIN ["COM"]
properties('MP2/aug-cc-pvtz', properties = ['dipole'])
--------------------------------------------------------------------------

    Molecular point group: c1
  Charge       = 0
  Multiplicity = 1
  Basis Set: AUG-CC-PVTZ
    Blend: AUG-CC-PVTZ
  Basis Set: (AUG-CC-PVTZ AUX)
    Blend: AUG-CC-PVTZ-JKFIT

    Orbital Energies [Eh]
    ---------------------

    Doubly Occupied:

       1A    -91.983173     2A    -20.522724     3A    -15.602421
       4A    -11.358110     5A    -11.297201     6A    -11.278585
       7A    -11.263091     8A    -11.243026     9A    -11.240798
      10A    -11.239093    11A     -8.983537    12A     -6.664491
      13A     -6.664017    14A     -6.663234    15A     -1.380133
      16A     -1.263263    17A     -1.159126    18A     -1.021725
      19A     -0.986843    20A     -0.982862    21A     -0.942481
      22A     -0.813012    23A     -0.761950    24A     -0.712098
      25A     -0.686689    26A     -0.680060    27A     -0.648222
      28A     -0.624951    29A     -0.591250    30A     -0.579779
      31A     -0.565924    32A     -0.562947    33A     -0.555399
      34A     -0.546268    35A     -0.514441    36A     -0.503915
      37A     -0.477548    38A     -0.427083    39A     -0.387157
      40A     -0.345584    41A     -0.320922

  @DF-RHF Final Energy:  -797.29388069470076

   => Energetics <=

    Nuclear Repulsion Energy =            606.2774957454981859
    One-Electron Energy =               -2297.0524914252714552
    Two-Electron Energy =                 893.4811149850726224
    Total Energy =                       -797.2938806947007606
  Basis Set: (AUG-CC-PVTZ AUX)
    Blend: AUG-CC-PVTZ-RI
    Molecular point group: c1

    Geometry (in Angstrom), charge = 0, multiplicity = 1:

       Center              X                  Y                   Z               Mass
    ------------   -----------------  -----------------  -----------------  -----------------
         S           -1.286919499952    -0.333790023471    -1.135727826228    31.972071174400
         O            1.441587500048    -1.650183023471     0.523249173772    15.994914619570
         N            0.998379500048     0.554486976529     0.112371173772    14.003074004430
         C           -0.385034499952     0.302260976529     0.204785173772    12.000000000000
         C            1.399509500048     1.845241976529    -0.446798826228    12.000000000000
         C            1.859140500048    -0.531496023471     0.232422173772    12.000000000000
         C           -1.201400499952     0.546031976529     1.287574173772    12.000000000000
         C           -2.555521499952     0.218882976529     1.031375173772    12.000000000000
         C            3.331627500048    -0.249598023471     0.016061173772    12.000000000000
         C           -2.751356499952    -0.266830023471    -0.242918826228    12.000000000000
         H            0.685894500048     2.595223976529    -0.103056826228     1.007825032230
         H            1.401701500048     1.839068976529    -1.544115826228     1.007825032230
         H            2.391103500048     2.123372976529    -0.088751826228     1.007825032230
         H           -0.857558499952     1.166292676529     2.144509573772     1.007825032230
         H           -3.358341499952     0.327010976529     1.753066173772     1.007825032230
         H            3.712202500048     0.468146976529     0.748714173772     1.007825032230
         H            3.525396500048     0.150728976529    -0.983162826228     1.007825032230
         H            3.860580500048    -1.194747023471     0.134110173772     1.007825032230
         H           -3.677644499952    -0.600843023471    -0.693316826228     1.007825032230

  Basis Set: AUG-CC-PVTZ
    Blend: AUG-CC-PVTZ
  Basis Set: (AUG-CC-PVTZ AUX)
    Blend: AUG-CC-PVTZ-JKFIT
	 Reference Energy          =    -797.2938806947007606 [Eh]
	 Singles Energy            =      -0.0000000000000000 [Eh]
	 Same-Spin Energy          =      -0.4868957664810562 [Eh]
	 Opposite-Spin Energy      =      -1.5062547057831286 [Eh]
	 Correlation Energy        =      -1.9931504722641848 [Eh]
	 Total Energy              =    -799.2870311669649936 [Eh]

	 ================> DF-SCS-MP2 Energies <==================
	-----------------------------------------------------------
	 SCS Same-Spin Scale       =       0.3333333333333333 [-]
	 SCS Opposite-Spin Scale   =       1.2000000000000000 [-]
	 SCS Same-Spin Energy      =      -0.1622985888270187 [Eh]
	 SCS Opposite-Spin Energy  =      -1.8075056469397541 [Eh]
	 SCS Correlation Energy    =      -1.9698042357667729 [Eh]
	 SCS Total Energy          =    -799.2636849304675479 [Eh]
	-----------------------------------------------------------

  Dipole Moment: [D]
     X:     0.6373      Y:     3.6427      Z:    -0.7563     Total:     3.7746

*** Psi4 exiting successfully. Buy a developer a beer!
