                               Psi4 1.3.2 release

  ==> Input File <==

--------------------------------------------------------------------------
#psi4
#
memory 32 gb

molecule  {
0 1
  S       -1.3336960    -0.3724180    -1.1448160
  O        1.3948110    -1.6888110     0.5141610
  N        0.9516030     0.5158590     0.1032830
  C       -0.4318110     0.2636330     0.1956970
  C        1.3527330     1.8066140    -0.4558870
  C        1.8123640    -0.5701240     0.2233340
  C       -1.2481770     0.5074040     1.2784860
  C       -2.6022980     0.1802550     1.0222870
  C        3.2517674    -0.3492690    -0.2848818
  C       -2.7981330    -0.3054580    -0.2520070
  H        0.6391180     2.5565960    -0.1121450
  H        1.3549250     1.8004410    -1.5532040
  H        2.3443270     2.0847450    -0.0978400
  H       -0.8644230     0.8946460     2.2167190
  H       -3.4051180     0.2883830     1.7439780
  H        3.6654260     0.4295190     0.7396260
  H        3.4786200     0.1121010    -0.9922510
  H        3.8138040    -1.2333750     0.1250220
  H       -3.7244210    -0.6394710    -0.7024050
units angstrom
no_reorient  #important for SAPT in psi4, default
symmetry c1  #important for SAPT in psi4, default
}

set PROPERTIES_ORIGIN ["COM"]
properties('MP2/aug-cc-pvtz', properties = ['dipole'])
--------------------------------------------------------------------------

    Molecular point group: c1
  Charge       = 0
  Multiplicity = 1
  Basis Set: AUG-CC-PVTZ
    Blend: AUG-CC-PVTZ
  Basis Set: (AUG-CC-PVTZ AUX)
    Blend: AUG-CC-PVTZ-JKFIT

    Orbital Energies [Eh]
    ---------------------

    Doubly Occupied:

       1A    -91.983503     2A    -20.525525     3A    -15.602598
       4A    -11.366280     5A    -11.297066     6A    -11.277512
       7A    -11.263512     8A    -11.255983     9A    -11.239609
      10A    -11.238012    11A     -8.983861    12A     -6.664819
      13A     -6.664354    14A     -6.663560    15A     -1.382307
      16A     -1.263785    17A     -1.159356    18A     -1.026242
      19A     -0.988043    20A     -0.983300    21A     -0.945012
      22A     -0.818969    23A     -0.763505    24A     -0.723918
      25A     -0.710167    26A     -0.687805    27A     -0.645891
      28A     -0.627301    29A     -0.610870    30A     -0.576042
      31A     -0.564841    32A     -0.560168    33A     -0.545900
      34A     -0.532878    35A     -0.514126    36A     -0.481774
      37A     -0.474047    38A     -0.423756    39A     -0.387290
      40A     -0.346310    41A     -0.321141

  @DF-RHF Final Energy:  -797.20572524191721

   => Energetics <=

    Nuclear Repulsion Energy =            606.3033507746927171
    One-Electron Energy =               -2296.8362794112845222
    Two-Electron Energy =                 893.3272033946745978
    Total Energy =                       -797.2057252419172073
  Basis Set: (AUG-CC-PVTZ AUX)
    Blend: AUG-CC-PVTZ-RI
    Molecular point group: c1

    Geometry (in Angstrom), charge = 0, multiplicity = 1:

       Center              X                  Y                   Z               Mass
    ------------   -----------------  -----------------  -----------------  -----------------
         S           -1.284618301738    -0.327550633299    -1.113666982947    31.972071174400
         O            1.443888698262    -1.643943633299     0.545310017053    15.994914619570
         N            1.000680698262     0.560726366701     0.134432017053    14.003074004430
         C           -0.382733301738     0.308500366701     0.226846017053    12.000000000000
         C            1.401810698262     1.851481366701    -0.424737982947    12.000000000000
         C            1.861441698262    -0.525256633299     0.254483017053    12.000000000000
         C           -1.199099301738     0.552271366701     1.309635017053    12.000000000000
         C           -2.553220301738     0.225122366701     1.053436017053    12.000000000000
         C            3.300845098262    -0.304401633299    -0.253732782947    12.000000000000
         C           -2.749055301738    -0.260590633299    -0.220857982947    12.000000000000
         H            0.688195698262     2.601463366701    -0.080995982947     1.007825032230
         H            1.404002698262     1.845308366701    -1.522054982947     1.007825032230
         H            2.393404698262     2.129612366701    -0.066690982947     1.007825032230
         H           -0.815345301738     0.939513366701     2.247868017053     1.007825032230
         H           -3.356040301738     0.333250366701     1.775127017053     1.007825032230
         H            3.714503698262     0.474386366701     0.770775017053     1.007825032230
         H            3.527697698262     0.156968366701    -0.961101982947     1.007825032230
         H            3.862881698262    -1.188507633299     0.156171017053     1.007825032230
         H           -3.675343301738    -0.594603633299    -0.671255982947     1.007825032230

  Basis Set: AUG-CC-PVTZ
    Blend: AUG-CC-PVTZ
  Basis Set: (AUG-CC-PVTZ AUX)
    Blend: AUG-CC-PVTZ-JKFIT
	 Reference Energy          =    -797.2057252419172073 [Eh]
	 Singles Energy            =      -0.0000000000000000 [Eh]
	 Same-Spin Energy          =      -0.4880243683795250 [Eh]
	 Opposite-Spin Energy      =      -1.5099105287063002 [Eh]
	 Correlation Energy        =      -1.9979348970858251 [Eh]
	 Total Energy              =    -799.2036601390029773 [Eh]

	 ================> DF-SCS-MP2 Energies <==================
	-----------------------------------------------------------
	 SCS Same-Spin Scale       =       0.3333333333333333 [-]
	 SCS Opposite-Spin Scale   =       1.2000000000000000 [-]
	 SCS Same-Spin Energy      =      -0.1626747894598417 [Eh]
	 SCS Opposite-Spin Energy  =      -1.8118926344475601 [Eh]
	 SCS Correlation Energy    =      -1.9745674239074018 [Eh]
	 SCS Total Energy          =    -799.1802926658245951 [Eh]
	-----------------------------------------------------------

  Dipole Moment: [D]
     X:     0.5823      Y:     3.4105      Z:    -0.7119     Total:     3.5324

*** Psi4 exiting successfully. Buy a developer a beer!
