                               Psi4 1.3.2 release

  ==> Input File <==

--------------------------------------------------------------------------
#psi4
#
memory 32 gb

molecule  {
0 1
  S       -1.3336960    -0.3724180    -1.1448160
  O        1.3948110    -1.6888110     0.5141610
  N        0.9516030     0.5158590     0.1032830
  C       -0.4318110     0.2636330     0.1956970
  C        1.3527330     1.8066140    -0.4558870
  C        1.8123640    -0.5701240     0.2233340
  C       -1.2481770     0.5074040     1.2784860
  C       -2.6022980     0.1802550     1.0222870
  C        3.2848510    -0.2882260     0.0069730
  C       -2.7981330    -0.3054580    -0.2520070
  H        0.6391180     2.5565960    -0.1121450
  H        1.3549250     1.8004410    -1.5532040
  H        2.3443270     2.0847450    -0.0978400
  H       -0.8644230     0.8946460     2.2167190
  H       -3.4051180     0.2883830     1.7439780
  H        3.6654260     0.4295190     0.7396260
  H        3.4786200     0.1121010    -0.9922510
  H        3.8138040    -1.2333750     0.1250220
  H       -3.6748030    -0.9179077    -0.6023498
units angstrom
no_reorient  #important for SAPT in psi4, default
symmetry c1  #important for SAPT in psi4, default
}

set PROPERTIES_ORIGIN ["COM"]
properties('MP2/aug-cc-pvtz', properties = ['dipole'])
--------------------------------------------------------------------------

    Molecular point group: c1
  Charge       = 0
  Multiplicity = 1
  Basis Set: AUG-CC-PVTZ
    Blend: AUG-CC-PVTZ
  Basis Set: (AUG-CC-PVTZ AUX)
    Blend: AUG-CC-PVTZ-JKFIT

    Orbital Energies [Eh]
    ---------------------

    Doubly Occupied:

       1A    -91.982623     2A    -20.523370     3A    -15.602905
       4A    -11.358735     5A    -11.297732     6A    -11.278386
       7A    -11.265486     8A    -11.243443     9A    -11.240481
      10A    -11.238269    11A     -8.983028    12A     -6.663977
      13A     -6.663480    14A     -6.662706    15A     -1.380799
      16A     -1.263721    17A     -1.159091    18A     -1.021973
      19A     -0.987361    20A     -0.982619    21A     -0.941952
      22A     -0.812623    23A     -0.758257    24A     -0.714632
      25A     -0.686927    26A     -0.680740    27A     -0.647828
      28A     -0.623515    29A     -0.591480    30A     -0.579727
      31A     -0.565819    32A     -0.562371    33A     -0.554680
      34A     -0.546763    35A     -0.513328    36A     -0.504141
      37A     -0.477928    38A     -0.427827    39A     -0.386913
      40A     -0.345971    41A     -0.321045

  @DF-RHF Final Energy:  -797.29218912642875

   => Energetics <=

    Nuclear Repulsion Energy =            606.2737661787618890
    One-Electron Energy =               -2297.0426082579328977
    Two-Electron Energy =                 893.4766529527422563
    Total Energy =                       -797.2921891264287524
  Basis Set: (AUG-CC-PVTZ AUX)
    Blend: AUG-CC-PVTZ-RI
    Molecular point group: c1

    Geometry (in Angstrom), charge = 0, multiplicity = 1:

       Center              X                  Y                   Z               Mass
    ------------   -----------------  -----------------  -----------------  -----------------
         S           -1.287501480685    -0.330465359241    -1.136906691808    31.972071174400
         O            1.441005519315    -1.646858359241     0.522070308192    15.994914619570
         N            0.997797519315     0.557811640759     0.111192308192    14.003074004430
         C           -0.385616480685     0.305585640759     0.203606308192    12.000000000000
         C            1.398927519315     1.848566640759    -0.447977691808    12.000000000000
         C            1.858558519315    -0.528171359241     0.231243308192    12.000000000000
         C           -1.201982480685     0.549356640759     1.286395308192    12.000000000000
         C           -2.556103480685     0.222207640759     1.030196308192    12.000000000000
         C            3.331045519315    -0.246273359241     0.014882308192    12.000000000000
         C           -2.751938480685    -0.263505359241    -0.244097691808    12.000000000000
         H            0.685312519315     2.598548640759    -0.104235691808     1.007825032230
         H            1.401119519315     1.842393640759    -1.545294691808     1.007825032230
         H            2.390521519315     2.126697640759    -0.089930691808     1.007825032230
         H           -0.818228480685     0.936598640759     2.224628308192     1.007825032230
         H           -3.358923480685     0.330335640759     1.751887308192     1.007825032230
         H            3.711620519315     0.471471640759     0.747535308192     1.007825032230
         H            3.524814519315     0.154053640759    -0.984341691808     1.007825032230
         H            3.859998519315    -1.191422359241     0.132931308192     1.007825032230
         H           -3.628608480685    -0.875955059241    -0.594440491808     1.007825032230

  Basis Set: AUG-CC-PVTZ
    Blend: AUG-CC-PVTZ
  Basis Set: (AUG-CC-PVTZ AUX)
    Blend: AUG-CC-PVTZ-JKFIT
	 Reference Energy          =    -797.2921891264287524 [Eh]
	 Singles Energy            =      -0.0000000000000000 [Eh]
	 Same-Spin Energy          =      -0.4870700968792504 [Eh]
	 Opposite-Spin Energy      =      -1.5065512155780234 [Eh]
	 Correlation Energy        =      -1.9936213124572739 [Eh]
	 Total Energy              =    -799.2858104388860738 [Eh]

	 ================> DF-SCS-MP2 Energies <==================
	-----------------------------------------------------------
	 SCS Same-Spin Scale       =       0.3333333333333333 [-]
	 SCS Opposite-Spin Scale   =       1.2000000000000000 [-]
	 SCS Same-Spin Energy      =      -0.1623566989597501 [Eh]
	 SCS Opposite-Spin Energy  =      -1.8078614586936279 [Eh]
	 SCS Correlation Energy    =      -1.9702181576533779 [Eh]
	 SCS Total Energy          =    -799.2624072840820872 [Eh]
	-----------------------------------------------------------

  Dipole Moment: [D]
     X:     0.7934      Y:     3.2907      Z:    -0.5413     Total:     3.4280

*** Psi4 exiting successfully. Buy a developer a beer!
