                               Psi4 1.3.2 release

  ==> Input File <==

--------------------------------------------------------------------------
#psi4
#
memory 32 gb

molecule  {
0 1
  S       -1.3336960    -0.3724180    -1.1448160
  O        1.3948110    -1.6888110     0.5141610
  N        0.9516030     0.5158590     0.1032830
  C       -0.4318110     0.2636330     0.1956970
  C        1.3527330     1.8066140    -0.4558870
  C        1.8123640    -0.5701240     0.2233340
  C       -1.2481770     0.5074040     1.2784860
  C       -2.6022980     0.1802550     1.0222870
  C        3.2848510    -0.2882260     0.0069730
  C       -2.7981330    -0.3054580    -0.2520070
  H        0.6391180     2.5565960    -0.1121450
  H        1.3549250     1.8004410    -1.5532040
  H        2.3443270     2.0847450    -0.0978400
  H       -0.8803878     0.9878535     2.1842000
  H       -3.4051180     0.2883830     1.7439780
  H        3.6654260     0.4295190     0.7396260
  H        3.4786200     0.1121010    -0.9922510
  H        3.8138040    -1.2333750     0.1250220
  H       -3.7244210    -0.6394710    -0.7024050
units angstrom
no_reorient  #important for SAPT in psi4, default
symmetry c1  #important for SAPT in psi4, default
}

set PROPERTIES_ORIGIN ["COM"]
properties('MP2/aug-cc-pvtz', properties = ['dipole'])
--------------------------------------------------------------------------

    Molecular point group: c1
  Charge       = 0
  Multiplicity = 1
  Basis Set: AUG-CC-PVTZ
    Blend: AUG-CC-PVTZ
  Basis Set: (AUG-CC-PVTZ AUX)
    Blend: AUG-CC-PVTZ-JKFIT

    Orbital Energies [Eh]
    ---------------------

    Doubly Occupied:

       1A    -91.982802     2A    -20.522795     3A    -15.602333
       4A    -11.358084     5A    -11.296563     6A    -11.278238
       7A    -11.262946     8A    -11.242997     9A    -11.239364
      10A    -11.238154    11A     -8.983171    12A     -6.664128
      13A     -6.663654    14A     -6.662869    15A     -1.380190
      16A     -1.263115    17A     -1.158913    18A     -1.021677
      19A     -0.987450    20A     -0.982626    21A     -0.942303
      22A     -0.813176    23A     -0.762429    24A     -0.714283
      25A     -0.687682    26A     -0.680188    27A     -0.648152
      28A     -0.624781    29A     -0.591170    30A     -0.579629
      31A     -0.565722    32A     -0.564211    33A     -0.555274
      34A     -0.546633    35A     -0.515156    36A     -0.504476
      37A     -0.477938    38A     -0.427165    39A     -0.387016
      40A     -0.345711    41A     -0.320709

  @DF-RHF Final Energy:  -797.29716665099716

   => Energetics <=

    Nuclear Repulsion Energy =            606.3886394294995625
    One-Electron Energy =               -2297.2798631729206136
    Two-Electron Energy =                 893.5940570924238955
    Total Energy =                       -797.2971666509971556
  Basis Set: (AUG-CC-PVTZ AUX)
    Blend: AUG-CC-PVTZ-RI
    Molecular point group: c1

    Geometry (in Angstrom), charge = 0, multiplicity = 1:

       Center              X                  Y                   Z               Mass
    ------------   -----------------  -----------------  -----------------  -----------------
         S           -1.287075166309    -0.332881194870    -1.136044906596    31.972071174400
         O            1.441431833691    -1.649274194870     0.522932093404    15.994914619570
         N            0.998223833691     0.555395805130     0.112054093404    14.003074004430
         C           -0.385190166309     0.303169805130     0.204468093404    12.000000000000
         C            1.399353833691     1.846150805130    -0.447115906596    12.000000000000
         C            1.858984833691    -0.530587194870     0.232105093404    12.000000000000
         C           -1.201556166309     0.546940805130     1.287257093404    12.000000000000
         C           -2.555677166309     0.219791805130     1.031058093404    12.000000000000
         C            3.331471833691    -0.248689194870     0.015744093404    12.000000000000
         C           -2.751512166309    -0.265921194870    -0.243235906596    12.000000000000
         H            0.685738833691     2.596132805130    -0.103373906596     1.007825032230
         H            1.401545833691     1.839977805130    -1.544432906596     1.007825032230
         H            2.390947833691     2.124281805130    -0.089068906596     1.007825032230
         H           -0.833766966309     1.027390305130     2.192971093404     1.007825032230
         H           -3.358497166309     0.327919805130     1.752749093404     1.007825032230
         H            3.712046833691     0.469055805130     0.748397093404     1.007825032230
         H            3.525240833691     0.151637805130    -0.983479906596     1.007825032230
         H            3.860424833691    -1.193838194870     0.133793093404     1.007825032230
         H           -3.677800166309    -0.599934194870    -0.693633906596     1.007825032230

  Basis Set: AUG-CC-PVTZ
    Blend: AUG-CC-PVTZ
  Basis Set: (AUG-CC-PVTZ AUX)
    Blend: AUG-CC-PVTZ-JKFIT
	 Reference Energy          =    -797.2971666509971556 [Eh]
	 Singles Energy            =      -0.0000000000000000 [Eh]
	 Same-Spin Energy          =      -0.4867254095739861 [Eh]
	 Opposite-Spin Energy      =      -1.5058264992132391 [Eh]
	 Correlation Energy        =      -1.9925519087872252 [Eh]
	 Total Energy              =    -799.2897185597844327 [Eh]

	 ================> DF-SCS-MP2 Energies <==================
	-----------------------------------------------------------
	 SCS Same-Spin Scale       =       0.3333333333333333 [-]
	 SCS Opposite-Spin Scale   =       1.2000000000000000 [-]
	 SCS Same-Spin Energy      =      -0.1622418031913287 [Eh]
	 SCS Opposite-Spin Energy  =      -1.8069917990558868 [Eh]
	 SCS Correlation Energy    =      -1.9692336022472154 [Eh]
	 SCS Total Energy          =    -799.2664002532443419 [Eh]
	-----------------------------------------------------------

  Dipole Moment: [D]
     X:     0.6664      Y:     3.5540      Z:    -0.6860     Total:     3.6804

*** Psi4 exiting successfully. Buy a developer a beer!
