                               Psi4 1.3.2 release

  ==> Input File <==

--------------------------------------------------------------------------
#psi4
#
memory 32 gb

molecule  {
0 1
  S       -1.3336960    -0.3724180    -1.1448160
  O        1.3948110    -1.6888110     0.5141610
  N        0.9516030     0.5158590     0.1032830
  C       -0.4318110     0.2636330     0.1956970
  C        1.3527330     1.8066140    -0.4558870
  C        1.8123640    -0.5701240     0.2233340
  C       -1.2481770     0.5074040     1.2784860
  C       -2.6022980     0.1802550     1.0222870
  C        3.2848510    -0.2882260     0.0069730
  C       -2.7981330    -0.3054580    -0.2520070
  H        0.6391180     2.5565960    -0.1121450
  H        1.3549250     1.8004410    -1.5532040
  H        2.3443270     2.0847450    -0.0978400
  H       -0.8644230     0.8946460     2.2167190
  H       -3.4051180     0.2883830     1.7439780
  H        3.6654260     0.4295190     0.7396260
  H        3.4786200     0.1121010    -0.9922510
  H        3.8138040    -1.2333750     0.1250220
  H       -3.6913424    -0.8250955    -0.6357015
units angstrom
no_reorient  #important for SAPT in psi4, default
symmetry c1  #important for SAPT in psi4, default
}

set PROPERTIES_ORIGIN ["COM"]
properties('MP2/aug-cc-pvtz', properties = ['dipole'])
--------------------------------------------------------------------------

    Molecular point group: c1
  Charge       = 0
  Multiplicity = 1
  Basis Set: AUG-CC-PVTZ
    Blend: AUG-CC-PVTZ
  Basis Set: (AUG-CC-PVTZ AUX)
    Blend: AUG-CC-PVTZ-JKFIT

    Orbital Energies [Eh]
    ---------------------

    Doubly Occupied:

       1A    -91.982670     2A    -20.523142     3A    -15.602631
       4A    -11.358458     5A    -11.297085     6A    -11.278195
       7A    -11.264058     8A    -11.243245     9A    -11.239808
      10A    -11.237994    11A     -8.983059    12A     -6.664013
      13A     -6.663527    14A     -6.662747    15A     -1.380554
      16A     -1.263412    17A     -1.158968    18A     -1.021846
      19A     -0.987436    20A     -0.982585    21A     -0.942088
      22A     -0.812943    23A     -0.760467    24A     -0.714557
      25A     -0.687456    26A     -0.680539    27A     -0.647962
      28A     -0.624180    29A     -0.591318    30A     -0.579626
      31A     -0.565614    32A     -0.563485    33A     -0.555146
      34A     -0.546621    35A     -0.514013    36A     -0.504929
      37A     -0.477982    38A     -0.427576    39A     -0.386868
      40A     -0.345846    41A     -0.320904

  @DF-RHF Final Energy:  -797.29542390908784

   => Energetics <=

    Nuclear Repulsion Energy =            606.3554032585228697
    One-Electron Energy =               -2297.2105467475521436
    Two-Electron Energy =                 893.5597195799413157
    Total Energy =                       -797.2954239090878445
  Basis Set: (AUG-CC-PVTZ AUX)
    Blend: AUG-CC-PVTZ-RI
    Molecular point group: c1

    Geometry (in Angstrom), charge = 0, multiplicity = 1:

       Center              X                  Y                   Z               Mass
    ------------   -----------------  -----------------  -----------------  -----------------
         S           -1.287393967983    -0.331068675584    -1.136689892447    31.972071174400
         O            1.441113032017    -1.647461675584     0.522287107553    15.994914619570
         N            0.997905032017     0.557208324416     0.111409107553    14.003074004430
         C           -0.385508967983     0.304982324416     0.203823107553    12.000000000000
         C            1.399035032017     1.847963324416    -0.447760892447    12.000000000000
         C            1.858666032017    -0.528774675584     0.231460107553    12.000000000000
         C           -1.201874967983     0.548753324416     1.286612107553    12.000000000000
         C           -2.555995967983     0.221604324416     1.030413107553    12.000000000000
         C            3.331153032017    -0.246876675584     0.015099107553    12.000000000000
         C           -2.751830967983    -0.264108675584    -0.243880892447    12.000000000000
         H            0.685420032017     2.597945324416    -0.104018892447     1.007825032230
         H            1.401227032017     1.841790324416    -1.545077892447     1.007825032230
         H            2.390629032017     2.126094324416    -0.089713892447     1.007825032230
         H           -0.818120967983     0.935995324416     2.224845107553     1.007825032230
         H           -3.358815967983     0.329732324416     1.752104107553     1.007825032230
         H            3.711728032017     0.470868324416     0.747752107553     1.007825032230
         H            3.524922032017     0.153450324416    -0.984124892447     1.007825032230
         H            3.860106032017    -1.192025675584     0.133148107553     1.007825032230
         H           -3.645040367983    -0.783746175584    -0.627575392447     1.007825032230

  Basis Set: AUG-CC-PVTZ
    Blend: AUG-CC-PVTZ
  Basis Set: (AUG-CC-PVTZ AUX)
    Blend: AUG-CC-PVTZ-JKFIT
	 Reference Energy          =    -797.2954239090878445 [Eh]
	 Singles Energy            =      -0.0000000000000000 [Eh]
	 Same-Spin Energy          =      -0.4868689782506502 [Eh]
	 Opposite-Spin Energy      =      -1.5060973904408743 [Eh]
	 Correlation Energy        =      -1.9929663686915244 [Eh]
	 Total Energy              =    -799.2883902777793992 [Eh]

	 ================> DF-SCS-MP2 Energies <==================
	-----------------------------------------------------------
	 SCS Same-Spin Scale       =       0.3333333333333333 [-]
	 SCS Opposite-Spin Scale   =       1.2000000000000000 [-]
	 SCS Same-Spin Energy      =      -0.1622896594168834 [Eh]
	 SCS Opposite-Spin Energy  =      -1.8073168685290490 [Eh]
	 SCS Correlation Energy    =      -1.9696065279459325 [Eh]
	 SCS Total Energy          =    -799.2650304370338290 [Eh]
	-----------------------------------------------------------

  Dipole Moment: [D]
     X:     0.7426      Y:     3.3489      Z:    -0.5857     Total:     3.4799

*** Psi4 exiting successfully. Buy a developer a beer!
