                               Psi4 1.3.2 release

  ==> Input File <==

--------------------------------------------------------------------------
#psi4
#
memory 32 gb

molecule  {
0 1
  S       -1.3336960    -0.3724180    -1.1448160
  O        1.3948110    -1.6888110     0.5141610
  N        0.9516030     0.5158590     0.1032830
  C       -0.4318110     0.2636330     0.1956970
  C        1.3527330     1.8066140    -0.4558870
  C        1.8123640    -0.5701240     0.2233340
  C       -1.2481770     0.5074040     1.2784860
  C       -2.6022980     0.1802550     1.0222870
  C        3.2738231    -0.3085737    -0.0903119
  C       -2.7981330    -0.3054580    -0.2520070
  H        0.6391180     2.5565960    -0.1121450
  H        1.3549250     1.8004410    -1.5532040
  H        2.3443270     2.0847450    -0.0978400
  H       -0.8644230     0.8946460     2.2167190
  H       -3.4051180     0.2883830     1.7439780
  H        3.6654260     0.4295190     0.7396260
  H        3.4786200     0.1121010    -0.9922510
  H        3.8138040    -1.2333750     0.1250220
  H       -3.7244210    -0.6394710    -0.7024050
units angstrom
no_reorient  #important for SAPT in psi4, default
symmetry c1  #important for SAPT in psi4, default
}

set PROPERTIES_ORIGIN ["COM"]
properties('MP2/aug-cc-pvtz', properties = ['dipole'])
--------------------------------------------------------------------------

    Molecular point group: c1
  Charge       = 0
  Multiplicity = 1
  Basis Set: AUG-CC-PVTZ
    Blend: AUG-CC-PVTZ
  Basis Set: (AUG-CC-PVTZ AUX)
    Blend: AUG-CC-PVTZ-JKFIT

    Orbital Energies [Eh]
    ---------------------

    Doubly Occupied:

       1A    -91.982905     2A    -20.523107     3A    -15.602259
       4A    -11.359144     5A    -11.296592     6A    -11.277949
       7A    -11.263009     8A    -11.244609     9A    -11.239255
      10A    -11.237717    11A     -8.983272    12A     -6.664230
      13A     -6.663759    14A     -6.662971    15A     -1.380491
      16A     -1.263139    17A     -1.158938    18A     -1.022229
      19A     -0.987597    20A     -0.982603    21A     -0.942564
      22A     -0.813804    23A     -0.762661    24A     -0.714720
      25A     -0.688545    26A     -0.685220    27A     -0.647649
      28A     -0.624944    29A     -0.600185    30A     -0.577802
      31A     -0.564862    32A     -0.559428    33A     -0.552571
      34A     -0.545457    35A     -0.514707    36A     -0.502546
      37A     -0.478072    38A     -0.426991    39A     -0.386899
      40A     -0.345838    41A     -0.320719

  @DF-RHF Final Energy:  -797.28765237739628

   => Energetics <=

    Nuclear Repulsion Energy =            606.4671536366605551
    One-Electron Energy =               -2297.4056882578129262
    Two-Electron Energy =                 893.6508822437562003
    Total Energy =                       -797.2876523773962845
  Basis Set: (AUG-CC-PVTZ AUX)
    Blend: AUG-CC-PVTZ-RI
    Molecular point group: c1

    Geometry (in Angstrom), charge = 0, multiplicity = 1:

       Center              X                  Y                   Z               Mass
    ------------   -----------------  -----------------  -----------------  -----------------
         S           -1.286325393920    -0.330700414466    -1.128726525612    31.972071174400
         O            1.442181606080    -1.647093414466     0.530250474388    15.994914619570
         N            0.998973606080     0.557576585534     0.119372474388    14.003074004430
         C           -0.384440393920     0.305350585534     0.211786474388    12.000000000000
         C            1.400103606080     1.848331585534    -0.439797525612    12.000000000000
         C            1.859734606080    -0.528406414466     0.239423474388    12.000000000000
         C           -1.200806393920     0.549121585534     1.294575474388    12.000000000000
         C           -2.554927393920     0.221972585534     1.038376474388    12.000000000000
         C            3.321193706080    -0.266856114466    -0.074222425612    12.000000000000
         C           -2.750762393920    -0.263740414466    -0.235917525612    12.000000000000
         H            0.686488606080     2.598313585534    -0.096055525612     1.007825032230
         H            1.402295606080     1.842158585534    -1.537114525612     1.007825032230
         H            2.391697606080     2.126462585534    -0.081750525612     1.007825032230
         H           -0.817052393920     0.936363585534     2.232808474388     1.007825032230
         H           -3.357747393920     0.330100585534     1.760067474388     1.007825032230
         H            3.712796606080     0.471236585534     0.755715474388     1.007825032230
         H            3.525990606080     0.153818585534    -0.976161525612     1.007825032230
         H            3.861174606080    -1.191657414466     0.141111474388     1.007825032230
         H           -3.677050393920    -0.597753414466    -0.686315525612     1.007825032230

  Basis Set: AUG-CC-PVTZ
    Blend: AUG-CC-PVTZ
  Basis Set: (AUG-CC-PVTZ AUX)
    Blend: AUG-CC-PVTZ-JKFIT
	 Reference Energy          =    -797.2876523773962845 [Eh]
	 Singles Energy            =      -0.0000000000000000 [Eh]
	 Same-Spin Energy          =      -0.4868511049585951 [Eh]
	 Opposite-Spin Energy      =      -1.5061501139345403 [Eh]
	 Correlation Energy        =      -1.9930012188931354 [Eh]
	 Total Energy              =    -799.2806535962894259 [Eh]

	 ================> DF-SCS-MP2 Energies <==================
	-----------------------------------------------------------
	 SCS Same-Spin Scale       =       0.3333333333333333 [-]
	 SCS Opposite-Spin Scale   =       1.2000000000000000 [-]
	 SCS Same-Spin Energy      =      -0.1622837016528650 [Eh]
	 SCS Opposite-Spin Energy  =      -1.8073801367214484 [Eh]
	 SCS Correlation Energy    =      -1.9696638383743135 [Eh]
	 SCS Total Energy          =    -799.2573162157706292 [Eh]
	-----------------------------------------------------------

  Dipole Moment: [D]
     X:     0.6693      Y:     3.4724      Z:    -0.6862     Total:     3.6023

*** Psi4 exiting successfully. Buy a developer a beer!
