                               Psi4 1.3.2 release

  ==> Input File <==

--------------------------------------------------------------------------
#psi4
#
memory 32 gb

molecule  {
0 1
  S       -1.3336960    -0.3724180    -1.1448160
  O        1.3948110    -1.6888110     0.5141610
  N        0.9516030     0.5158590     0.1032830
  C       -0.4318110     0.2636330     0.1956970
  C        1.3527330     1.8066140    -0.4558870
  C        1.8123640    -0.5701240     0.2233340
  C       -1.2481770     0.5074040     1.2784860
  C       -2.6022980     0.1802550     1.0222870
  C        3.2848510    -0.2882260     0.0069730
  C       -2.7981330    -0.3054580    -0.2520070
  H        0.6391180     2.5565960    -0.1121450
  H        1.3549250     1.8004410    -1.5532040
  H        2.3443270     2.0847450    -0.0978400
  H       -0.8644230     0.8946460     2.2167190
  H       -3.4051180     0.2883830     1.7439780
  H        3.6654260     0.4295190     0.7396260
  H        3.4786200     0.1121010    -0.9922510
  H        3.8138040    -1.2333750     0.1250220
  H       -3.7161513    -0.6858771    -0.6857291
units angstrom
no_reorient  #important for SAPT in psi4, default
symmetry c1  #important for SAPT in psi4, default
}

set PROPERTIES_ORIGIN ["COM"]
properties('MP2/aug-cc-pvtz', properties = ['dipole'])
--------------------------------------------------------------------------

    Molecular point group: c1
  Charge       = 0
  Multiplicity = 1
  Basis Set: AUG-CC-PVTZ
    Blend: AUG-CC-PVTZ
  Basis Set: (AUG-CC-PVTZ AUX)
    Blend: AUG-CC-PVTZ-JKFIT

    Orbital Energies [Eh]
    ---------------------

    Doubly Occupied:

       1A    -91.982738     2A    -20.522945     3A    -15.602394
       4A    -11.358198     5A    -11.296577     6A    -11.278074
       7A    -11.262970     8A    -11.243057     9A    -11.239273
      10A    -11.237760    11A     -8.983112    12A     -6.664069
      13A     -6.663594    14A     -6.662809    15A     -1.380342
      16A     -1.263154    17A     -1.158880    18A     -1.021730
      19A     -0.987537    20A     -0.982558    21A     -0.942213
      22A     -0.813266    23A     -0.762361    24A     -0.714505
      25A     -0.687874    26A     -0.680337    27A     -0.648099
      28A     -0.624720    29A     -0.591184    30A     -0.579590
      31A     -0.565901    32A     -0.564117    33A     -0.555245
      34A     -0.546504    35A     -0.514975    36A     -0.505003
      37A     -0.478034    38A     -0.427338    39A     -0.386943
      40A     -0.345756    41A     -0.320718

  @DF-RHF Final Energy:  -797.29757365951923

   => Energetics <=

    Nuclear Repulsion Energy =            606.4162258791665181
    One-Electron Energy =               -2297.3346875865067886
    Two-Electron Energy =                 893.6208880478209267
    Total Energy =                       -797.2975736595192302
  Basis Set: (AUG-CC-PVTZ AUX)
    Blend: AUG-CC-PVTZ-RI
    Molecular point group: c1

    Geometry (in Angstrom), charge = 0, multiplicity = 1:

       Center              X                  Y                   Z               Mass
    ------------   -----------------  -----------------  -----------------  -----------------
         S           -1.287232700232    -0.331973650748    -1.136364693080    31.972071174400
         O            1.441274299768    -1.648366650748     0.522612306920    15.994914619570
         N            0.998066299768     0.556303349252     0.111734306920    14.003074004430
         C           -0.385347700232     0.304077349252     0.204148306920    12.000000000000
         C            1.399196299768     1.847058349252    -0.447435693080    12.000000000000
         C            1.858827299768    -0.529679650748     0.231785306920    12.000000000000
         C           -1.201713700232     0.547848349252     1.286937306920    12.000000000000
         C           -2.555834700232     0.220699349252     1.030738306920    12.000000000000
         C            3.331314299768    -0.247781650748     0.015424306920    12.000000000000
         C           -2.751669700232    -0.265013650748    -0.243555693080    12.000000000000
         H            0.685581299768     2.597040349252    -0.103693693080     1.007825032230
         H            1.401388299768     1.840885349252    -1.544752693080     1.007825032230
         H            2.390790299768     2.125189349252    -0.089388693080     1.007825032230
         H           -0.817959700232     0.935090349252     2.225170306920     1.007825032230
         H           -3.358654700232     0.328827349252     1.752429306920     1.007825032230
         H            3.711889299768     0.469963349252     0.748077306920     1.007825032230
         H            3.525083299768     0.152545349252    -0.983799693080     1.007825032230
         H            3.860267299768    -1.192930650748     0.133473306920     1.007825032230
         H           -3.669688000232    -0.645432750748    -0.677277793080     1.007825032230

  Basis Set: AUG-CC-PVTZ
    Blend: AUG-CC-PVTZ
  Basis Set: (AUG-CC-PVTZ AUX)
    Blend: AUG-CC-PVTZ-JKFIT
	 Reference Energy          =    -797.2975736595192302 [Eh]
	 Singles Energy            =      -0.0000000000000000 [Eh]
	 Same-Spin Energy          =      -0.4867115529272436 [Eh]
	 Opposite-Spin Energy      =      -1.5057716105656573 [Eh]
	 Correlation Energy        =      -1.9924831634929010 [Eh]
	 Total Energy              =    -799.2900568230121507 [Eh]

	 ================> DF-SCS-MP2 Energies <==================
	-----------------------------------------------------------
	 SCS Same-Spin Scale       =       0.3333333333333333 [-]
	 SCS Opposite-Spin Scale   =       1.2000000000000000 [-]
	 SCS Same-Spin Energy      =      -0.1622371843090812 [Eh]
	 SCS Opposite-Spin Energy  =      -1.8069259326787888 [Eh]
	 SCS Correlation Energy    =      -1.9691631169878701 [Eh]
	 SCS Total Energy          =    -799.2667367765070594 [Eh]
	-----------------------------------------------------------

  Dipole Moment: [D]
     X:     0.6910      Y:     3.4493      Z:    -0.6411     Total:     3.5758

*** Psi4 exiting successfully. Buy a developer a beer!
