                               Psi4 1.3.2 release

  ==> Input File <==

--------------------------------------------------------------------------
#psi4
#
memory 32 gb

molecule  {
0 1
  S       -1.3336960    -0.3724180    -1.1448160
  O        1.3948110    -1.6888110     0.5141610
  N        0.9516030     0.5158590     0.1032830
  C       -0.4318110     0.2636330     0.1956970
  C        1.3527330     1.8066140    -0.4558870
  C        1.8123640    -0.5701240     0.2233340
  C       -1.2481770     0.5074040     1.2784860
  C       -2.6022980     0.1802550     1.0222870
  C        3.2627953    -0.3289213    -0.1875969
  C       -2.7981330    -0.3054580    -0.2520070
  H        0.6391180     2.5565960    -0.1121450
  H        1.3549250     1.8004410    -1.5532040
  H        2.3443270     2.0847450    -0.0978400
  H       -0.8644230     0.8946460     2.2167190
  H       -3.4051180     0.2883830     1.7439780
  H        3.6654260     0.4295190     0.7396260
  H        3.4786200     0.1121010    -0.9922510
  H        3.8138040    -1.2333750     0.1250220
  H       -3.7244210    -0.6394710    -0.7024050
units angstrom
no_reorient  #important for SAPT in psi4, default
symmetry c1  #important for SAPT in psi4, default
}

set PROPERTIES_ORIGIN ["COM"]
properties('MP2/aug-cc-pvtz', properties = ['dipole'])
--------------------------------------------------------------------------

    Molecular point group: c1
  Charge       = 0
  Multiplicity = 1
  Basis Set: AUG-CC-PVTZ
    Blend: AUG-CC-PVTZ
  Basis Set: (AUG-CC-PVTZ AUX)
    Blend: AUG-CC-PVTZ-JKFIT

    Orbital Energies [Eh]
    ---------------------

    Doubly Occupied:

       1A    -91.983159     2A    -20.523993     3A    -15.602339
       4A    -11.361907     5A    -11.296770     6A    -11.277744
       7A    -11.263213     8A    -11.248959     9A    -11.239386
      10A    -11.237811    11A     -8.983521    12A     -6.664479
      13A     -6.664011    14A     -6.663220    15A     -1.381172
      16A     -1.263364    17A     -1.159101    18A     -1.023626
      19A     -0.987763    20A     -0.982836    21A     -0.943488
      22A     -0.815571    23A     -0.762974    24A     -0.716110
      25A     -0.700060    26A     -0.687403    27A     -0.646763
      28A     -0.625598    29A     -0.608361    30A     -0.577053
      31A     -0.564815    32A     -0.559348    33A     -0.547890
      34A     -0.538264    35A     -0.514307    36A     -0.493217
      37A     -0.477888    38A     -0.425982    39A     -0.387002
      40A     -0.346027    41A     -0.320881

  @DF-RHF Final Energy:  -797.25716705161039

   => Energetics <=

    Nuclear Repulsion Energy =            606.4285064041215492
    One-Electron Energy =               -2297.2365996903909036
    Two-Electron Energy =                 893.5509262346590731
    Total Energy =                       -797.2571670516103950
  Basis Set: (AUG-CC-PVTZ AUX)
    Blend: AUG-CC-PVTZ-RI
    Molecular point group: c1

    Geometry (in Angstrom), charge = 0, multiplicity = 1:

       Center              X                  Y                   Z               Mass
    ------------   -----------------  -----------------  -----------------  -----------------
         S           -1.285471851699    -0.329125527753    -1.121196750410    31.972071174400
         O            1.443035148301    -1.645518527753     0.537780249590    15.994914619570
         N            0.999827148301     0.559151472247     0.126902249590    14.003074004430
         C           -0.383586851699     0.306925472247     0.219316249590    12.000000000000
         C            1.400957148301     1.849906472247    -0.432267750410    12.000000000000
         C            1.860588148301    -0.526831527753     0.246953249590    12.000000000000
         C           -1.199952851699     0.550696472247     1.302105249590    12.000000000000
         C           -2.554073851699     0.223547472247     1.045906249590    12.000000000000
         C            3.311019448301    -0.285628827753    -0.163977650410    12.000000000000
         C           -2.749908851699    -0.262165527753    -0.228387750410    12.000000000000
         H            0.687342148301     2.599888472247    -0.088525750410     1.007825032230
         H            1.403149148301     1.843733472247    -1.529584750410     1.007825032230
         H            2.392551148301     2.128037472247    -0.074220750410     1.007825032230
         H           -0.816198851699     0.937938472247     2.240338249590     1.007825032230
         H           -3.356893851699     0.331675472247     1.767597249590     1.007825032230
         H            3.713650148301     0.472811472247     0.763245249590     1.007825032230
         H            3.526844148301     0.155393472247    -0.968631750410     1.007825032230
         H            3.862028148301    -1.190082527753     0.148641249590     1.007825032230
         H           -3.676196851699    -0.596178527753    -0.678785750410     1.007825032230

  Basis Set: AUG-CC-PVTZ
    Blend: AUG-CC-PVTZ
  Basis Set: (AUG-CC-PVTZ AUX)
    Blend: AUG-CC-PVTZ-JKFIT
	 Reference Energy          =    -797.2571670516103950 [Eh]
	 Singles Energy            =      -0.0000000000000000 [Eh]
	 Same-Spin Energy          =      -0.4872889293538277 [Eh]
	 Opposite-Spin Energy      =      -1.5075115045672387 [Eh]
	 Correlation Energy        =      -1.9948004339210663 [Eh]
	 Total Energy              =    -799.2519674855315088 [Eh]

	 ================> DF-SCS-MP2 Energies <==================
	-----------------------------------------------------------
	 SCS Same-Spin Scale       =       0.3333333333333333 [-]
	 SCS Opposite-Spin Scale   =       1.2000000000000000 [-]
	 SCS Same-Spin Energy      =      -0.1624296431179426 [Eh]
	 SCS Opposite-Spin Energy  =      -1.8090138054806864 [Eh]
	 SCS Correlation Energy    =      -1.9714434485986290 [Eh]
	 SCS Total Energy          =    -799.2286105002090153 [Eh]
	-----------------------------------------------------------

  Dipole Moment: [D]
     X:     0.6353      Y:     3.4447      Z:    -0.7064     Total:     3.5733

*** Psi4 exiting successfully. Buy a developer a beer!
