                               Psi4 1.3.2 release

  ==> Input File <==

--------------------------------------------------------------------------
#psi4
#
memory 32 gb

molecule  {
0 1
  S       -1.3336960    -0.3724180    -1.1448160
  O        1.3948110    -1.6888110     0.5141610
  N        0.9516030     0.5158590     0.1032830
  C       -0.4318110     0.2636330     0.1956970
  C        1.3527330     1.8066140    -0.4558870
  C        1.8123640    -0.5701240     0.2233340
  C       -1.2121958     0.3220744     1.3445034
  C       -2.6022980     0.1802550     1.0222870
  C        3.2848510    -0.2882260     0.0069730
  C       -2.7981330    -0.3054580    -0.2520070
  H        0.6391180     2.5565960    -0.1121450
  H        1.3549250     1.8004410    -1.5532040
  H        2.3443270     2.0847450    -0.0978400
  H       -0.8644230     0.8946460     2.2167190
  H       -3.4051180     0.2883830     1.7439780
  H        3.6654260     0.4295190     0.7396260
  H        3.4786200     0.1121010    -0.9922510
  H        3.8138040    -1.2333750     0.1250220
  H       -3.7244210    -0.6394710    -0.7024050
units angstrom
no_reorient  #important for SAPT in psi4, default
symmetry c1  #important for SAPT in psi4, default
}

set PROPERTIES_ORIGIN ["COM"]
properties('MP2/aug-cc-pvtz', properties = ['dipole'])
--------------------------------------------------------------------------

    Molecular point group: c1
  Charge       = 0
  Multiplicity = 1
  Basis Set: AUG-CC-PVTZ
    Blend: AUG-CC-PVTZ
  Basis Set: (AUG-CC-PVTZ AUX)
    Blend: AUG-CC-PVTZ-JKFIT

    Orbital Energies [Eh]
    ---------------------

    Doubly Occupied:

       1A    -91.983363     2A    -20.522839     3A    -15.602645
       4A    -11.358178     5A    -11.299738     6A    -11.279025
       7A    -11.262553     8A    -11.243200     9A    -11.241785
      10A    -11.240551    11A     -8.983765    12A     -6.664714
      13A     -6.664238    14A     -6.663461    15A     -1.380337
      16A     -1.263329    17A     -1.156889    18A     -1.021637
      19A     -0.985657    20A     -0.982776    21A     -0.941075
      22A     -0.813436    23A     -0.760656    24A     -0.711881
      25A     -0.686073    26A     -0.680331    27A     -0.648479
      28A     -0.623357    29A     -0.591416    30A     -0.579918
      31A     -0.565727    32A     -0.562946    33A     -0.552096
      34A     -0.544839    35A     -0.513248    36A     -0.504310
      37A     -0.476509    38A     -0.427203    39A     -0.386805
      40A     -0.344841    41A     -0.320312

  @DF-RHF Final Energy:  -797.28601518370419

   => Energetics <=

    Nuclear Repulsion Energy =            606.1773358491407180
    One-Electron Energy =               -2296.8544233161383090
    Two-Electron Energy =                 893.3910722832933970
    Total Energy =                       -797.2860151837041940
  Basis Set: (AUG-CC-PVTZ AUX)
    Blend: AUG-CC-PVTZ-RI
    Molecular point group: c1

    Geometry (in Angstrom), charge = 0, multiplicity = 1:

       Center              X                  Y                   Z               Mass
    ------------   -----------------  -----------------  -----------------  -----------------
         S           -1.289963857768    -0.317930957515    -1.141365982970    31.972071174400
         O            1.438543142232    -1.634323957515     0.517611017030    15.994914619570
         N            0.995335142232     0.570346042485     0.106733017030    14.003074004430
         C           -0.388078857768     0.318120042485     0.199147017030    12.000000000000
         C            1.396465142232     1.861101042485    -0.452436982970    12.000000000000
         C            1.856096142232    -0.515636957515     0.226784017030    12.000000000000
         C           -1.168463657768     0.376561442485     1.347953417030    12.000000000000
         C           -2.558565857768     0.234742042485     1.025737017030    12.000000000000
         C            3.328583142232    -0.233738957515     0.010423017030    12.000000000000
         C           -2.754400857768    -0.250970957515    -0.248556982970    12.000000000000
         H            0.682850142232     2.611083042485    -0.108694982970     1.007825032230
         H            1.398657142232     1.854928042485    -1.549753982970     1.007825032230
         H            2.388059142232     2.139232042485    -0.094389982970     1.007825032230
         H           -0.820690857768     0.949133042485     2.220169017030     1.007825032230
         H           -3.361385857768     0.342870042485     1.747428017030     1.007825032230
         H            3.709158142232     0.484006042485     0.743076017030     1.007825032230
         H            3.522352142232     0.166588042485    -0.988800982970     1.007825032230
         H            3.857536142232    -1.178887957515     0.128472017030     1.007825032230
         H           -3.680688857768    -0.584983957515    -0.698954982970     1.007825032230

  Basis Set: AUG-CC-PVTZ
    Blend: AUG-CC-PVTZ
  Basis Set: (AUG-CC-PVTZ AUX)
    Blend: AUG-CC-PVTZ-JKFIT
	 Reference Energy          =    -797.2860151837041940 [Eh]
	 Singles Energy            =      -0.0000000000000000 [Eh]
	 Same-Spin Energy          =      -0.4873665893256508 [Eh]
	 Opposite-Spin Energy      =      -1.5075498069584408 [Eh]
	 Correlation Energy        =      -1.9949163962840917 [Eh]
	 Total Energy              =    -799.2809315799883052 [Eh]

	 ================> DF-SCS-MP2 Energies <==================
	-----------------------------------------------------------
	 SCS Same-Spin Scale       =       0.3333333333333333 [-]
	 SCS Opposite-Spin Scale   =       1.2000000000000000 [-]
	 SCS Same-Spin Energy      =      -0.1624555297752169 [Eh]
	 SCS Opposite-Spin Energy  =      -1.8090597683501288 [Eh]
	 SCS Correlation Energy    =      -1.9715152981253459 [Eh]
	 SCS Total Energy          =    -799.2575304818295763 [Eh]
	-----------------------------------------------------------

  Dipole Moment: [D]
     X:     0.6708      Y:     3.5613      Z:    -0.7528     Total:     3.7013

*** Psi4 exiting successfully. Buy a developer a beer!
