                               Psi4 1.3.2 release

  ==> Input File <==

--------------------------------------------------------------------------
#psi4
#
memory 32 gb

molecule  {
0 1
  S       -1.3336960    -0.3724180    -1.1448160
  O        1.3948110    -1.6888110     0.5141610
  N        0.9516030     0.5158590     0.1032830
  C       -0.4318110     0.2636330     0.1956970
  C        1.3527330     1.8066140    -0.4558870
  C        1.8123640    -0.5701240     0.2233340
  C       -1.2481770     0.5074040     1.2784860
  C       -2.6022980     0.1802550     1.0222870
  C        3.2848510    -0.2882260     0.0069730
  C       -2.7981330    -0.3054580    -0.2520070
  H        0.6391180     2.5565960    -0.1121450
  H        1.3549250     1.8004410    -1.5532040
  H        2.3443270     2.0847450    -0.0978400
  H       -0.8883702     1.0344572     2.1679404
  H       -3.4051180     0.2883830     1.7439780
  H        3.6654260     0.4295190     0.7396260
  H        3.4786200     0.1121010    -0.9922510
  H        3.8138040    -1.2333750     0.1250220
  H       -3.7244210    -0.6394710    -0.7024050
units angstrom
no_reorient  #important for SAPT in psi4, default
symmetry c1  #important for SAPT in psi4, default
}

set PROPERTIES_ORIGIN ["COM"]
properties('MP2/aug-cc-pvtz', properties = ['dipole'])
--------------------------------------------------------------------------

    Molecular point group: c1
  Charge       = 0
  Multiplicity = 1
  Basis Set: AUG-CC-PVTZ
    Blend: AUG-CC-PVTZ
  Basis Set: (AUG-CC-PVTZ AUX)
    Blend: AUG-CC-PVTZ-JKFIT

    Orbital Energies [Eh]
    ---------------------

    Doubly Occupied:

       1A    -91.982886     2A    -20.522756     3A    -15.602345
       4A    -11.358076     5A    -11.296696     6A    -11.278340
       7A    -11.262982     8A    -11.242997     9A    -11.239588
      10A    -11.238520    11A     -8.983254    12A     -6.664210
      13A     -6.663736    14A     -6.662952    15A     -1.380154
      16A     -1.263142    17A     -1.158962    18A     -1.021680
      19A     -0.987302    20A     -0.982688    21A     -0.942355
      22A     -0.813117    23A     -0.762303    24A     -0.713775
      25A     -0.687445    26A     -0.680143    27A     -0.648174
      28A     -0.624818    29A     -0.591186    30A     -0.579665
      31A     -0.565698    32A     -0.563970    33A     -0.555311
      34A     -0.546599    35A     -0.514996    36A     -0.504300
      37A     -0.477842    38A     -0.427122    39A     -0.387046
      40A     -0.345676    41A     -0.320760

  @DF-RHF Final Energy:  -797.29643011360929

   => Energetics <=

    Nuclear Repulsion Energy =            606.3601042078275896
    One-Electron Energy =               -2297.2219336872076383
    Two-Electron Energy =                 893.5653993657707588
    Total Energy =                       -797.2964301136092899
  Basis Set: (AUG-CC-PVTZ AUX)
    Blend: AUG-CC-PVTZ-RI
    Molecular point group: c1

    Geometry (in Angstrom), charge = 0, multiplicity = 1:

       Center              X                  Y                   Z               Mass
    ------------   -----------------  -----------------  -----------------  -----------------
         S           -1.287023277524    -0.333184137520    -1.135939212706    31.972071174400
         O            1.441483722476    -1.649577137520     0.523037787294    15.994914619570
         N            0.998275722476     0.555092862480     0.112159787294    14.003074004430
         C           -0.385138277524     0.302866862480     0.204573787294    12.000000000000
         C            1.399405722476     1.845847862480    -0.447010212706    12.000000000000
         C            1.859036722476    -0.530890137520     0.232210787294    12.000000000000
         C           -1.201504277524     0.546637862480     1.287362787294    12.000000000000
         C           -2.555625277524     0.219488862480     1.031163787294    12.000000000000
         C            3.331523722476    -0.248992137520     0.015849787294    12.000000000000
         C           -2.751460277524    -0.266224137520    -0.243130212706    12.000000000000
         H            0.685790722476     2.595829862480    -0.103268212706     1.007825032230
         H            1.401597722476     1.839674862480    -1.544327212706     1.007825032230
         H            2.390999722476     2.123978862480    -0.088963212706     1.007825032230
         H           -0.841697477524     1.073691062480     2.176817187294     1.007825032230
         H           -3.358445277524     0.327616862480     1.752854787294     1.007825032230
         H            3.712098722476     0.468752862480     0.748502787294     1.007825032230
         H            3.525292722476     0.151334862480    -0.983374212706     1.007825032230
         H            3.860476722476    -1.194141137520     0.133898787294     1.007825032230
         H           -3.677748277524    -0.600237137520    -0.693528212706     1.007825032230

  Basis Set: AUG-CC-PVTZ
    Blend: AUG-CC-PVTZ
  Basis Set: (AUG-CC-PVTZ AUX)
    Blend: AUG-CC-PVTZ-JKFIT
	 Reference Energy          =    -797.2964301136092899 [Eh]
	 Singles Energy            =      -0.0000000000000000 [Eh]
	 Same-Spin Energy          =      -0.4867652000281901 [Eh]
	 Opposite-Spin Energy      =      -1.5059262470020214 [Eh]
	 Correlation Energy        =      -1.9926914470302115 [Eh]
	 Total Energy              =    -799.2891215606395008 [Eh]

	 ================> DF-SCS-MP2 Energies <==================
	-----------------------------------------------------------
	 SCS Same-Spin Scale       =       0.3333333333333333 [-]
	 SCS Opposite-Spin Scale   =       1.2000000000000000 [-]
	 SCS Same-Spin Energy      =      -0.1622550666760634 [Eh]
	 SCS Opposite-Spin Energy  =      -1.8071114964024255 [Eh]
	 SCS Correlation Energy    =      -1.9693665630784889 [Eh]
	 SCS Total Energy          =    -799.2657966766877280 [Eh]
	-----------------------------------------------------------

  Dipole Moment: [D]
     X:     0.6576      Y:     3.5855      Z:    -0.7062     Total:     3.7131

*** Psi4 exiting successfully. Buy a developer a beer!
