                               Psi4 1.3.2 release

  ==> Input File <==

--------------------------------------------------------------------------
#psi4
#
memory 32 gb

molecule  {
0 1
  S       -1.3336960    -0.3724180    -1.1448160
  O        1.3948110    -1.6888110     0.5141610
  N        0.9516030     0.5158590     0.1032830
  C       -0.4318110     0.2636330     0.1956970
  C        1.3527330     1.8066140    -0.4558870
  C        1.8123640    -0.5701240     0.2233340
  C       -1.2481770     0.5074040     1.2784860
  C       -2.6022980     0.1802550     1.0222870
  C        3.2683092    -0.3187475    -0.1389544
  C       -2.7981330    -0.3054580    -0.2520070
  H        0.6391180     2.5565960    -0.1121450
  H        1.3549250     1.8004410    -1.5532040
  H        2.3443270     2.0847450    -0.0978400
  H       -0.8644230     0.8946460     2.2167190
  H       -3.4051180     0.2883830     1.7439780
  H        3.6654260     0.4295190     0.7396260
  H        3.4786200     0.1121010    -0.9922510
  H        3.8138040    -1.2333750     0.1250220
  H       -3.7244210    -0.6394710    -0.7024050
units angstrom
no_reorient  #important for SAPT in psi4, default
symmetry c1  #important for SAPT in psi4, default
}

set PROPERTIES_ORIGIN ["COM"]
properties('MP2/aug-cc-pvtz', properties = ['dipole'])
--------------------------------------------------------------------------

    Molecular point group: c1
  Charge       = 0
  Multiplicity = 1
  Basis Set: AUG-CC-PVTZ
    Blend: AUG-CC-PVTZ
  Basis Set: (AUG-CC-PVTZ AUX)
    Blend: AUG-CC-PVTZ-JKFIT

    Orbital Energies [Eh]
    ---------------------

    Doubly Occupied:

       1A    -91.983020     2A    -20.523465     3A    -15.602276
       4A    -11.360311     5A    -11.296666     6A    -11.277853
       7A    -11.263098     8A    -11.246442     9A    -11.239308
      10A    -11.237750    11A     -8.983385    12A     -6.664342
      13A     -6.663873    14A     -6.663083    15A     -1.380771
      16A     -1.263226    17A     -1.159007    18A     -1.022802
      19A     -0.987665    20A     -0.982694    21A     -0.942951
      22A     -0.814509    23A     -0.762793    24A     -0.715141
      25A     -0.692985    26A     -0.687065    27A     -0.647221
      28A     -0.625155    29A     -0.604963    30A     -0.577444
      31A     -0.564827    32A     -0.559070    33A     -0.549452
      34A     -0.542339    35A     -0.514475    36A     -0.498809
      37A     -0.478044    38A     -0.426596    39A     -0.386925
      40A     -0.345920    41A     -0.320787

  @DF-RHF Final Energy:  -797.27499293301344

   => Energetics <=

    Nuclear Repulsion Energy =            606.4586985232848519
    One-Electron Energy =               -2297.3503625716239185
    Two-Electron Energy =                 893.6166711153255164
    Total Energy =                       -797.2749929330134364
  Basis Set: (AUG-CC-PVTZ AUX)
    Blend: AUG-CC-PVTZ-RI
    Molecular point group: c1

    Geometry (in Angstrom), charge = 0, multiplicity = 1:

       Center              X                  Y                   Z               Mass
    ------------   -----------------  -----------------  -----------------  -----------------
         S           -1.285898622810    -0.329912971109    -1.124961638011    31.972071174400
         O            1.442608377190    -1.646305971109     0.534015361989    15.994914619570
         N            0.999400377190     0.558364028891     0.123137361989    14.003074004430
         C           -0.384013622810     0.306138028891     0.215551361989    12.000000000000
         C            1.400530377190     1.849119028891    -0.436032638011    12.000000000000
         C            1.860161377190    -0.527618971109     0.243188361989    12.000000000000
         C           -1.200379622810     0.549909028891     1.298340361989    12.000000000000
         C           -2.554500622810     0.222760028891     1.042141361989    12.000000000000
         C            3.316106577190    -0.276242471109    -0.119100038011    12.000000000000
         C           -2.750335622810    -0.262952971109    -0.232152638011    12.000000000000
         H            0.686915377190     2.599101028891    -0.092290638011     1.007825032230
         H            1.402722377190     1.842946028891    -1.533349638011     1.007825032230
         H            2.392124377190     2.127250028891    -0.077985638011     1.007825032230
         H           -0.816625622810     0.937151028891     2.236573361989     1.007825032230
         H           -3.357320622810     0.330888028891     1.763832361989     1.007825032230
         H            3.713223377190     0.472024028891     0.759480361989     1.007825032230
         H            3.526417377190     0.154606028891    -0.972396638011     1.007825032230
         H            3.861601377190    -1.190869971109     0.144876361989     1.007825032230
         H           -3.676623622810    -0.596965971109    -0.682550638011     1.007825032230

  Basis Set: AUG-CC-PVTZ
    Blend: AUG-CC-PVTZ
  Basis Set: (AUG-CC-PVTZ AUX)
    Blend: AUG-CC-PVTZ-JKFIT
	 Reference Energy          =    -797.2749929330134364 [Eh]
	 Singles Energy            =      -0.0000000000000000 [Eh]
	 Same-Spin Energy          =      -0.4870337054441934 [Eh]
	 Opposite-Spin Energy      =      -1.5067048826226022 [Eh]
	 Correlation Energy        =      -1.9937385880667957 [Eh]
	 Total Energy              =    -799.2687315210802126 [Eh]

	 ================> DF-SCS-MP2 Energies <==================
	-----------------------------------------------------------
	 SCS Same-Spin Scale       =       0.3333333333333333 [-]
	 SCS Opposite-Spin Scale   =       1.2000000000000000 [-]
	 SCS Same-Spin Energy      =      -0.1623445684813978 [Eh]
	 SCS Opposite-Spin Energy  =      -1.8080458591471225 [Eh]
	 SCS Correlation Energy    =      -1.9703904276285202 [Eh]
	 SCS Total Energy          =    -799.2453833606419948 [Eh]
	-----------------------------------------------------------

  Dipole Moment: [D]
     X:     0.6549      Y:     3.4600      Z:    -0.6978     Total:     3.5899

*** Psi4 exiting successfully. Buy a developer a beer!
