                               Psi4 1.3.2 release

  ==> Input File <==

--------------------------------------------------------------------------
#psi4
#
memory 32 gb

molecule  {
0 1
  S       -1.3336960    -0.3724180    -1.1448160
  O        1.3948110    -1.6888110     0.5141610
  N        0.9516030     0.5158590     0.1032830
  C       -0.4318110     0.2636330     0.1956970
  C        1.3527330     1.8066140    -0.4558870
  C        1.8123640    -0.5701240     0.2233340
  C       -1.2481770     0.5074040     1.2784860
  C       -2.6022980     0.1802550     1.0222870
  C        3.2572813    -0.3390952    -0.2362393
  C       -2.7981330    -0.3054580    -0.2520070
  H        0.6391180     2.5565960    -0.1121450
  H        1.3549250     1.8004410    -1.5532040
  H        2.3443270     2.0847450    -0.0978400
  H       -0.8644230     0.8946460     2.2167190
  H       -3.4051180     0.2883830     1.7439780
  H        3.6654260     0.4295190     0.7396260
  H        3.4786200     0.1121010    -0.9922510
  H        3.8138040    -1.2333750     0.1250220
  H       -3.7244210    -0.6394710    -0.7024050
units angstrom
no_reorient  #important for SAPT in psi4, default
symmetry c1  #important for SAPT in psi4, default
}

set PROPERTIES_ORIGIN ["COM"]
properties('MP2/aug-cc-pvtz', properties = ['dipole'])
--------------------------------------------------------------------------

    Molecular point group: c1
  Charge       = 0
  Multiplicity = 1
  Basis Set: AUG-CC-PVTZ
    Blend: AUG-CC-PVTZ
  Basis Set: (AUG-CC-PVTZ AUX)
    Blend: AUG-CC-PVTZ-JKFIT

    Orbital Energies [Eh]
    ---------------------

    Doubly Occupied:

       1A    -91.983320     2A    -20.524683     3A    -15.602446
       4A    -11.363907     5A    -11.296904     6A    -11.277628
       7A    -11.263351     8A    -11.252148     9A    -11.239487
      10A    -11.237898    11A     -8.983681    12A     -6.664638
      13A     -6.664172    14A     -6.663380    15A     -1.381687
      16A     -1.263551    17A     -1.159217    18A     -1.024753
      19A     -0.987889    20A     -0.983036    21A     -0.944176
      22A     -0.817044    23A     -0.763209    24A     -0.718611
      25A     -0.706549    26A     -0.687605    27A     -0.646313
      28A     -0.626337    29A     -0.610246    30A     -0.576588
      31A     -0.564821    32A     -0.559749    33A     -0.546850
      34A     -0.535046    35A     -0.514198    36A     -0.486618
      37A     -0.477203    38A     -0.425071    39A     -0.387125
      40A     -0.346158    41A     -0.320999

  @DF-RHF Final Energy:  -797.23409295273757

   => Energetics <=

    Nuclear Repulsion Energy =            606.3766953956140924
    One-Electron Energy =               -2297.0649862995992407
    Two-Electron Energy =                 893.4541979512474654
    Total Energy =                       -797.2340929527375692
  Basis Set: (AUG-CC-PVTZ AUX)
    Blend: AUG-CC-PVTZ-RI
    Molecular point group: c1

    Geometry (in Angstrom), charge = 0, multiplicity = 1:

       Center              X                  Y                   Z               Mass
    ------------   -----------------  -----------------  -----------------  -----------------
         S           -1.285045072849    -0.328338076656    -1.117431870548    31.972071174400
         O            1.443461927151    -1.644731076656     0.541545129452    15.994914619570
         N            1.000253927151     0.559938923344     0.130667129452    14.003074004430
         C           -0.383160072849     0.307712923344     0.223081129452    12.000000000000
         C            1.401383927151     1.850693923344    -0.428502870548    12.000000000000
         C            1.861014927151    -0.526044076656     0.250718129452    12.000000000000
         C           -1.199526072849     0.551483923344     1.305870129452    12.000000000000
         C           -2.553647072849     0.224334923344     1.049671129452    12.000000000000
         C            3.305932227151    -0.295015276656    -0.208855170548    12.000000000000
         C           -2.749482072849    -0.261378076656    -0.224622870548    12.000000000000
         H            0.687768927151     2.600675923344    -0.084760870548     1.007825032230
         H            1.403575927151     1.844520923344    -1.525819870548     1.007825032230
         H            2.392977927151     2.128824923344    -0.070455870548     1.007825032230
         H           -0.815772072849     0.938725923344     2.244103129452     1.007825032230
         H           -3.356467072849     0.332462923344     1.771362129452     1.007825032230
         H            3.714076927151     0.473598923344     0.767010129452     1.007825032230
         H            3.527270927151     0.156180923344    -0.964866870548     1.007825032230
         H            3.862454927151    -1.189295076656     0.152406129452     1.007825032230
         H           -3.675770072849    -0.595391076656    -0.675020870548     1.007825032230

  Basis Set: AUG-CC-PVTZ
    Blend: AUG-CC-PVTZ
  Basis Set: (AUG-CC-PVTZ AUX)
    Blend: AUG-CC-PVTZ-JKFIT
	 Reference Energy          =    -797.2340929527375692 [Eh]
	 Singles Energy            =      -0.0000000000000000 [Eh]
	 Same-Spin Energy          =      -0.4876184549232290 [Eh]
	 Opposite-Spin Energy      =      -1.5085785480498082 [Eh]
	 Correlation Energy        =      -1.9961970029730371 [Eh]
	 Total Energy              =    -799.2302899557106457 [Eh]

	 ================> DF-SCS-MP2 Energies <==================
	-----------------------------------------------------------
	 SCS Same-Spin Scale       =       0.3333333333333333 [-]
	 SCS Opposite-Spin Scale   =       1.2000000000000000 [-]
	 SCS Same-Spin Energy      =      -0.1625394849744097 [Eh]
	 SCS Opposite-Spin Energy  =      -1.8102942576597698 [Eh]
	 SCS Correlation Energy    =      -1.9728337426341795 [Eh]
	 SCS Total Energy          =    -799.2069266953717488 [Eh]
	-----------------------------------------------------------

  Dipole Moment: [D]
     X:     0.6108      Y:     3.4277      Z:    -0.7113     Total:     3.5537

*** Psi4 exiting successfully. Buy a developer a beer!
