                               Psi4 1.3.2 release

  ==> Input File <==

--------------------------------------------------------------------------
#psi4
#
memory 32 gb

molecule  {
0 1
  S       -1.3336960    -0.3724180    -1.1448160
  O        1.3948110    -1.6888110     0.5141610
  N        0.9516030     0.5158590     0.1032830
  C       -0.4318110     0.2636330     0.1956970
  C        1.3527330     1.8066140    -0.4558870
  C        1.8123640    -0.5701240     0.2233340
  C       -1.2481770     0.5074040     1.2784860
  C       -2.6022980     0.1802550     1.0222870
  C        3.2848510    -0.2882260     0.0069730
  C       -2.7981330    -0.3054580    -0.2520070
  H        0.6391180     2.5565960    -0.1121450
  H        1.3549250     1.8004410    -1.5532040
  H        2.3443270     2.0847450    -0.0978400
  H       -0.8963526     1.0810610     2.1516809
  H       -3.4051180     0.2883830     1.7439780
  H        3.6654260     0.4295190     0.7396260
  H        3.4786200     0.1121010    -0.9922510
  H        3.8138040    -1.2333750     0.1250220
  H       -3.7244210    -0.6394710    -0.7024050
units angstrom
no_reorient  #important for SAPT in psi4, default
symmetry c1  #important for SAPT in psi4, default
}

set PROPERTIES_ORIGIN ["COM"]
properties('MP2/aug-cc-pvtz', properties = ['dipole'])
--------------------------------------------------------------------------

    Molecular point group: c1
  Charge       = 0
  Multiplicity = 1
  Basis Set: AUG-CC-PVTZ
    Blend: AUG-CC-PVTZ
  Basis Set: (AUG-CC-PVTZ AUX)
    Blend: AUG-CC-PVTZ-JKFIT

    Orbital Energies [Eh]
    ---------------------

    Doubly Occupied:

       1A    -91.983010     2A    -20.522732     3A    -15.602374
       4A    -11.358084     5A    -11.296909     6A    -11.278456
       7A    -11.263030     8A    -11.243007     9A    -11.240047
      10A    -11.238853    11A     -8.983376    12A     -6.664331
      13A     -6.663857    14A     -6.663073    15A     -1.380135
      16A     -1.263192    17A     -1.159033    18A     -1.021696
      19A     -0.987096    20A     -0.982767    21A     -0.942414
      22A     -0.813061    23A     -0.762139    24A     -0.713034
      25A     -0.687117    26A     -0.680102    27A     -0.648198
      28A     -0.624875    29A     -0.591213    30A     -0.579715
      31A     -0.565787    32A     -0.563520    33A     -0.555353
      34A     -0.546483    35A     -0.514755    36A     -0.504115
      37A     -0.477714    38A     -0.427095    39A     -0.387093
      40A     -0.345633    41A     -0.320831

  @DF-RHF Final Energy:  -797.29534827350494

   => Energetics <=

    Nuclear Repulsion Energy =            606.3229235990866073
    One-Electron Energy =               -2297.1459348002158549
    Two-Electron Energy =                 893.5276629276243057
    Total Energy =                       -797.2953482735049420
  Basis Set: (AUG-CC-PVTZ AUX)
    Blend: AUG-CC-PVTZ-RI
    Molecular point group: c1

    Geometry (in Angstrom), charge = 0, multiplicity = 1:

       Center              X                  Y                   Z               Mass
    ------------   -----------------  -----------------  -----------------  -----------------
         S           -1.286971388738    -0.333487080821    -1.135833519467    31.972071174400
         O            1.441535611262    -1.649880080821     0.523143480533    15.994914619570
         N            0.998327611262     0.554789919179     0.112265480533    14.003074004430
         C           -0.385086388738     0.302563919179     0.204679480533    12.000000000000
         C            1.399457611262     1.845544919179    -0.446904519467    12.000000000000
         C            1.859088611262    -0.531193080821     0.232316480533    12.000000000000
         C           -1.201452388738     0.546334919179     1.287468480533    12.000000000000
         C           -2.555573388738     0.219185919179     1.031269480533    12.000000000000
         C            3.331575611262    -0.249295080821     0.015955480533    12.000000000000
         C           -2.751408388738    -0.266527080821    -0.243024519467    12.000000000000
         H            0.685842611262     2.595526919179    -0.103162519467     1.007825032230
         H            1.401649611262     1.839371919179    -1.544221519467     1.007825032230
         H            2.391051611262     2.123675919179    -0.088857519467     1.007825032230
         H           -0.849627988738     1.119991919179     2.160663380533     1.007825032230
         H           -3.358393388738     0.327313919179     1.752960480533     1.007825032230
         H            3.712150611262     0.468449919179     0.748608480533     1.007825032230
         H            3.525344611262     0.151031919179    -0.983268519467     1.007825032230
         H            3.860528611262    -1.194444080821     0.134004480533     1.007825032230
         H           -3.677696388738    -0.600540080821    -0.693422519467     1.007825032230

  Basis Set: AUG-CC-PVTZ
    Blend: AUG-CC-PVTZ
  Basis Set: (AUG-CC-PVTZ AUX)
    Blend: AUG-CC-PVTZ-JKFIT
	 Reference Energy          =    -797.2953482735049420 [Eh]
	 Singles Energy            =      -0.0000000000000000 [Eh]
	 Same-Spin Energy          =      -0.4868222058003386 [Eh]
	 Opposite-Spin Energy      =      -1.5060686265171683 [Eh]
	 Correlation Energy        =      -1.9928908323175070 [Eh]
	 Total Energy              =    -799.2882391058224130 [Eh]

	 ================> DF-SCS-MP2 Energies <==================
	-----------------------------------------------------------
	 SCS Same-Spin Scale       =       0.3333333333333333 [-]
	 SCS Opposite-Spin Scale   =       1.2000000000000000 [-]
	 SCS Same-Spin Energy      =      -0.1622740686001129 [Eh]
	 SCS Opposite-Spin Energy  =      -1.8072823518206018 [Eh]
	 SCS Correlation Energy    =      -1.9695564204207148 [Eh]
	 SCS Total Energy          =    -799.2649046939257005 [Eh]
	-----------------------------------------------------------

  Dipole Moment: [D]
     X:     0.6479      Y:     3.6151      Z:    -0.7297     Total:     3.7445

*** Psi4 exiting successfully. Buy a developer a beer!
