                               Psi4 1.3.2 release

  ==> Input File <==

--------------------------------------------------------------------------
#psi4
#
memory 32 gb

molecule  {
0 1
  S       -1.3336960    -0.3724180    -1.1448160
  O        1.3948110    -1.6888110     0.5141610
  N        0.9516030     0.5158590     0.1032830
  C       -0.4318110     0.2636330     0.1956970
  C        1.3527330     1.8066140    -0.4558870
  C        1.8123640    -0.5701240     0.2233340
  C       -1.2481770     0.5074040     1.2784860
  C       -2.6022980     0.1802550     1.0222870
  C        3.2848510    -0.2882260     0.0069730
  C       -2.7981330    -0.3054580    -0.2520070
  H        0.6391180     2.5565960    -0.1121450
  H        1.3549250     1.8004410    -1.5532040
  H        2.3443270     2.0847450    -0.0978400
  H       -0.8724054     0.9412497     2.2004595
  H       -3.4051180     0.2883830     1.7439780
  H        3.6654260     0.4295190     0.7396260
  H        3.4786200     0.1121010    -0.9922510
  H        3.8138040    -1.2333750     0.1250220
  H       -3.7244210    -0.6394710    -0.7024050
units angstrom
no_reorient  #important for SAPT in psi4, default
symmetry c1  #important for SAPT in psi4, default
}

set PROPERTIES_ORIGIN ["COM"]
properties('MP2/aug-cc-pvtz', properties = ['dipole'])
--------------------------------------------------------------------------

    Molecular point group: c1
  Charge       = 0
  Multiplicity = 1
  Basis Set: AUG-CC-PVTZ
    Blend: AUG-CC-PVTZ
  Basis Set: (AUG-CC-PVTZ AUX)
    Blend: AUG-CC-PVTZ-JKFIT

    Orbital Energies [Eh]
    ---------------------

    Doubly Occupied:

       1A    -91.982757     2A    -20.522850     3A    -15.602339
       4A    -11.358111     5A    -11.296511     6A    -11.278151
       7A    -11.262921     8A    -11.243006     9A    -11.239261
      10A    -11.237873    11A     -8.983128    12A     -6.664085
      13A     -6.663611    14A     -6.662826    15A     -1.380244
      16A     -1.263109    17A     -1.158883    18A     -1.021687
      19A     -0.987534    20A     -0.982583    21A     -0.942259
      22A     -0.813235    23A     -0.762506    24A     -0.714531
      25A     -0.687832    26A     -0.680240    27A     -0.648133
      28A     -0.624763    29A     -0.591164    30A     -0.579608
      31A     -0.565891    32A     -0.564200    33A     -0.555242
      34A     -0.546597    35A     -0.515228    36A     -0.504646
      37A     -0.478006    38A     -0.427223    39A     -0.387004
      40A     -0.345737    41A     -0.320676

  @DF-RHF Final Energy:  -797.29758999567071

   => Energetics <=

    Nuclear Repulsion Energy =            606.4082359621194200
    One-Electron Energy =               -2297.3192773931773445
    Two-Electron Energy =                 893.6134514353873328
    Total Energy =                       -797.2975899956707053
  Basis Set: (AUG-CC-PVTZ AUX)
    Blend: AUG-CC-PVTZ-RI
    Molecular point group: c1

    Geometry (in Angstrom), charge = 0, multiplicity = 1:

       Center              X                  Y                   Z               Mass
    ------------   -----------------  -----------------  -----------------  -----------------
         S           -1.287127055095    -0.332578251570    -1.136150599835    31.972071174400
         O            1.441379944905    -1.648971251570     0.522826400165    15.994914619570
         N            0.998171944905     0.555698748430     0.111948400165    14.003074004430
         C           -0.385242055095     0.303472748430     0.204362400165    12.000000000000
         C            1.399301944905     1.846453748430    -0.447221599835    12.000000000000
         C            1.858932944905    -0.530284251570     0.231999400165    12.000000000000
         C           -1.201608055095     0.547243748430     1.287151400165    12.000000000000
         C           -2.555729055095     0.220094748430     1.030952400165    12.000000000000
         C            3.331419944905    -0.248386251570     0.015638400165    12.000000000000
         C           -2.751564055095    -0.265618251570    -0.243341599835    12.000000000000
         H            0.685686944905     2.596435748430    -0.103479599835     1.007825032230
         H            1.401493944905     1.840280748430    -1.544538599835     1.007825032230
         H            2.390895944905     2.124584748430    -0.089174599835     1.007825032230
         H           -0.825836455095     0.981089448430     2.209124900165     1.007825032230
         H           -3.358549055095     0.328222748430     1.752643400165     1.007825032230
         H            3.711994944905     0.469358748430     0.748291400165     1.007825032230
         H            3.525188944905     0.151940748430    -0.983585599835     1.007825032230
         H            3.860372944905    -1.193535251570     0.133687400165     1.007825032230
         H           -3.677852055095    -0.599631251570    -0.693739599835     1.007825032230

  Basis Set: AUG-CC-PVTZ
    Blend: AUG-CC-PVTZ
  Basis Set: (AUG-CC-PVTZ AUX)
    Blend: AUG-CC-PVTZ-JKFIT
	 Reference Energy          =    -797.2975899956707053 [Eh]
	 Singles Energy            =      -0.0000000000000000 [Eh]
	 Same-Spin Energy          =      -0.4867032709715049 [Eh]
	 Opposite-Spin Energy      =      -1.5057680686976664 [Eh]
	 Correlation Energy        =      -1.9924713396691713 [Eh]
	 Total Energy              =    -799.2900613353398285 [Eh]

	 ================> DF-SCS-MP2 Energies <==================
	-----------------------------------------------------------
	 SCS Same-Spin Scale       =       0.3333333333333333 [-]
	 SCS Opposite-Spin Scale   =       1.2000000000000000 [-]
	 SCS Same-Spin Energy      =      -0.1622344236571683 [Eh]
	 SCS Opposite-Spin Energy  =      -1.8069216824371996 [Eh]
	 SCS Correlation Energy    =      -1.9691561060943679 [Eh]
	 SCS Total Energy          =    -799.2667461017650794 [Eh]
	-----------------------------------------------------------

  Dipole Moment: [D]
     X:     0.6742      Y:     3.5207      Z:    -0.6693     Total:     3.6466

*** Psi4 exiting successfully. Buy a developer a beer!
