                               Psi4 1.3.2 release

  ==> Input File <==

--------------------------------------------------------------------------
#psi4
#
memory 32 gb

molecule  {
0 1
  S       -1.3336960    -0.3724180    -1.1448160
  O        1.3948110    -1.6888110     0.5141610
  N        0.9516030     0.5158590     0.1032830
  C       -0.4318110     0.2636330     0.1956970
  C        1.3527330     1.8066140    -0.4558870
  C        1.8123640    -0.5701240     0.2233340
  C       -1.2481770     0.5074040     1.2784860
  C       -2.6022980     0.1802550     1.0222870
  C        3.2848510    -0.2882260     0.0069730
  C       -2.7981330    -0.3054580    -0.2520070
  H        0.6391180     2.5565960    -0.1121450
  H        1.3549250     1.8004410    -1.5532040
  H        2.3443270     2.0847450    -0.0978400
  H       -0.8644230     0.8946460     2.2167190
  H       -3.4051180     0.2883830     1.7439780
  H        3.6654260     0.4295190     0.7396260
  H        3.4786200     0.1121010    -0.9922510
  H        3.8138040    -1.2333750     0.1250220
  H       -3.7078817    -0.7322832    -0.6690533
units angstrom
no_reorient  #important for SAPT in psi4, default
symmetry c1  #important for SAPT in psi4, default
}

set PROPERTIES_ORIGIN ["COM"]
properties('MP2/aug-cc-pvtz', properties = ['dipole'])
--------------------------------------------------------------------------

    Molecular point group: c1
  Charge       = 0
  Multiplicity = 1
  Basis Set: AUG-CC-PVTZ
    Blend: AUG-CC-PVTZ
  Basis Set: (AUG-CC-PVTZ AUX)
    Blend: AUG-CC-PVTZ-JKFIT

    Orbital Energies [Eh]
    ---------------------

    Doubly Occupied:

       1A    -91.982719     2A    -20.522991     3A    -15.602449
       4A    -11.358263     5A    -11.296682     6A    -11.278092
       7A    -11.263186     8A    -11.243105     9A    -11.239387
      10A    -11.237812    11A     -8.983097    12A     -6.664053
      13A     -6.663575    14A     -6.662792    15A     -1.380391
      16A     -1.263212    17A     -1.158897    18A     -1.021760
      19A     -0.987512    20A     -0.982563    21A     -0.942186
      22A     -0.813194    23A     -0.761953    24A     -0.714515
      25A     -0.687791    26A     -0.680390    27A     -0.648066
      28A     -0.624607    29A     -0.591214    30A     -0.579589
      31A     -0.565703    32A     -0.564099    33A     -0.555252
      34A     -0.546528    35A     -0.514691    36A     -0.505094
      37A     -0.478019    38A     -0.427398    39A     -0.386898
      40A     -0.345773    41A     -0.320778

  @DF-RHF Final Energy:  -797.29716071871258

   => Energetics <=

    Nuclear Repulsion Energy =            606.4046896434892915
    One-Electron Energy =               -2297.3111487944261171
    Two-Electron Energy =                 893.6092984322242501
    Total Energy =                       -797.2971607187125755
  Basis Set: (AUG-CC-PVTZ AUX)
    Blend: AUG-CC-PVTZ-RI
    Molecular point group: c1

    Geometry (in Angstrom), charge = 0, multiplicity = 1:

       Center              X                  Y                   Z               Mass
    ------------   -----------------  -----------------  -----------------  -----------------
         S           -1.287286455932    -0.331671992577    -1.136473092436    31.972071174400
         O            1.441220544068    -1.648064992577     0.522503907564    15.994914619570
         N            0.998012544068     0.556605007423     0.111625907564    14.003074004430
         C           -0.385401455932     0.304379007423     0.204039907564    12.000000000000
         C            1.399142544068     1.847360007423    -0.447544092436    12.000000000000
         C            1.858773544068    -0.529377992577     0.231676907564    12.000000000000
         C           -1.201767455932     0.548150007423     1.286828907564    12.000000000000
         C           -2.555888455932     0.221001007423     1.030629907564    12.000000000000
         C            3.331260544068    -0.247479992577     0.015315907564    12.000000000000
         C           -2.751723455932    -0.264711992577    -0.243664092436    12.000000000000
         H            0.685527544068     2.597342007423    -0.103802092436     1.007825032230
         H            1.401334544068     1.841187007423    -1.544861092436     1.007825032230
         H            2.390736544068     2.125491007423    -0.089497092436     1.007825032230
         H           -0.818013455932     0.935392007423     2.225061907564     1.007825032230
         H           -3.358708455932     0.329129007423     1.752320907564     1.007825032230
         H            3.711835544068     0.470265007423     0.747968907564     1.007825032230
         H            3.525029544068     0.152847007423    -0.983908092436     1.007825032230
         H            3.860213544068    -1.192628992577     0.133364907564     1.007825032230
         H           -3.661472155932    -0.691537192577    -0.660710392436     1.007825032230

  Basis Set: AUG-CC-PVTZ
    Blend: AUG-CC-PVTZ
  Basis Set: (AUG-CC-PVTZ AUX)
    Blend: AUG-CC-PVTZ-JKFIT
	 Reference Energy          =    -797.2971607187125755 [Eh]
	 Singles Energy            =      -0.0000000000000000 [Eh]
	 Same-Spin Energy          =      -0.4867441193438371 [Eh]
	 Opposite-Spin Energy      =      -1.5058352349678663 [Eh]
	 Correlation Energy        =      -1.9925793543117034 [Eh]
	 Total Energy              =    -799.2897400730242907 [Eh]

	 ================> DF-SCS-MP2 Energies <==================
	-----------------------------------------------------------
	 SCS Same-Spin Scale       =       0.3333333333333333 [-]
	 SCS Opposite-Spin Scale   =       1.2000000000000000 [-]
	 SCS Same-Spin Energy      =      -0.1622480397812790 [Eh]
	 SCS Opposite-Spin Energy  =      -1.8070022819614395 [Eh]
	 SCS Correlation Energy    =      -1.9692503217427186 [Eh]
	 SCS Total Energy          =    -799.2664110404552957 [Eh]
	-----------------------------------------------------------

  Dipole Moment: [D]
     X:     0.7047      Y:     3.4142      Z:    -0.6243     Total:     3.5416

*** Psi4 exiting successfully. Buy a developer a beer!
