                               Psi4 1.3.2 release

  ==> Input File <==

--------------------------------------------------------------------------
#psi4
#
memory 32 gb

molecule  {
0 1
  S       -1.3336960    -0.3724180    -1.1448160
  O        1.3948110    -1.6888110     0.5141610
  N        0.9516030     0.5158590     0.1032830
  C       -0.4318110     0.2636330     0.1956970
  C        1.3527330     1.8066140    -0.4558870
  C        1.8123640    -0.5701240     0.2233340
  C       -1.2032005     0.2757420     1.3610077
  C       -2.6022980     0.1802550     1.0222870
  C        3.2848510    -0.2882260     0.0069730
  C       -2.7981330    -0.3054580    -0.2520070
  H        0.6391180     2.5565960    -0.1121450
  H        1.3549250     1.8004410    -1.5532040
  H        2.3443270     2.0847450    -0.0978400
  H       -0.8644230     0.8946460     2.2167190
  H       -3.4051180     0.2883830     1.7439780
  H        3.6654260     0.4295190     0.7396260
  H        3.4786200     0.1121010    -0.9922510
  H        3.8138040    -1.2333750     0.1250220
  H       -3.7244210    -0.6394710    -0.7024050
units angstrom
no_reorient  #important for SAPT in psi4, default
symmetry c1  #important for SAPT in psi4, default
}

set PROPERTIES_ORIGIN ["COM"]
properties('MP2/aug-cc-pvtz', properties = ['dipole'])
--------------------------------------------------------------------------

    Molecular point group: c1
  Charge       = 0
  Multiplicity = 1
  Basis Set: AUG-CC-PVTZ
    Blend: AUG-CC-PVTZ
  Basis Set: (AUG-CC-PVTZ AUX)
    Blend: AUG-CC-PVTZ-JKFIT

    Orbital Energies [Eh]
    ---------------------

    Doubly Occupied:

       1A    -91.983861     2A    -20.523004     3A    -15.603005
       4A    -11.358419     5A    -11.302121     6A    -11.279505
       7A    -11.262277     8A    -11.243499     9A    -11.243392
      10A    -11.241640    11A     -8.984278    12A     -6.665221
      13A     -6.664745    14A     -6.663973    15A     -1.380562
      16A     -1.263675    17A     -1.155947    18A     -1.021749
      19A     -0.984833    20A     -0.982634    21A     -0.940768
      22A     -0.813646    23A     -0.759605    24A     -0.710389
      25A     -0.685155    26A     -0.680388    27A     -0.648752
      28A     -0.622796    29A     -0.591636    30A     -0.580204
      31A     -0.565944    32A     -0.562193    33A     -0.550612
      34A     -0.543523    35A     -0.512344    36A     -0.504192
      37A     -0.475640    38A     -0.427364    39A     -0.387096
      40A     -0.344625    41A     -0.319802

  @DF-RHF Final Energy:  -797.27924945357051

   => Energetics <=

    Nuclear Repulsion Energy =            605.9774532422725315
    One-Electron Energy =               -2296.4433762742905856
    Two-Electron Energy =                 893.1866735784475395
    Total Energy =                       -797.2792494535705146
  Basis Set: (AUG-CC-PVTZ AUX)
    Blend: AUG-CC-PVTZ-RI
    Molecular point group: c1

    Geometry (in Angstrom), charge = 0, multiplicity = 1:

       Center              X                  Y                   Z               Mass
    ------------   -----------------  -----------------  -----------------  -----------------
         S           -1.290660086240    -0.314344869664    -1.142643401574    31.972071174400
         O            1.437846913760    -1.630737869664     0.516333598426    15.994914619570
         N            0.994638913760     0.573932130336     0.105455598426    14.003074004430
         C           -0.388775086240     0.321706130336     0.197869598426    12.000000000000
         C            1.395768913760     1.864687130336    -0.453714401574    12.000000000000
         C            1.855399913760    -0.512050869664     0.225506598426    12.000000000000
         C           -1.160164586240     0.333815130336     1.363180298426    12.000000000000
         C           -2.559262086240     0.238328130336     1.024459598426    12.000000000000
         C            3.327886913760    -0.230152869664     0.009145598426    12.000000000000
         C           -2.755097086240    -0.247384869664    -0.249834401574    12.000000000000
         H            0.682153913760     2.614669130336    -0.109972401574     1.007825032230
         H            1.397960913760     1.858514130336    -1.551031401574     1.007825032230
         H            2.387362913760     2.142818130336    -0.095667401574     1.007825032230
         H           -0.821387086240     0.952719130336     2.218891598426     1.007825032230
         H           -3.362082086240     0.346456130336     1.746150598426     1.007825032230
         H            3.708461913760     0.487592130336     0.741798598426     1.007825032230
         H            3.521655913760     0.170174130336    -0.990078401574     1.007825032230
         H            3.856839913760    -1.175301869664     0.127194598426     1.007825032230
         H           -3.681385086240    -0.581397869664    -0.700232401574     1.007825032230

  Basis Set: AUG-CC-PVTZ
    Blend: AUG-CC-PVTZ
  Basis Set: (AUG-CC-PVTZ AUX)
    Blend: AUG-CC-PVTZ-JKFIT
	 Reference Energy          =    -797.2792494535705146 [Eh]
	 Singles Energy            =      -0.0000000000000000 [Eh]
	 Same-Spin Energy          =      -0.4877640470561980 [Eh]
	 Opposite-Spin Energy      =      -1.5086290674629863 [Eh]
	 Correlation Energy        =      -1.9963931145191842 [Eh]
	 Total Energy              =    -799.2756425680896655 [Eh]

	 ================> DF-SCS-MP2 Energies <==================
	-----------------------------------------------------------
	 SCS Same-Spin Scale       =       0.3333333333333333 [-]
	 SCS Opposite-Spin Scale   =       1.2000000000000000 [-]
	 SCS Same-Spin Energy      =      -0.1625880156853993 [Eh]
	 SCS Opposite-Spin Energy  =      -1.8103548809555834 [Eh]
	 SCS Correlation Energy    =      -1.9729428966409828 [Eh]
	 SCS Total Energy          =    -799.2521923502115442 [Eh]
	-----------------------------------------------------------

  Dipole Moment: [D]
     X:     0.6693      Y:     3.5718      Z:    -0.8019     Total:     3.7214

*** Psi4 exiting successfully. Buy a developer a beer!
