                               Psi4 1.3.2 release

  ==> Input File <==

--------------------------------------------------------------------------
#psi4
#
memory 32 gb

molecule  {
0 1
  S       -1.3336960    -0.3724180    -1.1448160
  O        1.3948110    -1.6888110     0.5141610
  N        0.9516030     0.5158590     0.1032830
  C       -0.4318110     0.2636330     0.1956970
  C        1.3527330     1.8066140    -0.4558870
  C        1.8123640    -0.5701240     0.2233340
  C       -1.2391817     0.4610716     1.2949903
  C       -2.6022980     0.1802550     1.0222870
  C        3.2848510    -0.2882260     0.0069730
  C       -2.7981330    -0.3054580    -0.2520070
  H        0.6391180     2.5565960    -0.1121450
  H        1.3549250     1.8004410    -1.5532040
  H        2.3443270     2.0847450    -0.0978400
  H       -0.8644230     0.8946460     2.2167190
  H       -3.4051180     0.2883830     1.7439780
  H        3.6654260     0.4295190     0.7396260
  H        3.4786200     0.1121010    -0.9922510
  H        3.8138040    -1.2333750     0.1250220
  H       -3.7244210    -0.6394710    -0.7024050
units angstrom
no_reorient  #important for SAPT in psi4, default
symmetry c1  #important for SAPT in psi4, default
}

set PROPERTIES_ORIGIN ["COM"]
properties('MP2/aug-cc-pvtz', properties = ['dipole'])
--------------------------------------------------------------------------

    Molecular point group: c1
  Charge       = 0
  Multiplicity = 1
  Basis Set: AUG-CC-PVTZ
    Blend: AUG-CC-PVTZ
  Basis Set: (AUG-CC-PVTZ AUX)
    Blend: AUG-CC-PVTZ-JKFIT

    Orbital Energies [Eh]
    ---------------------

    Doubly Occupied:

       1A    -91.982710     2A    -20.522781     3A    -15.602257
       4A    -11.358016     5A    -11.296363     6A    -11.278175
       7A    -11.262950     8A    -11.242977     9A    -11.239353
      10A    -11.238002    11A     -8.983085    12A     -6.664042
      13A     -6.663567    14A     -6.662782    15A     -1.380182
      16A     -1.263001    17A     -1.158667    18A     -1.021616
      19A     -0.987399    20A     -0.982625    21A     -0.941944
      22A     -0.813236    23A     -0.762453    24A     -0.714538
      25A     -0.687699    26A     -0.680232    27A     -0.648099
      28A     -0.624572    29A     -0.591137    30A     -0.579559
      31A     -0.565743    32A     -0.564288    33A     -0.554907
      34A     -0.546429    35A     -0.515004    36A     -0.504671
      37A     -0.477893    38A     -0.427155    39A     -0.386742
      40A     -0.345537    41A     -0.320855

  @DF-RHF Final Energy:  -797.29704649858229

   => Energetics <=

    Nuclear Repulsion Energy =            606.4447605431257671
    One-Electron Energy =               -2297.3971221204756148
    Two-Electron Energy =                 893.6553150787675577
    Total Energy =                       -797.2970464985822900
  Basis Set: (AUG-CC-PVTZ AUX)
    Blend: AUG-CC-PVTZ-RI
    Molecular point group: c1

    Geometry (in Angstrom), charge = 0, multiplicity = 1:

       Center              X                  Y                   Z               Mass
    ------------   -----------------  -----------------  -----------------  -----------------
         S           -1.287875172353    -0.328689221068    -1.137533711679    31.972071174400
         O            1.440631827647    -1.645082221068     0.521443288321    15.994914619570
         N            0.997423827647     0.559587778932     0.110565288321    14.003074004430
         C           -0.385990172353     0.307361778932     0.202979288321    12.000000000000
         C            1.398553827647     1.850342778932    -0.448604711679    12.000000000000
         C            1.858184827647    -0.526395221068     0.230616288321    12.000000000000
         C           -1.193360872353     0.504800378932     1.302272588321    12.000000000000
         C           -2.556477172353     0.223983778932     1.029569288321    12.000000000000
         C            3.330671827647    -0.244497221068     0.014255288321    12.000000000000
         C           -2.752312172353    -0.261729221068    -0.244724711679    12.000000000000
         H            0.684938827647     2.600324778932    -0.104862711679     1.007825032230
         H            1.400745827647     1.844169778932    -1.545921711679     1.007825032230
         H            2.390147827647     2.128473778932    -0.090557711679     1.007825032230
         H           -0.818602172353     0.938374778932     2.224001288321     1.007825032230
         H           -3.359297172353     0.332111778932     1.751260288321     1.007825032230
         H            3.711246827647     0.473247778932     0.746908288321     1.007825032230
         H            3.524440827647     0.155829778932    -0.984968711679     1.007825032230
         H            3.859624827647    -1.189646221068     0.132304288321     1.007825032230
         H           -3.678600172353    -0.595742221068    -0.695122711679     1.007825032230

  Basis Set: AUG-CC-PVTZ
    Blend: AUG-CC-PVTZ
  Basis Set: (AUG-CC-PVTZ AUX)
    Blend: AUG-CC-PVTZ-JKFIT
	 Reference Energy          =    -797.2970464985822900 [Eh]
	 Singles Energy            =      -0.0000000000000000 [Eh]
	 Same-Spin Energy          =      -0.4867238656556608 [Eh]
	 Opposite-Spin Energy      =      -1.5058422154490716 [Eh]
	 Correlation Energy        =      -1.9925660811047323 [Eh]
	 Total Energy              =    -799.2896125796870592 [Eh]

	 ================> DF-SCS-MP2 Energies <==================
	-----------------------------------------------------------
	 SCS Same-Spin Scale       =       0.3333333333333333 [-]
	 SCS Opposite-Spin Scale   =       1.2000000000000000 [-]
	 SCS Same-Spin Energy      =      -0.1622412885518869 [Eh]
	 SCS Opposite-Spin Energy  =      -1.8070106585388859 [Eh]
	 SCS Correlation Energy    =      -1.9692519470907728 [Eh]
	 SCS Total Energy          =    -799.2662984456731010 [Eh]
	-----------------------------------------------------------

  Dipole Moment: [D]
     X:     0.6773      Y:     3.5102      Z:    -0.6649     Total:     3.6363

*** Psi4 exiting successfully. Buy a developer a beer!
