                               Psi4 1.3.2 release

  ==> Input File <==

--------------------------------------------------------------------------
#psi4
#
memory 32 gb

molecule  {
0 1
  S       -1.3336960    -0.3724180    -1.1448160
  O        1.3948110    -1.6888110     0.5141610
  N        0.9516030     0.5158590     0.1032830
  C       -0.4318110     0.2636330     0.1956970
  C        1.3527330     1.8066140    -0.4558870
  C        1.8123640    -0.5701240     0.2233340
  C       -1.2481770     0.5074040     1.2784860
  C       -2.6022980     0.1802550     1.0222870
  C        3.2848510    -0.2882260     0.0069730
  C       -2.7981330    -0.3054580    -0.2520070
  H        0.6391180     2.5565960    -0.1121450
  H        1.3549250     1.8004410    -1.5532040
  H        2.3443270     2.0847450    -0.0978400
  H       -0.9123174     1.1742685     2.1191619
  H       -3.4051180     0.2883830     1.7439780
  H        3.6654260     0.4295190     0.7396260
  H        3.4786200     0.1121010    -0.9922510
  H        3.8138040    -1.2333750     0.1250220
  H       -3.7244210    -0.6394710    -0.7024050
units angstrom
no_reorient  #important for SAPT in psi4, default
symmetry c1  #important for SAPT in psi4, default
}

set PROPERTIES_ORIGIN ["COM"]
properties('MP2/aug-cc-pvtz', properties = ['dipole'])
--------------------------------------------------------------------------

    Molecular point group: c1
  Charge       = 0
  Multiplicity = 1
  Basis Set: AUG-CC-PVTZ
    Blend: AUG-CC-PVTZ
  Basis Set: (AUG-CC-PVTZ AUX)
    Blend: AUG-CC-PVTZ-JKFIT

    Orbital Energies [Eh]
    ---------------------

    Doubly Occupied:

       1A    -91.983376     2A    -20.522731     3A    -15.602484
       4A    -11.358152     5A    -11.297571     6A    -11.278726
       7A    -11.263165     8A    -11.243053     9A    -11.241790
      10A    -11.239284    11A     -8.983737    12A     -6.664689
      13A     -6.664216    14A     -6.663433    15A     -1.380148
      16A     -1.263354    17A     -1.159240    18A     -1.021767
      19A     -0.986553    20A     -0.982971    21A     -0.942557
      22A     -0.812975    23A     -0.761750    24A     -0.711016
      25A     -0.686157    26A     -0.680010    27A     -0.648245
      28A     -0.625047    29A     -0.591296    30A     -0.579855
      31A     -0.566075    32A     -0.562314    33A     -0.555448
      34A     -0.545932    35A     -0.514061    36A     -0.503694
      37A     -0.477335    38A     -0.427086    39A     -0.387237
      40A     -0.345532    41A     -0.321033

  @DF-RHF Final Energy:  -797.29198291119906

   => Energetics <=

    Nuclear Repulsion Energy =            606.2243020972998693
    One-Electron Energy =               -2296.9423778586528897
    Two-Electron Energy =                 893.4260928501539638
    Total Energy =                       -797.2919829111990566
  Basis Set: (AUG-CC-PVTZ AUX)
    Blend: AUG-CC-PVTZ-RI
    Molecular point group: c1

    Geometry (in Angstrom), charge = 0, multiplicity = 1:

       Center              X                  Y                   Z               Mass
    ------------   -----------------  -----------------  -----------------  -----------------
         S           -1.286867611166    -0.334092966771    -1.135622132988    31.972071174400
         O            1.441639388834    -1.650485966771     0.523354867012    15.994914619570
         N            0.998431388834     0.554184033229     0.112476867012    14.003074004430
         C           -0.384982611166     0.301958033229     0.204890867012    12.000000000000
         C            1.399561388834     1.844939033229    -0.446693132988    12.000000000000
         C            1.859192388834    -0.531798966771     0.232527867012    12.000000000000
         C           -1.201348611166     0.545729033229     1.287679867012    12.000000000000
         C           -2.555469611166     0.218580033229     1.031480867012    12.000000000000
         C            3.331679388834    -0.249900966771     0.016166867012    12.000000000000
         C           -2.751304611166    -0.267132966771    -0.242813132988    12.000000000000
         H            0.685946388834     2.594921033229    -0.102951132988     1.007825032230
         H            1.401753388834     1.838766033229    -1.544010132988     1.007825032230
         H            2.391155388834     2.123070033229    -0.088646132988     1.007825032230
         H           -0.865489011166     1.212593533229     2.128355767012     1.007825032230
         H           -3.358289611166     0.326708033229     1.753171867012     1.007825032230
         H            3.712254388834     0.467844033229     0.748819867012     1.007825032230
         H            3.525448388834     0.150426033229    -0.983057132988     1.007825032230
         H            3.860632388834    -1.195049966771     0.134215867012     1.007825032230
         H           -3.677592611166    -0.601145966771    -0.693211132988     1.007825032230

  Basis Set: AUG-CC-PVTZ
    Blend: AUG-CC-PVTZ
  Basis Set: (AUG-CC-PVTZ AUX)
    Blend: AUG-CC-PVTZ-JKFIT
	 Reference Energy          =    -797.2919829111990566 [Eh]
	 Singles Energy            =      -0.0000000000000000 [Eh]
	 Same-Spin Energy          =      -0.4869850049137200 [Eh]
	 Opposite-Spin Energy      =      -1.5064850400613403 [Eh]
	 Correlation Energy        =      -1.9934700449750604 [Eh]
	 Total Energy              =    -799.2854529561741401 [Eh]

	 ================> DF-SCS-MP2 Energies <==================
	-----------------------------------------------------------
	 SCS Same-Spin Scale       =       0.3333333333333333 [-]
	 SCS Opposite-Spin Scale   =       1.2000000000000000 [-]
	 SCS Same-Spin Energy      =      -0.1623283349712400 [Eh]
	 SCS Opposite-Spin Energy  =      -1.8077820480736082 [Eh]
	 SCS Correlation Energy    =      -1.9701103830448483 [Eh]
	 SCS Total Energy          =    -799.2620932942438685 [Eh]
	-----------------------------------------------------------

  Dipole Moment: [D]
     X:     0.6258      Y:     3.6683      Z:    -0.7859     Total:     3.8033

*** Psi4 exiting successfully. Buy a developer a beer!
