                               Psi4 1.3.2 release

  ==> Input File <==

--------------------------------------------------------------------------
#psi4
#
memory 32 gb

molecule  {
0 1
  S       -1.3336960    -0.3724180    -1.1448160
  O        1.3948110    -1.6888110     0.5141610
  N        0.9516030     0.5158590     0.1032830
  C       -0.4318110     0.2636330     0.1956970
  C        1.3527330     1.8066140    -0.4558870
  C        1.8123640    -0.5701240     0.2233340
  C       -1.1942052     0.2294096     1.3775120
  C       -2.6022980     0.1802550     1.0222870
  C        3.2848510    -0.2882260     0.0069730
  C       -2.7981330    -0.3054580    -0.2520070
  H        0.6391180     2.5565960    -0.1121450
  H        1.3549250     1.8004410    -1.5532040
  H        2.3443270     2.0847450    -0.0978400
  H       -0.8644230     0.8946460     2.2167190
  H       -3.4051180     0.2883830     1.7439780
  H        3.6654260     0.4295190     0.7396260
  H        3.4786200     0.1121010    -0.9922510
  H        3.8138040    -1.2333750     0.1250220
  H       -3.7244210    -0.6394710    -0.7024050
units angstrom
no_reorient  #important for SAPT in psi4, default
symmetry c1  #important for SAPT in psi4, default
}

set PROPERTIES_ORIGIN ["COM"]
properties('MP2/aug-cc-pvtz', properties = ['dipole'])
--------------------------------------------------------------------------

    Molecular point group: c1
  Charge       = 0
  Multiplicity = 1
  Basis Set: AUG-CC-PVTZ
    Blend: AUG-CC-PVTZ
  Basis Set: (AUG-CC-PVTZ AUX)
    Blend: AUG-CC-PVTZ-JKFIT

    Orbital Energies [Eh]
    ---------------------

    Doubly Occupied:

       1A    -91.984515     2A    -20.523237     3A    -15.603480
       4A    -11.358748     5A    -11.305093     6A    -11.280085
       7A    -11.261952     8A    -11.245585     9A    -11.243641
      10A    -11.242832    11A     -8.984947    12A     -6.665883
      13A     -6.665405    14A     -6.664641    15A     -1.380868
      16A     -1.264140    17A     -1.154861    18A     -1.021917
      19A     -0.984311    20A     -0.981980    21A     -0.940441
      22A     -0.813933    23A     -0.758382    24A     -0.708827
      25A     -0.684121    26A     -0.680313    27A     -0.649095
      28A     -0.622194    29A     -0.591920    30A     -0.580573
      31A     -0.566194    32A     -0.561547    33A     -0.548954
      34A     -0.541584    35A     -0.511317    36A     -0.504058
      37A     -0.474478    38A     -0.427593    39A     -0.387502
      40A     -0.344445    41A     -0.319168

  @DF-RHF Final Energy:  -797.27089363136440

   => Energetics <=

    Nuclear Repulsion Energy =            605.7256150742701948
    One-Electron Energy =               -2295.9234967157676692
    Two-Electron Energy =                 892.9269880101331864
    Total Energy =                       -797.2708936313644017
  Basis Set: (AUG-CC-PVTZ AUX)
    Blend: AUG-CC-PVTZ-RI
    Molecular point group: c1

    Geometry (in Angstrom), charge = 0, multiplicity = 1:

       Center              X                  Y                   Z               Mass
    ------------   -----------------  -----------------  -----------------  -----------------
         S           -1.291356314712    -0.310758781813    -1.143920820178    31.972071174400
         O            1.437150685288    -1.627151781813     0.515056179822    15.994914619570
         N            0.993942685288     0.577518218187     0.104178179822    14.003074004430
         C           -0.389471314712     0.325292218187     0.196592179822    12.000000000000
         C            1.395072685288     1.868273218187    -0.454991820178    12.000000000000
         C            1.854703685288    -0.508464781813     0.224229179822    12.000000000000
         C           -1.151865514712     0.291068818187     1.378407179822    12.000000000000
         C           -2.559958314712     0.241914218187     1.023182179822    12.000000000000
         C            3.327190685288    -0.226566781813     0.007868179822    12.000000000000
         C           -2.755793314712    -0.243798781813    -0.251111820178    12.000000000000
         H            0.681457685288     2.618255218187    -0.111249820178     1.007825032230
         H            1.397264685288     1.862100218187    -1.552308820178     1.007825032230
         H            2.386666685288     2.146404218187    -0.096944820178     1.007825032230
         H           -0.822083314712     0.956305218187     2.217614179822     1.007825032230
         H           -3.362778314712     0.350042218187     1.744873179822     1.007825032230
         H            3.707765685288     0.491178218187     0.740521179822     1.007825032230
         H            3.520959685288     0.173760218187    -0.991355820178     1.007825032230
         H            3.856143685288    -1.171715781813     0.125917179822     1.007825032230
         H           -3.682081314712    -0.577811781813    -0.701509820178     1.007825032230

  Basis Set: AUG-CC-PVTZ
    Blend: AUG-CC-PVTZ
  Basis Set: (AUG-CC-PVTZ AUX)
    Blend: AUG-CC-PVTZ-JKFIT
	 Reference Energy          =    -797.2708936313644017 [Eh]
	 Singles Energy            =      -0.0000000000000000 [Eh]
	 Same-Spin Energy          =      -0.4882472534522269 [Eh]
	 Opposite-Spin Energy      =      -1.5099521830119014 [Eh]
	 Correlation Energy        =      -1.9981994364641282 [Eh]
	 Total Energy              =    -799.2690930678285213 [Eh]

	 ================> DF-SCS-MP2 Energies <==================
	-----------------------------------------------------------
	 SCS Same-Spin Scale       =       0.3333333333333333 [-]
	 SCS Opposite-Spin Scale   =       1.2000000000000000 [-]
	 SCS Same-Spin Energy      =      -0.1627490844840756 [Eh]
	 SCS Opposite-Spin Energy  =      -1.8119426196142816 [Eh]
	 SCS Correlation Energy    =      -1.9746917040983571 [Eh]
	 SCS Total Energy          =    -799.2455853354628061 [Eh]
	-----------------------------------------------------------

  Dipole Moment: [D]
     X:     0.6674      Y:     3.5791      Z:    -0.8599     Total:     3.7410

*** Psi4 exiting successfully. Buy a developer a beer!
