                               Psi4 1.3.2 release

  ==> Input File <==

--------------------------------------------------------------------------
#psi4
#
memory 32 gb

molecule  {
0 1
  O        1.6642950     0.7201020    -0.5160700
  O        1.0775810    -1.0797050     0.7319740
  N       -1.3988490    -1.0732660    -0.4837110
  C       -0.6185139     0.0001886    -0.6558538
  C       -1.1893050     1.2162270     0.5788640
  C        0.7664460    -0.1647250    -0.0115660
  H       -0.6171290     0.6221710    -1.4152790
  H       -0.5840790     2.1275670     0.5721320
  H       -2.2164450     1.4834670     0.3126690
  H       -1.1896280     0.7983240     1.5903720
  H       -2.3959300    -0.8708340    -0.5385770
  H       -1.2389410    -1.5925540     0.3789210
  H        2.5336290     0.4505910    -0.1523780
units angstrom
no_reorient  #important for SAPT in psi4, default
symmetry c1  #important for SAPT in psi4, default
}

set PROPERTIES_ORIGIN ["COM"]
properties('MP2/aug-cc-pvtz', properties = ['dipole'])
--------------------------------------------------------------------------

    Molecular point group: c1
  Charge       = 0
  Multiplicity = 1
  Basis Set: AUG-CC-PVTZ
    Blend: AUG-CC-PVTZ
  Basis Set: (AUG-CC-PVTZ AUX)
    Blend: AUG-CC-PVTZ-JKFIT

    Orbital Energies [Eh]
    ---------------------

    Doubly Occupied:

       1A    -20.618835     2A    -20.551195     3A    -15.555267
       4A    -11.394509     5A    -11.291980     6A    -11.233571
       7A     -1.462246     8A     -1.359528     9A     -1.234423
      10A     -0.992525    11A     -0.905426    12A     -0.811105
      13A     -0.741345    14A     -0.708415    15A     -0.659458
      16A     -0.638214    17A     -0.627496    18A     -0.580919
      19A     -0.564486    20A     -0.544132    21A     -0.521986
      22A     -0.482532    23A     -0.455844    24A     -0.352507

  @DF-RHF Final Energy:  -321.93786971995951

   => Energetics <=

    Nuclear Repulsion Energy =            248.3044781563726531
    One-Electron Energy =                -931.9088074886640243
    Two-Electron Energy =                 361.6664596123318915
    Total Energy =                       -321.9378697199595081
  Basis Set: (AUG-CC-PVTZ AUX)
    Blend: AUG-CC-PVTZ-RI
    Molecular point group: c1

    Geometry (in Angstrom), charge = 0, multiplicity = 1:

       Center              X                  Y                   Z               Mass
    ------------   -----------------  -----------------  -----------------  -----------------
         O            1.596710764494     0.777579092263    -0.475316186790    15.994914619570
         O            1.009996764494    -1.022227907737     0.772727813210    15.994914619570
         N           -1.466433235506    -1.015788907737    -0.442957186790    14.003074004430
         C           -0.686098135506     0.057665692263    -0.615099986790    12.000000000000
         C           -1.256889235506     1.273704092263     0.619617813210    12.000000000000
         C            0.698861764494    -0.107247907737     0.029187813210    12.000000000000
         H           -0.684713235506     0.679648092263    -1.374525186790     1.007825032230
         H           -0.651663235506     2.185044092263     0.612885813210     1.007825032230
         H           -2.284029235506     1.540944092263     0.353422813210     1.007825032230
         H           -1.257212235506     0.855801092263     1.631125813210     1.007825032230
         H           -2.463514235506    -0.813356907737    -0.497823186790     1.007825032230
         H           -1.306525235506    -1.535076907737     0.419674813210     1.007825032230
         H            2.466044764494     0.508068092263    -0.111624186790     1.007825032230

  Basis Set: AUG-CC-PVTZ
    Blend: AUG-CC-PVTZ
  Basis Set: (AUG-CC-PVTZ AUX)
    Blend: AUG-CC-PVTZ-JKFIT
	 Reference Energy          =    -321.9378697199595081 [Eh]
	 Singles Energy            =      -0.0000000000000000 [Eh]
	 Same-Spin Energy          =      -0.3189702014665357 [Eh]
	 Opposite-Spin Energy      =      -1.0026436029802397 [Eh]
	 Correlation Energy        =      -1.3216138044467753 [Eh]
	 Total Energy              =    -323.2594835244062779 [Eh]

	 ================> DF-SCS-MP2 Energies <==================
	-----------------------------------------------------------
	 SCS Same-Spin Scale       =       0.3333333333333333 [-]
	 SCS Opposite-Spin Scale   =       1.2000000000000000 [-]
	 SCS Same-Spin Energy      =      -0.1063234004888452 [Eh]
	 SCS Opposite-Spin Energy  =      -1.2031723235762877 [Eh]
	 SCS Correlation Energy    =      -1.3094957240651328 [Eh]
	 SCS Total Energy          =    -323.2473654440246378 [Eh]
	-----------------------------------------------------------

  Dipole Moment: [D]
     X:    -0.9821      Y:     1.4935      Z:    -0.1809     Total:     1.7966

*** Psi4 exiting successfully. Buy a developer a beer!
