                               Psi4 1.3.2 release

  ==> Input File <==

--------------------------------------------------------------------------
#psi4
#
memory 32 gb

molecule  {
0 1
  O        1.6642950     0.7201020    -0.5160700
  O        1.0775810    -1.0797050     0.7319740
  N       -1.3988490    -1.0732660    -0.4837110
  C       -0.6236890     0.0296555    -0.6157923
  C       -1.1893050     1.2162270     0.5788640
  C        0.7664460    -0.1647250    -0.0115660
  H       -0.6171290     0.6221710    -1.4152790
  H       -0.5840790     2.1275670     0.5721320
  H       -2.2164450     1.4834670     0.3126690
  H       -1.1896280     0.7983240     1.5903720
  H       -2.3959300    -0.8708340    -0.5385770
  H       -1.2389410    -1.5925540     0.3789210
  H        2.5336290     0.4505910    -0.1523780
units angstrom
no_reorient  #important for SAPT in psi4, default
symmetry c1  #important for SAPT in psi4, default
}

set PROPERTIES_ORIGIN ["COM"]
properties('MP2/aug-cc-pvtz', properties = ['dipole'])
--------------------------------------------------------------------------

    Molecular point group: c1
  Charge       = 0
  Multiplicity = 1
  Basis Set: AUG-CC-PVTZ
    Blend: AUG-CC-PVTZ
  Basis Set: (AUG-CC-PVTZ AUX)
    Blend: AUG-CC-PVTZ-JKFIT

    Orbital Energies [Eh]
    ---------------------

    Doubly Occupied:

       1A    -20.619398     2A    -20.552003     3A    -15.553293
       4A    -11.393411     5A    -11.288778     6A    -11.235335
       7A     -1.462826     8A     -1.360011     9A     -1.228180
      10A     -0.996311    11A     -0.907167    12A     -0.808083
      13A     -0.738543    14A     -0.707978    15A     -0.650779
      16A     -0.637927    17A     -0.626656    18A     -0.582032
      19A     -0.566627    20A     -0.544068    21A     -0.524380
      22A     -0.482881    23A     -0.456265    24A     -0.363026

  @DF-RHF Final Energy:  -321.95404685070048

   => Energetics <=

    Nuclear Repulsion Energy =            248.5267589142892746
    One-Electron Energy =                -932.3896975135132834
    Two-Electron Energy =                 361.9088917485235015
    Total Energy =                       -321.9540468507004789
  Basis Set: (AUG-CC-PVTZ AUX)
    Blend: AUG-CC-PVTZ-RI
    Molecular point group: c1

    Geometry (in Angstrom), charge = 0, multiplicity = 1:

       Center              X                  Y                   Z               Mass
    ------------   -----------------  -----------------  -----------------  -----------------
         O            1.597408157183     0.773608154378    -0.480714845219    15.994914619570
         O            1.010694157183    -1.026198845622     0.767329154781    15.994914619570
         N           -1.465735842817    -1.019759845622    -0.448355845219    14.003074004430
         C           -0.690575842817     0.083161654378    -0.580437145219    12.000000000000
         C           -1.256191842817     1.269733154378     0.614219154781    12.000000000000
         C            0.699559157183    -0.111218845622     0.023789154781    12.000000000000
         H           -0.684015842817     0.675677154378    -1.379923845219     1.007825032230
         H           -0.650965842817     2.181073154378     0.607487154781     1.007825032230
         H           -2.283331842817     1.536973154378     0.348024154781     1.007825032230
         H           -1.256514842817     0.851830154378     1.625727154781     1.007825032230
         H           -2.462816842817    -0.817327845622    -0.503221845219     1.007825032230
         H           -1.305827842817    -1.539047845622     0.414276154781     1.007825032230
         H            2.466742157183     0.504097154378    -0.117022845219     1.007825032230

  Basis Set: AUG-CC-PVTZ
    Blend: AUG-CC-PVTZ
  Basis Set: (AUG-CC-PVTZ AUX)
    Blend: AUG-CC-PVTZ-JKFIT
	 Reference Energy          =    -321.9540468507004789 [Eh]
	 Singles Energy            =      -0.0000000000000000 [Eh]
	 Same-Spin Energy          =      -0.3182609030465039 [Eh]
	 Opposite-Spin Energy      =      -1.0014269200219417 [Eh]
	 Correlation Energy        =      -1.3196878230684455 [Eh]
	 Total Energy              =    -323.2737346737688995 [Eh]

	 ================> DF-SCS-MP2 Energies <==================
	-----------------------------------------------------------
	 SCS Same-Spin Scale       =       0.3333333333333333 [-]
	 SCS Opposite-Spin Scale   =       1.2000000000000000 [-]
	 SCS Same-Spin Energy      =      -0.1060869676821680 [Eh]
	 SCS Opposite-Spin Energy  =      -1.2017123040263300 [Eh]
	 SCS Correlation Energy    =      -1.3077992717084981 [Eh]
	 SCS Total Energy          =    -323.2618461224089970 [Eh]
	-----------------------------------------------------------

  Dipole Moment: [D]
     X:    -0.9278      Y:     1.6147      Z:    -0.0902     Total:     1.8645

*** Psi4 exiting successfully. Buy a developer a beer!
