                               Psi4 1.3.2 release

  ==> Input File <==

--------------------------------------------------------------------------
#psi4
#
memory 32 gb

molecule  {
0 1
  O        1.6642950     0.7201020    -0.5160700
  O        1.0775810    -1.0797050     0.7319740
  N       -1.3988490    -1.0732660    -0.4837110
  C       -0.6392140     0.1180562    -0.4956079
  C       -1.1893050     1.2162270     0.5788640
  C        0.7664460    -0.1647250    -0.0115660
  H       -0.6171290     0.6221710    -1.4152790
  H       -0.5840790     2.1275670     0.5721320
  H       -2.2164450     1.4834670     0.3126690
  H       -1.1896280     0.7983240     1.5903720
  H       -2.3959300    -0.8708340    -0.5385770
  H       -1.2389410    -1.5925540     0.3789210
  H        2.5336290     0.4505910    -0.1523780
units angstrom
no_reorient  #important for SAPT in psi4, default
symmetry c1  #important for SAPT in psi4, default
}

set PROPERTIES_ORIGIN ["COM"]
properties('MP2/aug-cc-pvtz', properties = ['dipole'])
--------------------------------------------------------------------------

    Molecular point group: c1
  Charge       = 0
  Multiplicity = 1
  Basis Set: AUG-CC-PVTZ
    Blend: AUG-CC-PVTZ
  Basis Set: (AUG-CC-PVTZ AUX)
    Blend: AUG-CC-PVTZ-JKFIT

    Orbital Energies [Eh]
    ---------------------

    Doubly Occupied:

       1A    -20.620764     2A    -20.554105     3A    -15.550662
       4A    -11.391380     5A    -11.283309     6A    -11.237514
       7A     -1.464237     8A     -1.361236     9A     -1.210435
      10A     -1.010732    11A     -0.911490    12A     -0.798657
      13A     -0.729946    14A     -0.707467    15A     -0.643506
      16A     -0.630365    17A     -0.616381    18A     -0.584099
      19A     -0.572745    20A     -0.541004    21A     -0.531074
      22A     -0.484314    23A     -0.456028    24A     -0.391006

  @DF-RHF Final Energy:  -321.98899499094000

   => Energetics <=

    Nuclear Repulsion Energy =            249.0504999075546664
    One-Electron Energy =                -933.5140802552592731
    Two-Electron Energy =                 362.4745853567645781
    Total Energy =                       -321.9889949909400002
  Basis Set: (AUG-CC-PVTZ AUX)
    Blend: AUG-CC-PVTZ-RI
    Molecular point group: c1

    Geometry (in Angstrom), charge = 0, multiplicity = 1:

       Center              X                  Y                   Z               Mass
    ------------   -----------------  -----------------  -----------------  -----------------
         O            1.599500294825     0.761695340723    -0.496910807032    15.994914619570
         O            1.012786294825    -1.038111659277     0.751133192968    15.994914619570
         N           -1.463643705175    -1.031672659277    -0.464551807032    14.003074004430
         C           -0.704008705175     0.159649540723    -0.476448707032    12.000000000000
         C           -1.254099705175     1.257820340723     0.598023192968    12.000000000000
         C            0.701651294825    -0.123131659277     0.007593192968    12.000000000000
         H           -0.681923705175     0.663764340723    -1.396119807032     1.007825032230
         H           -0.648873705175     2.169160340723     0.591291192968     1.007825032230
         H           -2.281239705175     1.525060340723     0.331828192968     1.007825032230
         H           -1.254422705175     0.839917340723     1.609531192968     1.007825032230
         H           -2.460724705175    -0.829240659277    -0.519417807032     1.007825032230
         H           -1.303735705175    -1.550960659277     0.398080192968     1.007825032230
         H            2.468834294825     0.492184340723    -0.133218807032     1.007825032230

  Basis Set: AUG-CC-PVTZ
    Blend: AUG-CC-PVTZ
  Basis Set: (AUG-CC-PVTZ AUX)
    Blend: AUG-CC-PVTZ-JKFIT
	 Reference Energy          =    -321.9889949909400002 [Eh]
	 Singles Energy            =      -0.0000000000000000 [Eh]
	 Same-Spin Energy          =      -0.3169675434039851 [Eh]
	 Opposite-Spin Energy      =      -0.9995693859482829 [Eh]
	 Correlation Energy        =      -1.3165369293522682 [Eh]
	 Total Energy              =    -323.3055319202922533 [Eh]

	 ================> DF-SCS-MP2 Energies <==================
	-----------------------------------------------------------
	 SCS Same-Spin Scale       =       0.3333333333333333 [-]
	 SCS Opposite-Spin Scale   =       1.2000000000000000 [-]
	 SCS Same-Spin Energy      =      -0.1056558478013284 [Eh]
	 SCS Opposite-Spin Energy  =      -1.1994832631379395 [Eh]
	 SCS Correlation Energy    =      -1.3051391109392678 [Eh]
	 SCS Total Energy          =    -323.2941341018792514 [Eh]
	-----------------------------------------------------------

  Dipole Moment: [D]
     X:    -0.8083      Y:     1.9052      Z:     0.1494     Total:     2.0750

*** Psi4 exiting successfully. Buy a developer a beer!
