                               Psi4 1.3.2 release

  ==> Input File <==

--------------------------------------------------------------------------
#psi4
#
memory 32 gb

molecule  {
0 1
  O        1.6642950     0.7201020    -0.5160700
  O        1.0775810    -1.0797050     0.7319740
  N       -1.3988490    -1.0732660    -0.4837110
  C       -0.6288640     0.0591224    -0.5757309
  C       -1.1893050     1.2162270     0.5788640
  C        0.7664460    -0.1647250    -0.0115660
  H       -0.6171290     0.6221710    -1.4152790
  H       -0.5840790     2.1275670     0.5721320
  H       -2.2164450     1.4834670     0.3126690
  H       -1.1896280     0.7983240     1.5903720
  H       -2.3959300    -0.8708340    -0.5385770
  H       -1.2389410    -1.5925540     0.3789210
  H        2.5336290     0.4505910    -0.1523780
units angstrom
no_reorient  #important for SAPT in psi4, default
symmetry c1  #important for SAPT in psi4, default
}

set PROPERTIES_ORIGIN ["COM"]
properties('MP2/aug-cc-pvtz', properties = ['dipole'])
--------------------------------------------------------------------------

    Molecular point group: c1
  Charge       = 0
  Multiplicity = 1
  Basis Set: AUG-CC-PVTZ
    Blend: AUG-CC-PVTZ
  Basis Set: (AUG-CC-PVTZ AUX)
    Blend: AUG-CC-PVTZ-JKFIT

    Orbital Energies [Eh]
    ---------------------

    Doubly Occupied:

       1A    -20.619903     2A    -20.552757     3A    -15.551903
       4A    -11.392504     5A    -11.286255     6A    -11.236588
       7A     -1.463349     8A     -1.360454     9A     -1.222063
      10A     -1.000548    11A     -0.908767    12A     -0.804949
      13A     -0.735721    14A     -0.707731    15A     -0.644672
      16A     -0.636001    17A     -0.625057    18A     -0.582980
      19A     -0.568708    20A     -0.543244    21A     -0.527218
      22A     -0.483309    23A     -0.456435    24A     -0.373124

  @DF-RHF Final Energy:  -321.96832233656232

   => Energetics <=

    Nuclear Repulsion Energy =            248.7227251355149633
    One-Electron Energy =                -932.8136180293583948
    Two-Electron Energy =                 362.1225705572810512
    Total Energy =                       -321.9683223365623235
  Basis Set: (AUG-CC-PVTZ AUX)
    Blend: AUG-CC-PVTZ-RI
    Molecular point group: c1

    Geometry (in Angstrom), charge = 0, multiplicity = 1:

       Center              X                  Y                   Z               Mass
    ------------   -----------------  -----------------  -----------------  -----------------
         O            1.598105536397     0.769637216493    -0.486113490173    15.994914619570
         O            1.011391536397    -1.030169783507     0.761930509827    15.994914619570
         N           -1.465038463603    -1.023730783507    -0.453754490173    14.003074004430
         C           -0.695053463603     0.108657616493    -0.545774390173    12.000000000000
         C           -1.255494463603     1.265762216493     0.608820509827    12.000000000000
         C            0.700256536397    -0.115189783507     0.018390509827    12.000000000000
         H           -0.683318463603     0.671706216493    -1.385322490173     1.007825032230
         H           -0.650268463603     2.177102216493     0.602088509827     1.007825032230
         H           -2.282634463603     1.533002216493     0.342625509827     1.007825032230
         H           -1.255817463603     0.847859216493     1.620328509827     1.007825032230
         H           -2.462119463603    -0.821298783507    -0.508620490173     1.007825032230
         H           -1.305130463603    -1.543018783507     0.408877509827     1.007825032230
         H            2.467439536397     0.500126216493    -0.122421490173     1.007825032230

  Basis Set: AUG-CC-PVTZ
    Blend: AUG-CC-PVTZ
  Basis Set: (AUG-CC-PVTZ AUX)
    Blend: AUG-CC-PVTZ-JKFIT
	 Reference Energy          =    -321.9683223365623235 [Eh]
	 Singles Energy            =      -0.0000000000000000 [Eh]
	 Same-Spin Energy          =      -0.3176799904078458 [Eh]
	 Opposite-Spin Energy      =      -1.0004986923908874 [Eh]
	 Correlation Energy        =      -1.3181786827987332 [Eh]
	 Total Energy              =    -323.2865010193610829 [Eh]

	 ================> DF-SCS-MP2 Energies <==================
	-----------------------------------------------------------
	 SCS Same-Spin Scale       =       0.3333333333333333 [-]
	 SCS Opposite-Spin Scale   =       1.2000000000000000 [-]
	 SCS Same-Spin Energy      =      -0.1058933301359486 [Eh]
	 SCS Opposite-Spin Energy  =      -1.2005984308690649 [Eh]
	 SCS Correlation Energy    =      -1.3064917610050135 [Eh]
	 SCS Total Energy          =    -323.2748140975673437 [Eh]
	-----------------------------------------------------------

  Dipole Moment: [D]
     X:    -0.8814      Y:     1.7240      Z:    -0.0046     Total:     1.9363

*** Psi4 exiting successfully. Buy a developer a beer!
