                               Psi4 1.3.2 release

  ==> Input File <==

--------------------------------------------------------------------------
#psi4
#
memory 32 gb

molecule  {
0 1
  O        1.6642950     0.7201020    -0.5160700
  O        1.0775810    -1.0797050     0.7319740
  N       -1.3988490    -1.0732660    -0.4837110
  C       -0.6495640     0.1769900    -0.4154850
  C       -1.1893050     1.2162270     0.5788640
  C        0.7664460    -0.1647250    -0.0115660
  H       -0.6171290     0.6221710    -1.4152790
  H       -0.5840790     2.1275670     0.5721320
  H       -2.2164450     1.4834670     0.3126690
  H       -1.1896280     0.7983240     1.5903720
  H       -2.3959300    -0.8708340    -0.5385770
  H       -1.2389410    -1.5925540     0.3789210
  H        2.5336290     0.4505910    -0.1523780
units angstrom
no_reorient  #important for SAPT in psi4, default
symmetry c1  #important for SAPT in psi4, default
}

set PROPERTIES_ORIGIN ["COM"]
properties('MP2/aug-cc-pvtz', properties = ['dipole'])
--------------------------------------------------------------------------

    Molecular point group: c1
  Charge       = 0
  Multiplicity = 1
  Basis Set: AUG-CC-PVTZ
    Blend: AUG-CC-PVTZ
  Basis Set: (AUG-CC-PVTZ AUX)
    Blend: AUG-CC-PVTZ-JKFIT

    Orbital Energies [Eh]
    ---------------------

    Doubly Occupied:

       1A    -20.621442     2A    -20.555236     3A    -15.550988
       4A    -11.391270     5A    -11.282945     6A    -11.236482
       7A     -1.464923     8A     -1.361883     9A     -1.199978
      10A     -1.023844    11A     -0.913447    12A     -0.792702
      13A     -0.724169    14A     -0.707141    15A     -0.646056
      16A     -0.629059    17A     -0.610542    18A     -0.584312
      19A     -0.577419    20A     -0.544381    21A     -0.520893
      22A     -0.485324    23A     -0.454478    24A     -0.404650

  @DF-RHF Final Energy:  -321.99565949607705

   => Energetics <=

    Nuclear Repulsion Energy =            249.3195419819992082
    One-Electron Energy =                -934.0632730636646102
    Two-Electron Energy =                 362.7480715855883204
    Total Energy =                       -321.9956594960770531
  Basis Set: (AUG-CC-PVTZ AUX)
    Blend: AUG-CC-PVTZ-RI
    Molecular point group: c1

    Geometry (in Angstrom), charge = 0, multiplicity = 1:

       Center              X                  Y                   Z               Mass
    ------------   -----------------  -----------------  -----------------  -----------------
         O            1.600895053252     0.753753464953    -0.507708110415    15.994914619570
         O            1.014181053252    -1.046053535047     0.740335889585    15.994914619570
         N           -1.462248946748    -1.039614535047    -0.475349110415    14.003074004430
         C           -0.712963946748     0.210641464953    -0.407123110415    12.000000000000
         C           -1.252704946748     1.249878464953     0.587225889585    12.000000000000
         C            0.703046053252    -0.131073535047    -0.003204110415    12.000000000000
         H           -0.680528946748     0.655822464953    -1.406917110415     1.007825032230
         H           -0.647478946748     2.161218464953     0.580493889585     1.007825032230
         H           -2.279844946748     1.517118464953     0.321030889585     1.007825032230
         H           -1.253027946748     0.831975464953     1.598733889585     1.007825032230
         H           -2.459329946748    -0.837182535047    -0.530215110415     1.007825032230
         H           -1.302340946748    -1.558902535047     0.387282889585     1.007825032230
         H            2.470229053252     0.484242464953    -0.144016110415     1.007825032230

  Basis Set: AUG-CC-PVTZ
    Blend: AUG-CC-PVTZ
  Basis Set: (AUG-CC-PVTZ AUX)
    Blend: AUG-CC-PVTZ-JKFIT
	 Reference Energy          =    -321.9956594960770531 [Eh]
	 Singles Energy            =      -0.0000000000000000 [Eh]
	 Same-Spin Energy          =      -0.3169367395572238 [Eh]
	 Opposite-Spin Energy      =      -0.9999430482599926 [Eh]
	 Correlation Energy        =      -1.3168797878172165 [Eh]
	 Total Energy              =    -323.3125392838942957 [Eh]

	 ================> DF-SCS-MP2 Energies <==================
	-----------------------------------------------------------
	 SCS Same-Spin Scale       =       0.3333333333333333 [-]
	 SCS Opposite-Spin Scale   =       1.2000000000000000 [-]
	 SCS Same-Spin Energy      =      -0.1056455798524079 [Eh]
	 SCS Opposite-Spin Energy  =      -1.1999316579119910 [Eh]
	 SCS Correlation Energy    =      -1.3055772377643988 [Eh]
	 SCS Total Energy          =    -323.3012367338414492 [Eh]
	-----------------------------------------------------------

  Dipole Moment: [D]
     X:    -0.7568      Y:     2.0425      Z:     0.2847     Total:     2.1968

*** Psi4 exiting successfully. Buy a developer a beer!
