                               Psi4 1.3.2 release

  ==> Input File <==

--------------------------------------------------------------------------
#psi4
#
memory 32 gb

molecule  {
0 1
  O        1.6642950     0.7201020    -0.5160700
  O        1.0775810    -1.0797050     0.7319740
  N       -1.3988490    -1.0732660    -0.4837110
  C       -0.6443890     0.1475231    -0.4555465
  C       -1.1893050     1.2162270     0.5788640
  C        0.7664460    -0.1647250    -0.0115660
  H       -0.6171290     0.6221710    -1.4152790
  H       -0.5840790     2.1275670     0.5721320
  H       -2.2164450     1.4834670     0.3126690
  H       -1.1896280     0.7983240     1.5903720
  H       -2.3959300    -0.8708340    -0.5385770
  H       -1.2389410    -1.5925540     0.3789210
  H        2.5336290     0.4505910    -0.1523780
units angstrom
no_reorient  #important for SAPT in psi4, default
symmetry c1  #important for SAPT in psi4, default
}

set PROPERTIES_ORIGIN ["COM"]
properties('MP2/aug-cc-pvtz', properties = ['dipole'])
--------------------------------------------------------------------------

    Molecular point group: c1
  Charge       = 0
  Multiplicity = 1
  Basis Set: AUG-CC-PVTZ
    Blend: AUG-CC-PVTZ
  Basis Set: (AUG-CC-PVTZ AUX)
    Blend: AUG-CC-PVTZ-JKFIT

    Orbital Energies [Eh]
    ---------------------

    Doubly Occupied:

       1A    -20.621125     2A    -20.554698     3A    -15.550670
       4A    -11.391195     5A    -11.282833     6A    -11.237223
       7A     -1.464606     8A     -1.361577     9A     -1.205029
      10A     -1.016873    11A     -0.912579    12A     -0.795619
      13A     -0.727025    14A     -0.707335    15A     -0.644570
      16A     -0.629481    17A     -0.612243    18A     -0.584176
      19A     -0.574859    20A     -0.542518    21A     -0.527735
      22A     -0.484831    23A     -0.455416    24A     -0.398407

  @DF-RHF Final Energy:  -321.99433742438930

   => Energetics <=

    Nuclear Repulsion Energy =            249.1902595170570862
    One-Electron Energy =                -933.8039502240914089
    Two-Electron Energy =                 362.6193532826449655
    Total Energy =                       -321.9943374243893004
  Basis Set: (AUG-CC-PVTZ AUX)
    Blend: AUG-CC-PVTZ-RI
    Molecular point group: c1

    Geometry (in Angstrom), charge = 0, multiplicity = 1:

       Center              X                  Y                   Z               Mass
    ------------   -----------------  -----------------  -----------------  -----------------
         O            1.600197674038     0.757724402838    -0.502309451986    15.994914619570
         O            1.013483674038    -1.042082597162     0.745734548014    15.994914619570
         N           -1.462946325962    -1.035643597162    -0.469950451986    14.003074004430
         C           -0.708486325962     0.185145502838    -0.441785951986    12.000000000000
         C           -1.253402325962     1.253849402838     0.592624548014    12.000000000000
         C            0.702348674038    -0.127102597162     0.002194548014    12.000000000000
         H           -0.681226325962     0.659793402838    -1.401518451986     1.007825032230
         H           -0.648176325962     2.165189402838     0.585892548014     1.007825032230
         H           -2.280542325962     1.521089402838     0.326429548014     1.007825032230
         H           -1.253725325962     0.835946402838     1.604132548014     1.007825032230
         H           -2.460027325962    -0.833211597162    -0.524816451986     1.007825032230
         H           -1.303038325962    -1.554931597162     0.392681548014     1.007825032230
         H            2.469531674038     0.488213402838    -0.138617451986     1.007825032230

  Basis Set: AUG-CC-PVTZ
    Blend: AUG-CC-PVTZ
  Basis Set: (AUG-CC-PVTZ AUX)
    Blend: AUG-CC-PVTZ-JKFIT
	 Reference Energy          =    -321.9943374243893004 [Eh]
	 Singles Energy            =      -0.0000000000000000 [Eh]
	 Same-Spin Energy          =      -0.3168616140037689 [Eh]
	 Opposite-Spin Energy      =      -0.9995892604821563 [Eh]
	 Correlation Energy        =      -1.3164508744859251 [Eh]
	 Total Energy              =    -323.3107882988752522 [Eh]

	 ================> DF-SCS-MP2 Energies <==================
	-----------------------------------------------------------
	 SCS Same-Spin Scale       =       0.3333333333333333 [-]
	 SCS Opposite-Spin Scale   =       1.2000000000000000 [-]
	 SCS Same-Spin Energy      =      -0.1056205380012563 [Eh]
	 SCS Opposite-Spin Energy  =      -1.1995071125785877 [Eh]
	 SCS Correlation Energy    =      -1.3051276505798439 [Eh]
	 SCS Total Energy          =    -323.2994650749691345 [Eh]
	-----------------------------------------------------------

  Dipole Moment: [D]
     X:    -0.7802      Y:     1.9785      Z:     0.2188     Total:     2.1380

*** Psi4 exiting successfully. Buy a developer a beer!
