                               Psi4 1.3.2 release

  ==> Input File <==

--------------------------------------------------------------------------
#psi4
#
memory 32 gb

molecule  {
0 1
  O        1.6642950     0.7201020    -0.5160700
  O        1.0775810    -1.0797050     0.7319740
  N       -1.3988490    -1.0732660    -0.4837110
  C       -0.6340390     0.0885893    -0.5356694
  C       -1.1893050     1.2162270     0.5788640
  C        0.7664460    -0.1647250    -0.0115660
  H       -0.6171290     0.6221710    -1.4152790
  H       -0.5840790     2.1275670     0.5721320
  H       -2.2164450     1.4834670     0.3126690
  H       -1.1896280     0.7983240     1.5903720
  H       -2.3959300    -0.8708340    -0.5385770
  H       -1.2389410    -1.5925540     0.3789210
  H        2.5336290     0.4505910    -0.1523780
units angstrom
no_reorient  #important for SAPT in psi4, default
symmetry c1  #important for SAPT in psi4, default
}

set PROPERTIES_ORIGIN ["COM"]
properties('MP2/aug-cc-pvtz', properties = ['dipole'])
--------------------------------------------------------------------------

    Molecular point group: c1
  Charge       = 0
  Multiplicity = 1
  Basis Set: AUG-CC-PVTZ
    Blend: AUG-CC-PVTZ
  Basis Set: (AUG-CC-PVTZ AUX)
    Blend: AUG-CC-PVTZ-JKFIT

    Orbital Energies [Eh]
    ---------------------

    Doubly Occupied:

       1A    -20.620358     2A    -20.553457     3A    -15.551047
       4A    -11.391820     5A    -11.284437     6A    -11.237312
       7A     -1.463819     8A     -1.360862     9A     -1.216131
      10A     -1.005323    11A     -0.910212    12A     -0.801784
      13A     -0.732856    14A     -0.707582    15A     -0.643110
      16A     -0.632410    17A     -0.621528    18A     -0.583701
      19A     -0.570735    20A     -0.541807    21A     -0.530049
      22A     -0.483796    23A     -0.456359    24A     -0.382527

  @DF-RHF Final Energy:  -321.98014961549757

   => Energetics <=

    Nuclear Repulsion Energy =            248.8960136185469878
    One-Electron Energy =                -933.1862831437077830
    Two-Electron Energy =                 362.3101199096631717
    Total Energy =                       -321.9801496154975666
  Basis Set: (AUG-CC-PVTZ AUX)
    Blend: AUG-CC-PVTZ-RI
    Molecular point group: c1

    Geometry (in Angstrom), charge = 0, multiplicity = 1:

       Center              X                  Y                   Z               Mass
    ------------   -----------------  -----------------  -----------------  -----------------
         O            1.598802915611     0.765666278608    -0.491512148603    15.994914619570
         O            1.012088915611    -1.034140721392     0.756531851397    15.994914619570
         N           -1.464341084389    -1.027701721392    -0.459153148603    14.003074004430
         C           -0.699531084389     0.134153578608    -0.511111548603    12.000000000000
         C           -1.254797084389     1.261791278608     0.603421851397    12.000000000000
         C            0.700953915611    -0.119160721392     0.012991851397    12.000000000000
         H           -0.682621084389     0.667735278608    -1.390721148603     1.007825032230
         H           -0.649571084389     2.173131278608     0.596689851397     1.007825032230
         H           -2.281937084389     1.529031278608     0.337226851397     1.007825032230
         H           -1.255120084389     0.843888278608     1.614929851397     1.007825032230
         H           -2.461422084389    -0.825269721392    -0.514019148603     1.007825032230
         H           -1.304433084389    -1.546989721392     0.403478851397     1.007825032230
         H            2.468136915611     0.496155278608    -0.127820148603     1.007825032230

  Basis Set: AUG-CC-PVTZ
    Blend: AUG-CC-PVTZ
  Basis Set: (AUG-CC-PVTZ AUX)
    Blend: AUG-CC-PVTZ-JKFIT
	 Reference Energy          =    -321.9801496154975666 [Eh]
	 Singles Energy            =      -0.0000000000000000 [Eh]
	 Same-Spin Energy          =      -0.3172442243161040 [Eh]
	 Opposite-Spin Energy      =      -0.9998756045316104 [Eh]
	 Correlation Energy        =      -1.3171198288477144 [Eh]
	 Total Energy              =    -323.2972694443452610 [Eh]

	 ================> DF-SCS-MP2 Energies <==================
	-----------------------------------------------------------
	 SCS Same-Spin Scale       =       0.3333333333333333 [-]
	 SCS Opposite-Spin Scale   =       1.2000000000000000 [-]
	 SCS Same-Spin Energy      =      -0.1057480747720347 [Eh]
	 SCS Opposite-Spin Energy  =      -1.1998507254379325 [Eh]
	 SCS Correlation Energy    =      -1.3055988002099672 [Eh]
	 SCS Total Energy          =    -323.2857484157075305 [Eh]
	-----------------------------------------------------------

  Dipole Moment: [D]
     X:    -0.8418      Y:     1.8208      Z:     0.0753     Total:     2.0074

*** Psi4 exiting successfully. Buy a developer a beer!
