                               Psi4 1.3.2 release

  ==> Input File <==

--------------------------------------------------------------------------
#psi4
#
memory 32 gb

molecule  {
0 1
  O        0.1973020    -1.3235490    -0.2892290
  C       -1.0344600    -0.8194530     0.2767900
  C       -1.2574290     0.6116450    -0.1105210
  C       -0.1783580     1.4194390    -0.0692080
  C        1.1257810     0.8237890     0.1750290
  C        1.2576400    -0.5068660    -0.0292480
  H       -0.9620370    -0.9265990     1.3719500
  H       -1.8114290    -1.4891710    -0.0946800
  H       -2.2490060     0.9624120    -0.3801030
  H       -0.2602038     2.4949822    -0.2117011
  H        2.0071080     1.4278200     0.3572680
  H        2.2048620    -1.0348020    -0.0884010
units angstrom
no_reorient  #important for SAPT in psi4, default
symmetry c1  #important for SAPT in psi4, default
}

set PROPERTIES_ORIGIN ["COM"]
properties('MP2/aug-cc-pvtz', properties = ['dipole'])
--------------------------------------------------------------------------

    Molecular point group: c1
  Charge       = 0
  Multiplicity = 1
  Basis Set: AUG-CC-PVTZ
    Blend: AUG-CC-PVTZ
  Basis Set: (AUG-CC-PVTZ AUX)
    Blend: AUG-CC-PVTZ-JKFIT

    Orbital Energies [Eh]
    ---------------------

    Doubly Occupied:

       1A    -20.587082     2A    -11.300814     3A    -11.291250
       4A    -11.241883     5A    -11.231385     6A    -11.226011
       7A     -1.407347     8A     -1.096315     9A     -1.034611
      10A     -0.898489    11A     -0.840580    12A     -0.718446
      13A     -0.703613    14A     -0.649640    15A     -0.632769
      16A     -0.604714    17A     -0.572168    18A     -0.532578
      19A     -0.508204    20A     -0.473098    21A     -0.417967
      22A     -0.301605

  @DF-RHF Final Energy:  -267.73773099546185

   => Energetics <=

    Nuclear Repulsion Energy =            223.4810759559339033
    One-Electron Energy =                -805.8964763958858839
    Two-Electron Energy =                 314.6776694444901636
    Total Energy =                       -267.7377309954618454
  Basis Set: (AUG-CC-PVTZ AUX)
    Blend: AUG-CC-PVTZ-RI
    Molecular point group: c1

    Geometry (in Angstrom), charge = 0, multiplicity = 1:

       Center              X                  Y                   Z               Mass
    ------------   -----------------  -----------------  -----------------  -----------------
         O            0.184688530776    -1.306709585982    -0.280083808377    15.994914619570
         C           -1.047073469224    -0.802613585982     0.285935191623    12.000000000000
         C           -1.270042469224     0.628484414018    -0.101375808377    12.000000000000
         C           -0.190971469224     1.436278414018    -0.060062808377    12.000000000000
         C            1.113167530776     0.840628414018     0.184174191623    12.000000000000
         C            1.245026530776    -0.490026585982    -0.020102808377    12.000000000000
         H           -0.974650469224    -0.909759585982     1.381095191623     1.007825032230
         H           -1.824042469224    -1.472331585982    -0.085534808377     1.007825032230
         H           -2.261619469224     0.979251414018    -0.370957808377     1.007825032230
         H           -0.272817269224     2.511821614018    -0.202555908377     1.007825032230
         H            1.994494530776     1.444659414018     0.366413191623     1.007825032230
         H            2.192248530776    -1.017962585982    -0.079255808377     1.007825032230

  Basis Set: AUG-CC-PVTZ
    Blend: AUG-CC-PVTZ
  Basis Set: (AUG-CC-PVTZ AUX)
    Blend: AUG-CC-PVTZ-JKFIT
	 Reference Energy          =    -267.7377309954618454 [Eh]
	 Singles Energy            =      -0.0000000000000000 [Eh]
	 Same-Spin Energy          =      -0.2741261283739785 [Eh]
	 Opposite-Spin Energy      =      -0.8867716669335057 [Eh]
	 Correlation Energy        =      -1.1608977953074842 [Eh]
	 Total Energy              =    -268.8986287907693509 [Eh]

	 ================> DF-SCS-MP2 Energies <==================
	-----------------------------------------------------------
	 SCS Same-Spin Scale       =       0.3333333333333333 [-]
	 SCS Opposite-Spin Scale   =       1.2000000000000000 [-]
	 SCS Same-Spin Energy      =      -0.0913753761246595 [Eh]
	 SCS Opposite-Spin Energy  =      -1.0641260003202069 [Eh]
	 SCS Correlation Energy    =      -1.1555013764448665 [Eh]
	 SCS Total Energy          =    -268.8932323719067199 [Eh]
	-----------------------------------------------------------

  Dipole Moment: [D]
     X:    -0.3414      Y:     0.6353      Z:     0.4832     Total:     0.8681

*** Psi4 exiting successfully. Buy a developer a beer!
