                               Psi4 1.3.2 release

  ==> Input File <==

--------------------------------------------------------------------------
#psi4
#
memory 32 gb

molecule  {
0 1
  O        0.1973020    -1.3235490    -0.2892290
  C       -1.0344600    -0.8194530     0.2767900
  C       -1.2574290     0.6116450    -0.1105210
  C       -0.1783580     1.4194390    -0.0692080
  C        1.1257810     0.8237890     0.1750290
  C        1.2576400    -0.5068660    -0.0292480
  H       -0.9620370    -0.9265990     1.3719500
  H       -1.8114290    -1.4891710    -0.0946800
  H       -2.2874841     1.0066743    -0.1888956
  H       -0.2469520     2.4774150    -0.3092500
  H        2.0071080     1.4278200     0.3572680
  H        2.2048620    -1.0348020    -0.0884010
units angstrom
no_reorient  #important for SAPT in psi4, default
symmetry c1  #important for SAPT in psi4, default
}

set PROPERTIES_ORIGIN ["COM"]
properties('MP2/aug-cc-pvtz', properties = ['dipole'])
--------------------------------------------------------------------------

    Molecular point group: c1
  Charge       = 0
  Multiplicity = 1
  Basis Set: AUG-CC-PVTZ
    Blend: AUG-CC-PVTZ
  Basis Set: (AUG-CC-PVTZ AUX)
    Blend: AUG-CC-PVTZ-JKFIT

    Orbital Energies [Eh]
    ---------------------

    Doubly Occupied:

       1A    -20.586942     2A    -11.300869     3A    -11.291474
       4A    -11.242246     5A    -11.233751     6A    -11.226217
       7A     -1.407351     8A     -1.096538     9A     -1.034564
      10A     -0.898623    11A     -0.840025    12A     -0.718425
      13A     -0.699507    14A     -0.649990    15A     -0.634684
      16A     -0.603240    17A     -0.572475    18A     -0.530478
      19A     -0.509719    20A     -0.469272    21A     -0.421355
      22A     -0.301121

  @DF-RHF Final Energy:  -267.73615708243335

   => Energetics <=

    Nuclear Repulsion Energy =            223.3960578243735142
    One-Electron Energy =                -805.7266959445872772
    Two-Electron Energy =                 314.5944810377803833
    Total Energy =                       -267.7361570824333512
  Basis Set: (AUG-CC-PVTZ AUX)
    Blend: AUG-CC-PVTZ-RI
    Molecular point group: c1

    Geometry (in Angstrom), charge = 0, multiplicity = 1:

       Center              X                  Y                   Z               Mass
    ------------   -----------------  -----------------  -----------------  -----------------
         O            0.184998417645    -1.307037515998    -0.281234335379    15.994914619570
         C           -1.046763582355    -0.802941515998     0.284784664621    12.000000000000
         C           -1.269732582355     0.628156484002    -0.102526335379    12.000000000000
         C           -0.190661582355     1.435950484002    -0.061213335379    12.000000000000
         C            1.113477417645     0.840300484002     0.183023664621    12.000000000000
         C            1.245336417645    -0.490354515998    -0.021253335379    12.000000000000
         H           -0.974340582355    -0.910087515998     1.379944664621     1.007825032230
         H           -1.823732582355    -1.472659515998    -0.086685335379     1.007825032230
         H           -2.299787682355     1.023185784002    -0.180900935379     1.007825032230
         H           -0.259255582355     2.493926484002    -0.301255335379     1.007825032230
         H            1.994804417645     1.444331484002     0.365262664621     1.007825032230
         H            2.192558417645    -1.018290515998    -0.080406335379     1.007825032230

  Basis Set: AUG-CC-PVTZ
    Blend: AUG-CC-PVTZ
  Basis Set: (AUG-CC-PVTZ AUX)
    Blend: AUG-CC-PVTZ-JKFIT
	 Reference Energy          =    -267.7361570824333512 [Eh]
	 Singles Energy            =      -0.0000000000000000 [Eh]
	 Same-Spin Energy          =      -0.2740806153999230 [Eh]
	 Opposite-Spin Energy      =      -0.8869152698513998 [Eh]
	 Correlation Energy        =      -1.1609958852513227 [Eh]
	 Total Energy              =    -268.8971529676846899 [Eh]

	 ================> DF-SCS-MP2 Energies <==================
	-----------------------------------------------------------
	 SCS Same-Spin Scale       =       0.3333333333333333 [-]
	 SCS Opposite-Spin Scale   =       1.2000000000000000 [-]
	 SCS Same-Spin Energy      =      -0.0913602051333076 [Eh]
	 SCS Opposite-Spin Energy  =      -1.0642983238216797 [Eh]
	 SCS Correlation Energy    =      -1.1556585289549872 [Eh]
	 SCS Total Energy          =    -268.8918156113883242 [Eh]
	-----------------------------------------------------------

  Dipole Moment: [D]
     X:    -0.3374      Y:     0.6607      Z:     0.5562     Total:     0.9272

*** Psi4 exiting successfully. Buy a developer a beer!
