                               Psi4 1.3.2 release

  ==> Input File <==

--------------------------------------------------------------------------
#psi4
#
memory 32 gb

molecule  {
0 1
  O        0.1973020    -1.3235490    -0.2892290
  C       -1.0344600    -0.8194530     0.2767900
  C       -1.2574290     0.6116450    -0.1105210
  C       -0.1783580     1.4194390    -0.0692080
  C        1.1257810     0.8237890     0.1750290
  C        1.2576400    -0.5068660    -0.0292480
  H       -0.9620370    -0.9265990     1.3719500
  H       -1.8114290    -1.4891710    -0.0946800
  H       -2.2490060     0.9624120    -0.3801030
  H       -0.2469520     2.4774150    -0.3092500
  H        1.9596905     1.3975248     0.6008533
  H        2.2048620    -1.0348020    -0.0884010
units angstrom
no_reorient  #important for SAPT in psi4, default
symmetry c1  #important for SAPT in psi4, default
}

set PROPERTIES_ORIGIN ["COM"]
properties('MP2/aug-cc-pvtz', properties = ['dipole'])
--------------------------------------------------------------------------

    Molecular point group: c1
  Charge       = 0
  Multiplicity = 1
  Basis Set: AUG-CC-PVTZ
    Blend: AUG-CC-PVTZ
  Basis Set: (AUG-CC-PVTZ AUX)
    Blend: AUG-CC-PVTZ-JKFIT

    Orbital Energies [Eh]
    ---------------------

    Doubly Occupied:

       1A    -20.587066     2A    -11.301032     3A    -11.291268
       4A    -11.241434     5A    -11.231935     6A    -11.227335
       7A     -1.407349     8A     -1.096241     9A     -1.034213
      10A     -0.898330    11A     -0.840135    12A     -0.717336
      13A     -0.701861    14A     -0.649124    15A     -0.635725
      16A     -0.606161    17A     -0.570611    18A     -0.530427
      19A     -0.511106    20A     -0.469812    21A     -0.415222
      22A     -0.302992

  @DF-RHF Final Energy:  -267.73511277427548

   => Energetics <=

    Nuclear Repulsion Energy =            223.4475165533682173
    One-Electron Energy =                -805.8318254284263276
    Two-Electron Energy =                 314.6491961007826035
    Total Energy =                       -267.7351127742754784
  Basis Set: (AUG-CC-PVTZ AUX)
    Blend: AUG-CC-PVTZ-RI
    Molecular point group: c1

    Geometry (in Angstrom), charge = 0, multiplicity = 1:

       Center              X                  Y                   Z               Mass
    ------------   -----------------  -----------------  -----------------  -----------------
         O            0.185108231715    -1.306121630980    -0.281877760037    15.994914619570
         C           -1.046653768285    -0.802025630980     0.284141239963    12.000000000000
         C           -1.269622768285     0.629072369020    -0.103169760037    12.000000000000
         C           -0.190551768285     1.436866369020    -0.061856760037    12.000000000000
         C            1.113587231715     0.841216369020     0.182380239963    12.000000000000
         C            1.245446231715    -0.489438630980    -0.021896760037    12.000000000000
         H           -0.974230768285    -0.909171630980     1.379301239963     1.007825032230
         H           -1.823622768285    -1.471743630980    -0.087328760037     1.007825032230
         H           -2.261199768285     0.979839369020    -0.372751760037     1.007825032230
         H           -0.259145768285     2.494842369020    -0.301898760037     1.007825032230
         H            1.947496731715     1.414952169020     0.608204539963     1.007825032230
         H            2.192668231715    -1.017374630980    -0.081049760037     1.007825032230

  Basis Set: AUG-CC-PVTZ
    Blend: AUG-CC-PVTZ
  Basis Set: (AUG-CC-PVTZ AUX)
    Blend: AUG-CC-PVTZ-JKFIT
	 Reference Energy          =    -267.7351127742754784 [Eh]
	 Singles Energy            =      -0.0000000000000000 [Eh]
	 Same-Spin Energy          =      -0.2741769462197928 [Eh]
	 Opposite-Spin Energy      =      -0.8870779267552921 [Eh]
	 Correlation Energy        =      -1.1612548729750849 [Eh]
	 Total Energy              =    -268.8963676472505426 [Eh]

	 ================> DF-SCS-MP2 Energies <==================
	-----------------------------------------------------------
	 SCS Same-Spin Scale       =       0.3333333333333333 [-]
	 SCS Opposite-Spin Scale   =       1.2000000000000000 [-]
	 SCS Same-Spin Energy      =      -0.0913923154065976 [Eh]
	 SCS Opposite-Spin Energy  =      -1.0644935121063503 [Eh]
	 SCS Correlation Energy    =      -1.1558858275129480 [Eh]
	 SCS Total Energy          =    -268.8909986017884535 [Eh]
	-----------------------------------------------------------

  Dipole Moment: [D]
     X:    -0.3908      Y:     0.6004      Z:     0.6013     Total:     0.9353

*** Psi4 exiting successfully. Buy a developer a beer!
