                               Psi4 1.3.2 release

  ==> Input File <==

--------------------------------------------------------------------------
#psi4
#
memory 32 gb

molecule  {
0 1
  O        0.1973020    -1.3235490    -0.2892290
  C       -1.0344600    -0.8194530     0.2767900
  C       -1.2574290     0.6116450    -0.1105210
  C       -0.1783580     1.4194390    -0.0692080
  C        1.1257810     0.8237890     0.1750290
  C        1.2576400    -0.5068660    -0.0292480
  H       -0.9620370    -0.9265990     1.3719500
  H       -1.8114290    -1.4891710    -0.0946800
  H       -2.3067231     1.0288055    -0.0932918
  H       -0.2469520     2.4774150    -0.3092500
  H        2.0071080     1.4278200     0.3572680
  H        2.2048620    -1.0348020    -0.0884010
units angstrom
no_reorient  #important for SAPT in psi4, default
symmetry c1  #important for SAPT in psi4, default
}

set PROPERTIES_ORIGIN ["COM"]
properties('MP2/aug-cc-pvtz', properties = ['dipole'])
--------------------------------------------------------------------------

    Molecular point group: c1
  Charge       = 0
  Multiplicity = 1
  Basis Set: AUG-CC-PVTZ
    Blend: AUG-CC-PVTZ
  Basis Set: (AUG-CC-PVTZ AUX)
    Blend: AUG-CC-PVTZ-JKFIT

    Orbital Energies [Eh]
    ---------------------

    Doubly Occupied:

       1A    -20.587073     2A    -11.301273     3A    -11.291607
       4A    -11.243072     5A    -11.236004     6A    -11.226510
       7A     -1.407550     8A     -1.096738     9A     -1.034531
      10A     -0.898772    11A     -0.839276    12A     -0.718619
      13A     -0.696743    14A     -0.650218    15A     -0.634762
      16A     -0.601230    17A     -0.572643    18A     -0.529229
      19A     -0.510430    20A     -0.468119    21A     -0.422345
      22A     -0.300719

  @DF-RHF Final Energy:  -267.73306305359023

   => Energetics <=

    Nuclear Repulsion Energy =            223.3003681907473208
    One-Electron Energy =                -805.5319330530207935
    Two-Electron Energy =                 314.4985018086832156
    Total Energy =                       -267.7330630535902287
  Basis Set: (AUG-CC-PVTZ AUX)
    Blend: AUG-CC-PVTZ-RI
    Molecular point group: c1

    Geometry (in Angstrom), charge = 0, multiplicity = 1:

       Center              X                  Y                   Z               Mass
    ------------   -----------------  -----------------  -----------------  -----------------
         O            0.185234754860    -1.307309381800    -0.282408758987    15.994914619570
         C           -1.046527245140    -0.803213381800     0.283610241013    12.000000000000
         C           -1.269496245140     0.627884618200    -0.103700758987    12.000000000000
         C           -0.190425245140     1.435678618200    -0.062387758987    12.000000000000
         C            1.113713754860     0.840028618200     0.181849241013    12.000000000000
         C            1.245572754860    -0.490626381800    -0.022427758987    12.000000000000
         H           -0.974104245140    -0.910359381800     1.378770241013     1.007825032230
         H           -1.823496245140    -1.472931381800    -0.087859758987     1.007825032230
         H           -2.318790345140     1.045045118200    -0.086471558987     1.007825032230
         H           -0.259019245140     2.493654618200    -0.302429758987     1.007825032230
         H            1.995040754860     1.444059618200     0.364088241013     1.007825032230
         H            2.192794754860    -1.018562381800    -0.081580758987     1.007825032230

  Basis Set: AUG-CC-PVTZ
    Blend: AUG-CC-PVTZ
  Basis Set: (AUG-CC-PVTZ AUX)
    Blend: AUG-CC-PVTZ-JKFIT
	 Reference Energy          =    -267.7330630535902287 [Eh]
	 Singles Energy            =      -0.0000000000000000 [Eh]
	 Same-Spin Energy          =      -0.2741553068997920 [Eh]
	 Opposite-Spin Energy      =      -0.8872505350595929 [Eh]
	 Correlation Energy        =      -1.1614058419593849 [Eh]
	 Total Energy              =    -268.8944688955496076 [Eh]

	 ================> DF-SCS-MP2 Energies <==================
	-----------------------------------------------------------
	 SCS Same-Spin Scale       =       0.3333333333333333 [-]
	 SCS Opposite-Spin Scale   =       1.2000000000000000 [-]
	 SCS Same-Spin Energy      =      -0.0913851022999306 [Eh]
	 SCS Opposite-Spin Energy  =      -1.0647006420715115 [Eh]
	 SCS Correlation Energy    =      -1.1560857443714421 [Eh]
	 SCS Total Energy          =    -268.8891487979616954 [Eh]
	-----------------------------------------------------------

  Dipole Moment: [D]
     X:    -0.3145      Y:     0.6740      Z:     0.6241     Total:     0.9710

*** Psi4 exiting successfully. Buy a developer a beer!
