                               Psi4 1.3.2 release

  ==> Input File <==

--------------------------------------------------------------------------
#psi4
#
memory 32 gb

molecule  {
0 1
  O        0.1973020    -1.3235490    -0.2892290
  C       -1.0344600    -0.8194530     0.2767900
  C       -1.2574290     0.6116450    -0.1105210
  C       -0.1783580     1.4194390    -0.0692080
  C        1.1257810     0.8237890     0.1750290
  C        1.2576400    -0.5068660    -0.0292480
  H       -0.9620370    -0.9265990     1.3719500
  H       -1.8114290    -1.4891710    -0.0946800
  H       -2.2490060     0.9624120    -0.3801030
  H       -0.2469520     2.4774150    -0.3092500
  H        1.9786575     1.4096429     0.5034192
  H        2.2048620    -1.0348020    -0.0884010
units angstrom
no_reorient  #important for SAPT in psi4, default
symmetry c1  #important for SAPT in psi4, default
}

set PROPERTIES_ORIGIN ["COM"]
properties('MP2/aug-cc-pvtz', properties = ['dipole'])
--------------------------------------------------------------------------

    Molecular point group: c1
  Charge       = 0
  Multiplicity = 1
  Basis Set: AUG-CC-PVTZ
    Blend: AUG-CC-PVTZ
  Basis Set: (AUG-CC-PVTZ AUX)
    Blend: AUG-CC-PVTZ-JKFIT

    Orbital Energies [Eh]
    ---------------------

    Doubly Occupied:

       1A    -20.586852     2A    -11.300652     3A    -11.291122
       4A    -11.241543     5A    -11.231679     6A    -11.226299
       7A     -1.407150     8A     -1.096322     9A     -1.034376
      10A     -0.898464    11A     -0.840421    12A     -0.717754
      13A     -0.702848    14A     -0.649485    15A     -0.635152
      16A     -0.605986    17A     -0.571364    18A     -0.531380
      19A     -0.510086    20A     -0.470332    21A     -0.416891
      22A     -0.302611

  @DF-RHF Final Energy:  -267.73718082491081

   => Energetics <=

    Nuclear Repulsion Energy =            223.4922221066547081
    One-Electron Energy =                -805.9212682249398085
    Two-Electron Energy =                 314.6918652933742919
    Total Energy =                       -267.7371808249108085
  Basis Set: (AUG-CC-PVTZ AUX)
    Blend: AUG-CC-PVTZ-RI
    Molecular point group: c1

    Geometry (in Angstrom), charge = 0, multiplicity = 1:

       Center              X                  Y                   Z               Mass
    ------------   -----------------  -----------------  -----------------  -----------------
         O            0.184875235824    -1.306270493083    -0.280680852517    15.994914619570
         C           -1.046886764176    -0.802174493083     0.285338147483    12.000000000000
         C           -1.269855764176     0.628923506917    -0.101972852517    12.000000000000
         C           -0.190784764176     1.436717506917    -0.060659852517    12.000000000000
         C            1.113354235824     0.841067506917     0.183577147483    12.000000000000
         C            1.245213235824    -0.489587493083    -0.020699852517    12.000000000000
         H           -0.974463764176    -0.909320493083     1.380498147483     1.007825032230
         H           -1.823855764176    -1.471892493083    -0.086131852517     1.007825032230
         H           -2.261432764176     0.979690506917    -0.371554852517     1.007825032230
         H           -0.259378764176     2.494693506917    -0.300701852517     1.007825032230
         H            1.966230735824     1.426921406917     0.511967347483     1.007825032230
         H            2.192435235824    -1.017523493083    -0.079852852517     1.007825032230

  Basis Set: AUG-CC-PVTZ
    Blend: AUG-CC-PVTZ
  Basis Set: (AUG-CC-PVTZ AUX)
    Blend: AUG-CC-PVTZ-JKFIT
	 Reference Energy          =    -267.7371808249108085 [Eh]
	 Singles Energy            =      -0.0000000000000000 [Eh]
	 Same-Spin Energy          =      -0.2741157392703798 [Eh]
	 Opposite-Spin Energy      =      -0.8868364053726876 [Eh]
	 Correlation Energy        =      -1.1609521446430673 [Eh]
	 Total Energy              =    -268.8981329695538989 [Eh]

	 ================> DF-SCS-MP2 Energies <==================
	-----------------------------------------------------------
	 SCS Same-Spin Scale       =       0.3333333333333333 [-]
	 SCS Opposite-Spin Scale   =       1.2000000000000000 [-]
	 SCS Same-Spin Energy      =      -0.0913719130901266 [Eh]
	 SCS Opposite-Spin Energy  =      -1.0642036864472251 [Eh]
	 SCS Correlation Energy    =      -1.1555755995373516 [Eh]
	 SCS Total Energy          =    -268.8927564244481800 [Eh]
	-----------------------------------------------------------

  Dipole Moment: [D]
     X:    -0.3560      Y:     0.6189      Z:     0.5309     Total:     0.8897

*** Psi4 exiting successfully. Buy a developer a beer!
