                               Psi4 1.3.2 release

  ==> Input File <==

--------------------------------------------------------------------------
#psi4
#
memory 32 gb

molecule  {
0 1
  O        0.1973020    -1.3235490    -0.2892290
  C       -1.0344600    -0.8194530     0.2767900
  C       -1.2574290     0.6116450    -0.1105210
  C       -0.1783580     1.4194390    -0.0692080
  C        1.1257810     0.8237890     0.1750290
  C        1.2576400    -0.5068660    -0.0292480
  H       -0.9620370    -0.9265990     1.3719500
  H       -1.8114290    -1.4891710    -0.0946800
  H       -2.2490060     0.9624120    -0.3801030
  H       -0.2469520     2.4774150    -0.3092500
  H        1.9691740     1.4035838     0.5521362
  H        2.2048620    -1.0348020    -0.0884010
units angstrom
no_reorient  #important for SAPT in psi4, default
symmetry c1  #important for SAPT in psi4, default
}

set PROPERTIES_ORIGIN ["COM"]
properties('MP2/aug-cc-pvtz', properties = ['dipole'])
--------------------------------------------------------------------------

    Molecular point group: c1
  Charge       = 0
  Multiplicity = 1
  Basis Set: AUG-CC-PVTZ
    Blend: AUG-CC-PVTZ
  Basis Set: (AUG-CC-PVTZ AUX)
    Blend: AUG-CC-PVTZ-JKFIT

    Orbital Energies [Eh]
    ---------------------

    Doubly Occupied:

       1A    -20.586924     2A    -11.300790     3A    -11.291179
       4A    -11.241488     5A    -11.231804     6A    -11.226726
       7A     -1.407217     8A     -1.096286     9A     -1.034294
      10A     -0.898405    11A     -0.840292    12A     -0.717542
      13A     -0.702416    14A     -0.649326    15A     -0.635523
      16A     -0.606080    17A     -0.571016    18A     -0.530924
      19A     -0.510626    20A     -0.470064    21A     -0.416091
      22A     -0.302788

  @DF-RHF Final Energy:  -267.73630519410091

   => Energetics <=

    Nuclear Repulsion Energy =            223.4739310653168616
    One-Electron Energy =                -805.8848712722189020
    Two-Electron Energy =                 314.6746350128011613
    Total Energy =                       -267.7363051941009076
  Basis Set: (AUG-CC-PVTZ AUX)
    Blend: AUG-CC-PVTZ-RI
    Molecular point group: c1

    Geometry (in Angstrom), charge = 0, multiplicity = 1:

       Center              X                  Y                   Z               Mass
    ------------   -----------------  -----------------  -----------------  -----------------
         O            0.184991733770    -1.306196061417    -0.281279305662    15.994914619570
         C           -1.046770266230    -0.802100061417     0.284739694338    12.000000000000
         C           -1.269739266230     0.628997938583    -0.102571305662    12.000000000000
         C           -0.190668266230     1.436791938583    -0.061258305662    12.000000000000
         C            1.113470733770     0.841141938583     0.182978694338    12.000000000000
         C            1.245329733770    -0.489513061417    -0.021298305662    12.000000000000
         H           -0.974347266230    -0.909246061417     1.379899694338     1.007825032230
         H           -1.823739266230    -1.471818061417    -0.086730305662     1.007825032230
         H           -2.261316266230     0.979764938583    -0.372153305662     1.007825032230
         H           -0.259262266230     2.494767938583    -0.301300305662     1.007825032230
         H            1.956863733770     1.420936738583     0.560085894338     1.007825032230
         H            2.192551733770    -1.017449061417    -0.080451305662     1.007825032230

  Basis Set: AUG-CC-PVTZ
    Blend: AUG-CC-PVTZ
  Basis Set: (AUG-CC-PVTZ AUX)
    Blend: AUG-CC-PVTZ-JKFIT
	 Reference Energy          =    -267.7363051941009076 [Eh]
	 Singles Energy            =      -0.0000000000000000 [Eh]
	 Same-Spin Energy          =      -0.2741401222633311 [Eh]
	 Opposite-Spin Energy      =      -0.8869380179031048 [Eh]
	 Correlation Energy        =      -1.1610781401664358 [Eh]
	 Total Energy              =    -268.8973833342673174 [Eh]

	 ================> DF-SCS-MP2 Energies <==================
	-----------------------------------------------------------
	 SCS Same-Spin Scale       =       0.3333333333333333 [-]
	 SCS Opposite-Spin Scale   =       1.2000000000000000 [-]
	 SCS Same-Spin Energy      =      -0.0913800407544437 [Eh]
	 SCS Opposite-Spin Energy  =      -1.0643256214837258 [Eh]
	 SCS Correlation Energy    =      -1.1557056622381694 [Eh]
	 SCS Total Energy          =    -268.8920108563390841 [Eh]
	-----------------------------------------------------------

  Dipole Moment: [D]
     X:    -0.3718      Y:     0.6112      Z:     0.5666     Total:     0.9126

*** Psi4 exiting successfully. Buy a developer a beer!
