                               Psi4 1.3.2 release

  ==> Input File <==

--------------------------------------------------------------------------
#psi4
#
memory 32 gb

molecule  {
0 1
  O        0.1973020    -1.3235490    -0.2892290
  C       -1.0344600    -0.8194530     0.2767900
  C       -1.2574290     0.6116450    -0.1105210
  C       -0.1783580     1.4194390    -0.0692080
  C        1.1257810     0.8237890     0.1750290
  C        1.2576400    -0.5068660    -0.0292480
  H       -0.9620370    -0.9265990     1.3719500
  H       -1.8114290    -1.4891710    -0.0946800
  H       -2.2490060     0.9624120    -0.3801030
  H       -0.2469520     2.4774150    -0.3092500
  H        2.0071080     1.4278200     0.3572680
  H        2.2120724    -1.0167134    -0.1864867
units angstrom
no_reorient  #important for SAPT in psi4, default
symmetry c1  #important for SAPT in psi4, default
}

set PROPERTIES_ORIGIN ["COM"]
properties('MP2/aug-cc-pvtz', properties = ['dipole'])
--------------------------------------------------------------------------

    Molecular point group: c1
  Charge       = 0
  Multiplicity = 1
  Basis Set: AUG-CC-PVTZ
    Blend: AUG-CC-PVTZ
  Basis Set: (AUG-CC-PVTZ AUX)
    Blend: AUG-CC-PVTZ-JKFIT

    Orbital Energies [Eh]
    ---------------------

    Doubly Occupied:

       1A    -20.588001     2A    -11.302037     3A    -11.290928
       4A    -11.242035     5A    -11.231019     6A    -11.226428
       7A     -1.407833     8A     -1.096509     9A     -1.034647
      10A     -0.898567    11A     -0.840232    12A     -0.717346
      13A     -0.702974    14A     -0.649212    15A     -0.634605
      16A     -0.605336    17A     -0.571988    18A     -0.529823
      19A     -0.508871    20A     -0.473494    21A     -0.418340
      22A     -0.301703

  @DF-RHF Final Energy:  -267.73711560120302

   => Energetics <=

    Nuclear Repulsion Energy =            223.4664820418196314
    One-Electron Energy =                -805.8633414001197934
    Two-Electron Energy =                 314.6597437570971465
    Total Energy =                       -267.7371156012030156
  Basis Set: (AUG-CC-PVTZ AUX)
    Blend: AUG-CC-PVTZ-RI
    Molecular point group: c1

    Geometry (in Angstrom), charge = 0, multiplicity = 1:

       Center              X                  Y                   Z               Mass
    ------------   -----------------  -----------------  -----------------  -----------------
         O            0.184437167434    -1.306715991005    -0.277680578666    15.994914619570
         C           -1.047324832566    -0.802619991005     0.288338421334    12.000000000000
         C           -1.270293832566     0.628478008995    -0.098972578666    12.000000000000
         C           -0.191222832566     1.436272008995    -0.057659578666    12.000000000000
         C            1.112916167434     0.840622008995     0.186577421334    12.000000000000
         C            1.244775167434    -0.490032991005    -0.017699578666    12.000000000000
         H           -0.974901832566    -0.909765991005     1.383498421334     1.007825032230
         H           -1.824293832566    -1.472337991005    -0.083131578666     1.007825032230
         H           -2.261870832566     0.979245008995    -0.368554578666     1.007825032230
         H           -0.259816832566     2.494248008995    -0.297701578666     1.007825032230
         H            1.994243167434     1.444653008995     0.368816421334     1.007825032230
         H            2.199207567434    -0.999880391005    -0.174938278666     1.007825032230

  Basis Set: AUG-CC-PVTZ
    Blend: AUG-CC-PVTZ
  Basis Set: (AUG-CC-PVTZ AUX)
    Blend: AUG-CC-PVTZ-JKFIT
	 Reference Energy          =    -267.7371156012030156 [Eh]
	 Singles Energy            =      -0.0000000000000000 [Eh]
	 Same-Spin Energy          =      -0.2743733624159486 [Eh]
	 Opposite-Spin Energy      =      -0.8870662740735271 [Eh]
	 Correlation Energy        =      -1.1614396364894757 [Eh]
	 Total Energy              =    -268.8985552376925057 [Eh]

	 ================> DF-SCS-MP2 Energies <==================
	-----------------------------------------------------------
	 SCS Same-Spin Scale       =       0.3333333333333333 [-]
	 SCS Opposite-Spin Scale   =       1.2000000000000000 [-]
	 SCS Same-Spin Energy      =      -0.0914577874719829 [Eh]
	 SCS Opposite-Spin Energy  =      -1.0644795288882325 [Eh]
	 SCS Correlation Energy    =      -1.1559373163602154 [Eh]
	 SCS Total Energy          =    -268.8930529175632387 [Eh]
	-----------------------------------------------------------

  Dipole Moment: [D]
     X:    -0.3173      Y:     0.6341      Z:     0.3492     Total:     0.7904

*** Psi4 exiting successfully. Buy a developer a beer!
