                               Psi4 1.3.2 release

  ==> Input File <==

--------------------------------------------------------------------------
#psi4
#
memory 32 gb

molecule  {
0 1
  O        0.1973020    -1.3235490    -0.2892290
  C       -1.0344600    -0.8194530     0.2767900
  C       -1.2574290     0.6116450    -0.1105210
  C       -0.1783580     1.4194390    -0.0692080
  C        1.1257810     0.8237890     0.1750290
  C        1.2576400    -0.5068660    -0.0292480
  H       -0.9620370    -0.9265990     1.3719500
  H       -1.8114290    -1.4891710    -0.0946800
  H       -2.2490060     0.9624120    -0.3801030
  H       -0.2469520     2.4774150    -0.3092500
  H        1.9502070     1.3914658     0.6495703
  H        2.2048620    -1.0348020    -0.0884010
units angstrom
no_reorient  #important for SAPT in psi4, default
symmetry c1  #important for SAPT in psi4, default
}

set PROPERTIES_ORIGIN ["COM"]
properties('MP2/aug-cc-pvtz', properties = ['dipole'])
--------------------------------------------------------------------------

    Molecular point group: c1
  Charge       = 0
  Multiplicity = 1
  Basis Set: AUG-CC-PVTZ
    Blend: AUG-CC-PVTZ
  Basis Set: (AUG-CC-PVTZ AUX)
    Blend: AUG-CC-PVTZ-JKFIT

    Orbital Energies [Eh]
    ---------------------

    Doubly Occupied:

       1A    -20.587278     2A    -11.301375     3A    -11.291389
       4A    -11.241384     5A    -11.232072     6A    -11.228119
       7A     -1.407543     8A     -1.096193     9A     -1.034137
      10A     -0.898245    11A     -0.839956    12A     -0.717156
      13A     -0.701199    14A     -0.648887    15A     -0.635745
      16A     -0.606232    17A     -0.570155    18A     -0.529890
      19A     -0.511518    20A     -0.469578    21A     -0.414286
      22A     -0.303221

  @DF-RHF Final Energy:  -267.73356407739209

   => Energetics <=

    Nuclear Repulsion Energy =            223.4133682250742083
    One-Electron Energy =                -805.7627512331680464
    Two-Electron Energy =                 314.6158189307017210
    Total Energy =                       -267.7335640773920886
  Basis Set: (AUG-CC-PVTZ AUX)
    Blend: AUG-CC-PVTZ-RI
    Molecular point group: c1

    Geometry (in Angstrom), charge = 0, multiplicity = 1:

       Center              X                  Y                   Z               Mass
    ------------   -----------------  -----------------  -----------------  -----------------
         O            0.185224729661    -1.306047200543    -0.282476213183    15.994914619570
         C           -1.046537270339    -0.801951200543     0.283542786817    12.000000000000
         C           -1.269506270339     0.629146799457    -0.103768213183    12.000000000000
         C           -0.190435270339     1.436940799457    -0.062455213183    12.000000000000
         C            1.113703729661     0.841290799457     0.181781786817    12.000000000000
         C            1.245562729661    -0.489364200543    -0.022495213183    12.000000000000
         H           -0.974114270339    -0.909097200543     1.378702786817     1.007825032230
         H           -1.823506270339    -1.471669200543    -0.087927213183     1.007825032230
         H           -2.261083270339     0.979913799457    -0.373350213183     1.007825032230
         H           -0.259029270339     2.494916799457    -0.302497213183     1.007825032230
         H            1.938129729661     1.408967599457     0.656323086817     1.007825032230
         H            2.192784729661    -1.017300200543    -0.081648213183     1.007825032230

  Basis Set: AUG-CC-PVTZ
    Blend: AUG-CC-PVTZ
  Basis Set: (AUG-CC-PVTZ AUX)
    Blend: AUG-CC-PVTZ-JKFIT
	 Reference Energy          =    -267.7335640773920886 [Eh]
	 Singles Energy            =      -0.0000000000000000 [Eh]
	 Same-Spin Energy          =      -0.2742258675622434 [Eh]
	 Opposite-Spin Energy      =      -0.8872577791183502 [Eh]
	 Correlation Energy        =      -1.1614836466805936 [Eh]
	 Total Energy              =    -268.8950477240726968 [Eh]

	 ================> DF-SCS-MP2 Energies <==================
	-----------------------------------------------------------
	 SCS Same-Spin Scale       =       0.3333333333333333 [-]
	 SCS Opposite-Spin Scale   =       1.2000000000000000 [-]
	 SCS Same-Spin Energy      =      -0.0914086225207478 [Eh]
	 SCS Opposite-Spin Energy  =      -1.0647093349420202 [Eh]
	 SCS Correlation Energy    =      -1.1561179574627680 [Eh]
	 SCS Total Energy          =    -268.8896820348548431 [Eh]
	-----------------------------------------------------------

  Dipole Moment: [D]
     X:    -0.4127      Y:     0.5866      Z:     0.6348     Total:     0.9578

*** Psi4 exiting successfully. Buy a developer a beer!
