                               Psi4 1.3.2 release

  ==> Input File <==

--------------------------------------------------------------------------
#psi4
#
memory 32 gb

molecule  {
0 1
  O        0.1973020    -1.3235490    -0.2892290
  C       -1.0344600    -0.8194530     0.2767900
  C       -1.2574290     0.6116450    -0.1105210
  C       -0.1783580     1.4194390    -0.0692080
  C        1.1257810     0.8237890     0.1750290
  C        1.2576400    -0.5068660    -0.0292480
  H       -0.9620370    -0.9265990     1.3719500
  H       -1.8114290    -1.4891710    -0.0946800
  H       -2.2490060     0.9624120    -0.3801030
  H       -0.2469520     2.4774150    -0.3092500
  H        2.0071080     1.4278200     0.3572680
  H        2.2156776    -1.0076691    -0.2355296
units angstrom
no_reorient  #important for SAPT in psi4, default
symmetry c1  #important for SAPT in psi4, default
}

set PROPERTIES_ORIGIN ["COM"]
properties('MP2/aug-cc-pvtz', properties = ['dipole'])
--------------------------------------------------------------------------

    Molecular point group: c1
  Charge       = 0
  Multiplicity = 1
  Basis Set: AUG-CC-PVTZ
    Blend: AUG-CC-PVTZ
  Basis Set: (AUG-CC-PVTZ AUX)
    Blend: AUG-CC-PVTZ-JKFIT

    Orbital Energies [Eh]
    ---------------------

    Doubly Occupied:

       1A    -20.588440     2A    -11.302883     3A    -11.290843
       4A    -11.242241     5A    -11.230949     6A    -11.226687
       7A     -1.408063     8A     -1.096638     9A     -1.034595
      10A     -0.898617    11A     -0.839824    12A     -0.716571
      13A     -0.702746    14A     -0.648927    15A     -0.635298
      16A     -0.605007    17A     -0.571900    18A     -0.528311
      19A     -0.509248    20A     -0.474527    21A     -0.418105
      22A     -0.301462

  @DF-RHF Final Energy:  -267.73610216994246

   => Energetics <=

    Nuclear Repulsion Energy =            223.4388022271083969
    One-Electron Energy =                -805.8060489128415611
    Two-Electron Energy =                 314.6311445157906519
    Total Energy =                       -267.7361021699424555
  Basis Set: (AUG-CC-PVTZ AUX)
    Blend: AUG-CC-PVTZ-RI
    Molecular point group: c1

    Geometry (in Angstrom), charge = 0, multiplicity = 1:

       Center              X                  Y                   Z               Mass
    ------------   -----------------  -----------------  -----------------  -----------------
         O            0.184392880156    -1.306827093695    -0.277078122074    15.994914619570
         C           -1.047369119844    -0.802731093695     0.288940877926    12.000000000000
         C           -1.270338119844     0.628366906305    -0.098370122074    12.000000000000
         C           -0.191267119844     1.436160906305    -0.057057122074    12.000000000000
         C            1.112871880156     0.840510906305     0.187179877926    12.000000000000
         C            1.244730880156    -0.490144093695    -0.017097122074    12.000000000000
         H           -0.974946119844    -0.909877093695     1.384100877926     1.007825032230
         H           -1.824338119844    -1.472449093695    -0.082529122074     1.007825032230
         H           -2.261915119844     0.979133906305    -0.367952122074     1.007825032230
         H           -0.259861119844     2.494136906305    -0.297099122074     1.007825032230
         H            1.994198880156     1.444541906305     0.369418877926     1.007825032230
         H            2.202768480156    -0.990947193695    -0.223378722074     1.007825032230

  Basis Set: AUG-CC-PVTZ
    Blend: AUG-CC-PVTZ
  Basis Set: (AUG-CC-PVTZ AUX)
    Blend: AUG-CC-PVTZ-JKFIT
	 Reference Energy          =    -267.7361021699424555 [Eh]
	 Singles Energy            =      -0.0000000000000000 [Eh]
	 Same-Spin Energy          =      -0.2745301020309635 [Eh]
	 Opposite-Spin Energy      =      -0.8873053304687823 [Eh]
	 Correlation Energy        =      -1.1618354324997457 [Eh]
	 Total Energy              =    -268.8979376024421981 [Eh]

	 ================> DF-SCS-MP2 Energies <==================
	-----------------------------------------------------------
	 SCS Same-Spin Scale       =       0.3333333333333333 [-]
	 SCS Opposite-Spin Scale   =       1.2000000000000000 [-]
	 SCS Same-Spin Energy      =      -0.0915100340103212 [Eh]
	 SCS Opposite-Spin Energy  =      -1.0647663965625387 [Eh]
	 SCS Correlation Energy    =      -1.1562764305728599 [Eh]
	 SCS Total Energy          =    -268.8923786005153147 [Eh]
	-----------------------------------------------------------

  Dipole Moment: [D]
     X:    -0.3170      Y:     0.6441      Z:     0.3152     Total:     0.7840

*** Psi4 exiting successfully. Buy a developer a beer!
