                               Psi4 1.3.2 release

  ==> Input File <==

--------------------------------------------------------------------------
#psi4
#
memory 32 gb

molecule  {
0 1
  O        0.1973020    -1.3235490    -0.2892290
  C       -1.0344600    -0.8194530     0.2767900
  C       -1.2574290     0.6116450    -0.1105210
  C       -0.1783580     1.4194390    -0.0692080
  C        1.1257810     0.8237890     0.1750290
  C        1.2576400    -0.5068660    -0.0292480
  H       -0.9620370    -0.9265990     1.3719500
  H       -1.8114290    -1.4891710    -0.0946800
  H       -2.2490060     0.9624120    -0.3801030
  H       -0.2469520     2.4774150    -0.3092500
  H        2.0071080     1.4278200     0.3572680
  H        2.2048620    -1.0348020    -0.0884010
units angstrom
no_reorient  #important for SAPT in psi4, default
symmetry c1  #important for SAPT in psi4, default
}

set PROPERTIES_ORIGIN ["COM"]
properties('MP2/aug-cc-pvtz', properties = ['dipole'])
--------------------------------------------------------------------------

    Molecular point group: c1
  Charge       = 0
  Multiplicity = 1
  Basis Set: AUG-CC-PVTZ
    Blend: AUG-CC-PVTZ
  Basis Set: (AUG-CC-PVTZ AUX)
    Blend: AUG-CC-PVTZ-JKFIT

    Orbital Energies [Eh]
    ---------------------

    Doubly Occupied:

       1A    -20.587062     2A    -11.300867     3A    -11.291143
       4A    -11.241707     5A    -11.231338     6A    -11.226151
       7A     -1.407335     8A     -1.096373     9A     -1.034606
      10A     -0.898524    11A     -0.840593    12A     -0.718251
      13A     -0.703360    14A     -0.649726    15A     -0.633131
      16A     -0.605615    17A     -0.572012    18A     -0.532503
      19A     -0.508143    20A     -0.471203    21A     -0.418857
      22A     -0.302241

  @DF-RHF Final Energy:  -267.73813892269322

   => Energetics <=

    Nuclear Repulsion Energy =            223.4961206017665063
    One-Electron Energy =                -805.9270416174148295
    Two-Electron Energy =                 314.6927820929550990
    Total Energy =                       -267.7381389226932242
  Basis Set: (AUG-CC-PVTZ AUX)
    Blend: AUG-CC-PVTZ-RI
    Molecular point group: c1

    Geometry (in Angstrom), charge = 0, multiplicity = 1:

       Center              X                  Y                   Z               Mass
    ------------   -----------------  -----------------  -----------------  -----------------
         O            0.184525741988    -1.306493785623    -0.278885490622    15.994914619570
         C           -1.047236258012    -0.802397785623     0.287133509378    12.000000000000
         C           -1.270205258012     0.628700214377    -0.100177490622    12.000000000000
         C           -0.191134258012     1.436494214377    -0.058864490622    12.000000000000
         C            1.113004741988     0.840844214377     0.185372509378    12.000000000000
         C            1.244863741988    -0.489810785623    -0.018904490622    12.000000000000
         H           -0.974813258012    -0.909543785623     1.382293509378     1.007825032230
         H           -1.824205258012    -1.472115785623    -0.084336490622     1.007825032230
         H           -2.261782258012     0.979467214377    -0.369759490622     1.007825032230
         H           -0.259728258012     2.494470214377    -0.298906490622     1.007825032230
         H            1.994331741988     1.444875214377     0.367611509378     1.007825032230
         H            2.192085741988    -1.017746785623    -0.078057490622     1.007825032230

  Basis Set: AUG-CC-PVTZ
    Blend: AUG-CC-PVTZ
  Basis Set: (AUG-CC-PVTZ AUX)
    Blend: AUG-CC-PVTZ-JKFIT
	 Reference Energy          =    -267.7381389226932242 [Eh]
	 Singles Energy            =      -0.0000000000000000 [Eh]
	 Same-Spin Energy          =      -0.2741184038155230 [Eh]
	 Opposite-Spin Energy      =      -0.8867446600966631 [Eh]
	 Correlation Energy        =      -1.1608630639121862 [Eh]
	 Total Energy              =    -268.8990019866054126 [Eh]

	 ================> DF-SCS-MP2 Energies <==================
	-----------------------------------------------------------
	 SCS Same-Spin Scale       =       0.3333333333333333 [-]
	 SCS Opposite-Spin Scale   =       1.2000000000000000 [-]
	 SCS Same-Spin Energy      =      -0.0913728012718410 [Eh]
	 SCS Opposite-Spin Energy  =      -1.0640935921159957 [Eh]
	 SCS Correlation Energy    =      -1.1554663933878369 [Eh]
	 SCS Total Energy          =    -268.8936053160810502 [Eh]
	-----------------------------------------------------------

  Dipole Moment: [D]
     X:    -0.3280      Y:     0.6228      Z:     0.4191     Total:     0.8192

*** Psi4 exiting successfully. Buy a developer a beer!
