                               Psi4 1.3.2 release

  ==> Input File <==

--------------------------------------------------------------------------
#psi4
#
memory 32 gb

molecule  {
0 1
  O        0.1973020    -1.3235490    -0.2892290
  C       -1.0344600    -0.8194530     0.2767900
  C       -1.2574290     0.6116450    -0.1105210
  C       -0.1783580     1.4194390    -0.0692080
  C        1.1257810     0.8237890     0.1750290
  C        1.2576400    -0.5068660    -0.0292480
  H       -0.9620370    -0.9265990     1.3719500
  H       -1.8114290    -1.4891710    -0.0946800
  H       -2.2490060     0.9624120    -0.3801030
  H       -0.2535779     2.4861986    -0.2604756
  H        2.0071080     1.4278200     0.3572680
  H        2.2048620    -1.0348020    -0.0884010
units angstrom
no_reorient  #important for SAPT in psi4, default
symmetry c1  #important for SAPT in psi4, default
}

set PROPERTIES_ORIGIN ["COM"]
properties('MP2/aug-cc-pvtz', properties = ['dipole'])
--------------------------------------------------------------------------

    Molecular point group: c1
  Charge       = 0
  Multiplicity = 1
  Basis Set: AUG-CC-PVTZ
    Blend: AUG-CC-PVTZ
  Basis Set: (AUG-CC-PVTZ AUX)
    Blend: AUG-CC-PVTZ-JKFIT

    Orbital Energies [Eh]
    ---------------------

    Doubly Occupied:

       1A    -20.587063     2A    -11.300843     3A    -11.291175
       4A    -11.241687     5A    -11.231312     6A    -11.226079
       7A     -1.407331     8A     -1.096350     9A     -1.034595
      10A     -0.898544    11A     -0.840610    12A     -0.718453
      13A     -0.703491    14A     -0.649674    15A     -0.632939
      16A     -0.605282    17A     -0.572139    18A     -0.532534
      19A     -0.508165    20A     -0.472150    21A     -0.418483
      22A     -0.301911

  @DF-RHF Final Energy:  -267.73808565568959

   => Energetics <=

    Nuclear Repulsion Energy =            223.4928494299451529
    One-Electron Energy =                -805.9202454177002437
    Two-Electron Energy =                 314.6893103320654745
    Total Energy =                       -267.7380856556895878
  Basis Set: (AUG-CC-PVTZ AUX)
    Blend: AUG-CC-PVTZ-RI
    Molecular point group: c1

    Geometry (in Angstrom), charge = 0, multiplicity = 1:

       Center              X                  Y                   Z               Mass
    ------------   -----------------  -----------------  -----------------  -----------------
         O            0.184607136382    -1.306601685803    -0.279484648885    15.994914619570
         C           -1.047154863618    -0.802505685803     0.286534351115    12.000000000000
         C           -1.270123863618     0.628592314197    -0.100776648885    12.000000000000
         C           -0.191052863618     1.436386314197    -0.059463648885    12.000000000000
         C            1.113086136382     0.840736314197     0.184773351115    12.000000000000
         C            1.244945136382    -0.489918685803    -0.019503648885    12.000000000000
         H           -0.974731863618    -0.909651685803     1.381694351115     1.007825032230
         H           -1.824123863618    -1.472223685803    -0.084935648885     1.007825032230
         H           -2.261700863618     0.979359314197    -0.370358648885     1.007825032230
         H           -0.266272763618     2.503145914197    -0.250731248885     1.007825032230
         H            1.994413136382     1.444767314197     0.367012351115     1.007825032230
         H            2.192167136382    -1.017854685803    -0.078656648885     1.007825032230

  Basis Set: AUG-CC-PVTZ
    Blend: AUG-CC-PVTZ
  Basis Set: (AUG-CC-PVTZ AUX)
    Blend: AUG-CC-PVTZ-JKFIT
	 Reference Energy          =    -267.7380856556895878 [Eh]
	 Singles Energy            =      -0.0000000000000000 [Eh]
	 Same-Spin Energy          =      -0.2741149331252322 [Eh]
	 Opposite-Spin Energy      =      -0.8867360462031503 [Eh]
	 Correlation Energy        =      -1.1608509793283825 [Eh]
	 Total Energy              =    -268.8989366350179466 [Eh]

	 ================> DF-SCS-MP2 Energies <==================
	-----------------------------------------------------------
	 SCS Same-Spin Scale       =       0.3333333333333333 [-]
	 SCS Opposite-Spin Scale   =       1.2000000000000000 [-]
	 SCS Same-Spin Energy      =      -0.0913716443750774 [Eh]
	 SCS Opposite-Spin Energy  =      -1.0640832554437802 [Eh]
	 SCS Correlation Energy    =      -1.1554548998188576 [Eh]
	 SCS Total Energy          =    -268.8935405555084230 [Eh]
	-----------------------------------------------------------

  Dipole Moment: [D]
     X:    -0.3343      Y:     0.6308      Z:     0.4508     Total:     0.8444

*** Psi4 exiting successfully. Buy a developer a beer!
