                               Psi4 1.3.2 release

  ==> Input File <==

--------------------------------------------------------------------------
#psi4
#
memory 32 gb

molecule  {
0 1
  O        0.1973020    -1.3235490    -0.2892290
  C       -1.0344600    -0.8194530     0.2767900
  C       -1.2574290     0.6116450    -0.1105210
  C       -0.1783580     1.4194390    -0.0692080
  C        1.1257810     0.8237890     0.1750290
  C        1.2576400    -0.5068660    -0.0292480
  H       -0.9620370    -0.9265990     1.3719500
  H       -1.8114290    -1.4891710    -0.0946800
  H       -2.2490060     0.9624120    -0.3801030
  H       -0.2469520     2.4774150    -0.3092500
  H        2.0071080     1.4278200     0.3572680
  H        2.2084672    -1.0257577    -0.1374439
units angstrom
no_reorient  #important for SAPT in psi4, default
symmetry c1  #important for SAPT in psi4, default
}

set PROPERTIES_ORIGIN ["COM"]
properties('MP2/aug-cc-pvtz', properties = ['dipole'])
--------------------------------------------------------------------------

    Molecular point group: c1
  Charge       = 0
  Multiplicity = 1
  Basis Set: AUG-CC-PVTZ
    Blend: AUG-CC-PVTZ
  Basis Set: (AUG-CC-PVTZ AUX)
    Blend: AUG-CC-PVTZ-JKFIT

    Orbital Energies [Eh]
    ---------------------

    Doubly Occupied:

       1A    -20.587541     2A    -11.301363     3A    -11.291029
       4A    -11.241856     5A    -11.231149     6A    -11.226249
       7A     -1.407590     8A     -1.096421     9A     -1.034651
      10A     -0.898537    11A     -0.840493    12A     -0.717917
      13A     -0.703175    14A     -0.649480    15A     -0.633877
      16A     -0.605543    17A     -0.572025    18A     -0.531216
      19A     -0.508502    20A     -0.472386    21A     -0.418590
      22A     -0.301963

  @DF-RHF Final Energy:  -267.73778459595246

   => Energetics <=

    Nuclear Repulsion Energy =            223.4856751056772453
    One-Electron Energy =                -805.9038139601168496
    Two-Electron Energy =                 314.6803542584871138
    Total Energy =                       -267.7377845959524620
  Basis Set: (AUG-CC-PVTZ AUX)
    Blend: AUG-CC-PVTZ-RI
    Molecular point group: c1

    Geometry (in Angstrom), charge = 0, multiplicity = 1:

       Center              X                  Y                   Z               Mass
    ------------   -----------------  -----------------  -----------------  -----------------
         O            0.184481454711    -1.306604888314    -0.278283034030    15.994914619570
         C           -1.047280545289    -0.802508888314     0.287735965970    12.000000000000
         C           -1.270249545289     0.628589111686    -0.099575034030    12.000000000000
         C           -0.191178545289     1.436383111686    -0.058262034030    12.000000000000
         C            1.112960454711     0.840733111686     0.185974965970    12.000000000000
         C            1.244819454711    -0.489921888314    -0.018302034030    12.000000000000
         H           -0.974857545289    -0.909654888314     1.382895965970     1.007825032230
         H           -1.824249545289    -1.472226888314    -0.083734034030     1.007825032230
         H           -2.261826545289     0.979356111686    -0.369157034030     1.007825032230
         H           -0.259772545289     2.494359111686    -0.298304034030     1.007825032230
         H            1.994287454711     1.444764111686     0.368213965970     1.007825032230
         H            2.195646654711    -1.008813588314    -0.126497934030     1.007825032230

  Basis Set: AUG-CC-PVTZ
    Blend: AUG-CC-PVTZ
  Basis Set: (AUG-CC-PVTZ AUX)
    Blend: AUG-CC-PVTZ-JKFIT
	 Reference Energy          =    -267.7377845959524620 [Eh]
	 Singles Energy            =      -0.0000000000000000 [Eh]
	 Same-Spin Energy          =      -0.2742358511999796 [Eh]
	 Opposite-Spin Energy      =      -0.8868794699698407 [Eh]
	 Correlation Energy        =      -1.1611153211698202 [Eh]
	 Total Energy              =    -268.8988999171222645 [Eh]

	 ================> DF-SCS-MP2 Energies <==================
	-----------------------------------------------------------
	 SCS Same-Spin Scale       =       0.3333333333333333 [-]
	 SCS Opposite-Spin Scale   =       1.2000000000000000 [-]
	 SCS Same-Spin Energy      =      -0.0914119503999932 [Eh]
	 SCS Opposite-Spin Energy  =      -1.0642553639638088 [Eh]
	 SCS Correlation Energy    =      -1.1556673143638021 [Eh]
	 SCS Total Energy          =    -268.8934519103162870 [Eh]
	-----------------------------------------------------------

  Dipole Moment: [D]
     X:    -0.3210      Y:     0.6270      Z:     0.3839     Total:     0.8022

*** Psi4 exiting successfully. Buy a developer a beer!
