                               Psi4 1.3.2 release

  ==> Input File <==

--------------------------------------------------------------------------
#psi4
#
memory 32 gb

molecule  {
0 1
  O        0.1973020    -1.3235490    -0.2892290
  C       -1.0344600    -0.8194530     0.2767900
  C       -1.2574290     0.6116450    -0.1105210
  C       -0.1783580     1.4194390    -0.0692080
  C        1.1257810     0.8237890     0.1750290
  C        1.2576400    -0.5068660    -0.0292480
  H       -0.9620370    -0.9265990     1.3719500
  H       -1.8114290    -1.4891710    -0.0946800
  H       -2.2490060     0.9624120    -0.3801030
  H       -0.2469520     2.4774150    -0.3092500
  H        2.0071080     1.4278200     0.3572680
  H        2.2228880    -0.9895805    -0.3336153
units angstrom
no_reorient  #important for SAPT in psi4, default
symmetry c1  #important for SAPT in psi4, default
}

set PROPERTIES_ORIGIN ["COM"]
properties('MP2/aug-cc-pvtz', properties = ['dipole'])
--------------------------------------------------------------------------

    Molecular point group: c1
  Charge       = 0
  Multiplicity = 1
  Basis Set: AUG-CC-PVTZ
    Blend: AUG-CC-PVTZ
  Basis Set: (AUG-CC-PVTZ AUX)
    Blend: AUG-CC-PVTZ-JKFIT

    Orbital Energies [Eh]
    ---------------------

    Doubly Occupied:

       1A    -20.589259     2A    -11.305065     3A    -11.290725
       4A    -11.242732     5A    -11.230979     6A    -11.227427
       7A     -1.408485     8A     -1.097008     9A     -1.034368
      10A     -0.898778    11A     -0.838646    12A     -0.714608
      13A     -0.702132    14A     -0.648333    15A     -0.636527
      16A     -0.604029    17A     -0.571573    18A     -0.524886
      19A     -0.510020    20A     -0.476373    21A     -0.417678
      22A     -0.301043

  @DF-RHF Final Energy:  -267.73288018468384

   => Energetics <=

    Nuclear Repulsion Energy =            223.3595538503309967
    One-Electron Energy =                -805.6435202900894410
    Two-Electron Energy =                 314.5510862550745514
    Total Energy =                       -267.7328801846838360
  Basis Set: (AUG-CC-PVTZ AUX)
    Blend: AUG-CC-PVTZ-RI
    Molecular point group: c1

    Geometry (in Angstrom), charge = 0, multiplicity = 1:

       Center              X                  Y                   Z               Mass
    ------------   -----------------  -----------------  -----------------  -----------------
         O            0.184304305602    -1.307049299077    -0.275873210119    15.994914619570
         C           -1.047457694398    -0.802953299077     0.290145789881    12.000000000000
         C           -1.270426694398     0.628144700923    -0.097165210119    12.000000000000
         C           -0.191355694398     1.435938700923    -0.055852210119    12.000000000000
         C            1.112783305602     0.840288700923     0.188384789881    12.000000000000
         C            1.244642305602    -0.490366299077    -0.015892210119    12.000000000000
         H           -0.975034694398    -0.910099299077     1.385305789881     1.007825032230
         H           -1.824426694398    -1.472671299077    -0.081324210119     1.007825032230
         H           -2.262003694398     0.978911700923    -0.366747210119     1.007825032230
         H           -0.259949694398     2.493914700923    -0.295894210119     1.007825032230
         H            1.994110305602     1.444319700923     0.370623789881     1.007825032230
         H            2.209890305602    -0.973080799077    -0.320259510119     1.007825032230

  Basis Set: AUG-CC-PVTZ
    Blend: AUG-CC-PVTZ
  Basis Set: (AUG-CC-PVTZ AUX)
    Blend: AUG-CC-PVTZ-JKFIT
	 Reference Energy          =    -267.7328801846838360 [Eh]
	 Singles Energy            =      -0.0000000000000000 [Eh]
	 Same-Spin Energy          =      -0.2748971145129023 [Eh]
	 Opposite-Spin Energy      =      -0.8879398080489780 [Eh]
	 Correlation Energy        =      -1.1628369225618802 [Eh]
	 Total Energy              =    -268.8957171072457299 [Eh]

	 ================> DF-SCS-MP2 Energies <==================
	-----------------------------------------------------------
	 SCS Same-Spin Scale       =       0.3333333333333333 [-]
	 SCS Opposite-Spin Scale   =       1.2000000000000000 [-]
	 SCS Same-Spin Energy      =      -0.0916323715043008 [Eh]
	 SCS Opposite-Spin Energy  =      -1.0655277696587735 [Eh]
	 SCS Correlation Energy    =      -1.1571601411630743 [Eh]
	 SCS Total Energy          =    -268.8900403258468828 [Eh]
	-----------------------------------------------------------

  Dipole Moment: [D]
     X:    -0.3258      Y:     0.6720      Z:     0.2501     Total:     0.7875

*** Psi4 exiting successfully. Buy a developer a beer!
