                               Psi4 1.3.2 release

  ==> Input File <==

--------------------------------------------------------------------------
#psi4
#
memory 32 gb

molecule  {
0 1
  O        0.1973020    -1.3235490    -0.2892290
  C       -1.0344600    -0.8194530     0.2767900
  C       -1.2574290     0.6116450    -0.1105210
  C       -0.1783580     1.4194390    -0.0692080
  C        1.1257810     0.8237890     0.1750290
  C        1.2576400    -0.5068660    -0.0292480
  H       -0.9620370    -0.9265990     1.3719500
  H       -1.8114290    -1.4891710    -0.0946800
  H       -2.2490060     0.9624120    -0.3801030
  H       -0.2469520     2.4774150    -0.3092500
  H        1.9881410     1.4157019     0.4547021
  H        2.2048620    -1.0348020    -0.0884010
units angstrom
no_reorient  #important for SAPT in psi4, default
symmetry c1  #important for SAPT in psi4, default
}

set PROPERTIES_ORIGIN ["COM"]
properties('MP2/aug-cc-pvtz', properties = ['dipole'])
--------------------------------------------------------------------------

    Molecular point group: c1
  Charge       = 0
  Multiplicity = 1
  Basis Set: AUG-CC-PVTZ
    Blend: AUG-CC-PVTZ
  Basis Set: (AUG-CC-PVTZ AUX)
    Blend: AUG-CC-PVTZ-JKFIT

    Orbital Energies [Eh]
    ---------------------

    Doubly Occupied:

       1A    -20.586852     2A    -11.300619     3A    -11.291097
       4A    -11.241598     5A    -11.231559     6A    -11.226058
       7A     -1.407147     8A     -1.096350     9A     -1.034457
      10A     -0.898505    11A     -0.840515    12A     -0.717952
      13A     -0.703150    14A     -0.649600    15A     -0.634624
      16A     -0.605879    17A     -0.571650    18A     -0.531795
      19A     -0.509492    20A     -0.470613    21A     -0.417620
      22A     -0.302460

  @DF-RHF Final Energy:  -267.73776956470749

   => Energetics <=

    Nuclear Repulsion Energy =            223.5021067052076660
    One-Electron Energy =                -805.9405700249542406
    Two-Electron Energy =                 314.7006937550390830
    Total Energy =                       -267.7377695647074916
  Basis Set: (AUG-CC-PVTZ AUX)
    Blend: AUG-CC-PVTZ-RI
    Molecular point group: c1

    Geometry (in Angstrom), charge = 0, multiplicity = 1:

       Center              X                  Y                   Z               Mass
    ------------   -----------------  -----------------  -----------------  -----------------
         O            0.184758737879    -1.306344923520    -0.280082398142    15.994914619570
         C           -1.047003262121    -0.802248923520     0.285936601858    12.000000000000
         C           -1.269972262121     0.628849076480    -0.101374398142    12.000000000000
         C           -0.190901262121     1.436643076480    -0.060061398142    12.000000000000
         C            1.113237737879     0.840993076480     0.184175601858    12.000000000000
         C            1.245096737879    -0.489661923520    -0.020101398142    12.000000000000
         H           -0.974580262121    -0.909394923520     1.381096601858     1.007825032230
         H           -1.823972262121    -1.471966923520    -0.085533398142     1.007825032230
         H           -2.261549262121     0.979616076480    -0.370956398142     1.007825032230
         H           -0.259495262121     2.494619076480    -0.300103398142     1.007825032230
         H            1.975597737879     1.432905976480     0.463848701858     1.007825032230
         H            2.192318737879    -1.017597923520    -0.079254398142     1.007825032230

  Basis Set: AUG-CC-PVTZ
    Blend: AUG-CC-PVTZ
  Basis Set: (AUG-CC-PVTZ AUX)
    Blend: AUG-CC-PVTZ-JKFIT
	 Reference Energy          =    -267.7377695647074916 [Eh]
	 Singles Energy            =      -0.0000000000000000 [Eh]
	 Same-Spin Energy          =      -0.2741039889671819 [Eh]
	 Opposite-Spin Energy      =      -0.8867711618679240 [Eh]
	 Correlation Energy        =      -1.1608751508351061 [Eh]
	 Total Energy              =    -268.8986447155426163 [Eh]

	 ================> DF-SCS-MP2 Energies <==================
	-----------------------------------------------------------
	 SCS Same-Spin Scale       =       0.3333333333333333 [-]
	 SCS Opposite-Spin Scale   =       1.2000000000000000 [-]
	 SCS Same-Spin Energy      =      -0.0913679963223940 [Eh]
	 SCS Opposite-Spin Energy  =      -1.0641253942415088 [Eh]
	 SCS Correlation Energy    =      -1.1554933905639027 [Eh]
	 SCS Total Energy          =    -268.8932629552713820 [Eh]
	-----------------------------------------------------------

  Dipole Moment: [D]
     X:    -0.3434      Y:     0.6235      Z:     0.4942     Total:     0.8665

*** Psi4 exiting successfully. Buy a developer a beer!
