                               Psi4 1.3.2 release

  ==> Input File <==

--------------------------------------------------------------------------
#psi4
#
memory 32 gb

molecule  {
0 1
  O        0.1973020    -1.3235490    -0.2892290
  C       -1.0344600    -0.8194530     0.2767900
  C       -1.2574290     0.6116450    -0.1105210
  C       -0.1783580     1.4194390    -0.0692080
  C        1.1257810     0.8237890     0.1750290
  C        1.2576400    -0.5068660    -0.0292480
  H       -0.9620370    -0.9265990     1.3719500
  H       -1.8114290    -1.4891710    -0.0946800
  H       -2.2490060     0.9624120    -0.3801030
  H       -0.2867075     2.5301167    -0.0166034
  H        2.0071080     1.4278200     0.3572680
  H        2.2048620    -1.0348020    -0.0884010
units angstrom
no_reorient  #important for SAPT in psi4, default
symmetry c1  #important for SAPT in psi4, default
}

set PROPERTIES_ORIGIN ["COM"]
properties('MP2/aug-cc-pvtz', properties = ['dipole'])
--------------------------------------------------------------------------

    Molecular point group: c1
  Charge       = 0
  Multiplicity = 1
  Basis Set: AUG-CC-PVTZ
    Blend: AUG-CC-PVTZ
  Basis Set: (AUG-CC-PVTZ AUX)
    Blend: AUG-CC-PVTZ-JKFIT

    Orbital Energies [Eh]
    ---------------------

    Doubly Occupied:

       1A    -20.587325     2A    -11.300656     3A    -11.291963
       4A    -11.244752     5A    -11.232624     6A    -11.225798
       7A     -1.407601     8A     -1.096093     9A     -1.034928
      10A     -0.897640    11A     -0.840024    12A     -0.716487
      13A     -0.704002    14A     -0.649706    15A     -0.632426
      16A     -0.600362    17A     -0.571007    18A     -0.532843
      19A     -0.508479    20A     -0.476690    21A     -0.414725
      22A     -0.300641

  @DF-RHF Final Energy:  -267.73291133557058

   => Energetics <=

    Nuclear Repulsion Energy =            223.3527712249780279
    One-Electron Energy =                -805.6378231421614373
    Two-Electron Energy =                 314.5521405816128322
    Total Energy =                       -267.7329113355705772
  Basis Set: (AUG-CC-PVTZ AUX)
    Blend: AUG-CC-PVTZ-RI
    Molecular point group: c1

    Geometry (in Angstrom), charge = 0, multiplicity = 1:

       Center              X                  Y                   Z               Mass
    ------------   -----------------  -----------------  -----------------  -----------------
         O            0.185014109581    -1.307141187929    -0.282480442659    15.994914619570
         C           -1.046747890419    -0.803045187929     0.283538557341    12.000000000000
         C           -1.269716890419     0.628052812071    -0.103772442659    12.000000000000
         C           -0.190645890419     1.435846812071    -0.062459442659    12.000000000000
         C            1.113493109581     0.840196812071     0.181777557341    12.000000000000
         C            1.245352109581    -0.490458187929    -0.022499442659    12.000000000000
         H           -0.974324890419    -0.910191187929     1.378698557341     1.007825032230
         H           -1.823716890419    -1.472763187929    -0.087931442659     1.007825032230
         H           -2.261293890419     0.978819812071    -0.373354442659     1.007825032230
         H           -0.298995390419     2.546524512071    -0.009854842659     1.007825032230
         H            1.994820109581     1.444227812071     0.364016557341     1.007825032230
         H            2.192574109581    -1.018394187929    -0.081652442659     1.007825032230

  Basis Set: AUG-CC-PVTZ
    Blend: AUG-CC-PVTZ
  Basis Set: (AUG-CC-PVTZ AUX)
    Blend: AUG-CC-PVTZ-JKFIT
	 Reference Energy          =    -267.7329113355705772 [Eh]
	 Singles Energy            =      -0.0000000000000000 [Eh]
	 Same-Spin Energy          =      -0.2743120387929472 [Eh]
	 Opposite-Spin Energy      =      -0.8873514501849383 [Eh]
	 Correlation Energy        =      -1.1616634889778856 [Eh]
	 Total Energy              =    -268.8945748245484424 [Eh]

	 ================> DF-SCS-MP2 Energies <==================
	-----------------------------------------------------------
	 SCS Same-Spin Scale       =       0.3333333333333333 [-]
	 SCS Opposite-Spin Scale   =       1.2000000000000000 [-]
	 SCS Same-Spin Energy      =      -0.0914373462643157 [Eh]
	 SCS Opposite-Spin Energy  =      -1.0648217402219260 [Eh]
	 SCS Correlation Energy    =      -1.1562590864862416 [Eh]
	 SCS Total Energy          =    -268.8891704220567931 [Eh]
	-----------------------------------------------------------

  Dipole Moment: [D]
     X:    -0.3756      Y:     0.6170      Z:     0.6153     Total:     0.9488

*** Psi4 exiting successfully. Buy a developer a beer!
