                               Psi4 1.3.2 release

  ==> Input File <==

--------------------------------------------------------------------------
#psi4
#
memory 32 gb

molecule  {
0 1
  O        0.1973020    -1.3235490    -0.2892290
  C       -1.0344600    -0.8194530     0.2767900
  C       -1.2574290     0.6116450    -0.1105210
  C       -0.1783580     1.4194390    -0.0692080
  C        1.1257810     0.8237890     0.1750290
  C        1.2576400    -0.5068660    -0.0292480
  H       -0.9620370    -0.9265990     1.3719500
  H       -1.8114290    -1.4891710    -0.0946800
  H       -2.2682450     0.9845432    -0.2844993
  H       -0.2469520     2.4774150    -0.3092500
  H        2.0071080     1.4278200     0.3572680
  H        2.2048620    -1.0348020    -0.0884010
units angstrom
no_reorient  #important for SAPT in psi4, default
symmetry c1  #important for SAPT in psi4, default
}

set PROPERTIES_ORIGIN ["COM"]
properties('MP2/aug-cc-pvtz', properties = ['dipole'])
--------------------------------------------------------------------------

    Molecular point group: c1
  Charge       = 0
  Multiplicity = 1
  Basis Set: AUG-CC-PVTZ
    Blend: AUG-CC-PVTZ
  Basis Set: (AUG-CC-PVTZ AUX)
    Blend: AUG-CC-PVTZ-JKFIT

    Orbital Energies [Eh]
    ---------------------

    Doubly Occupied:

       1A    -20.586940     2A    -11.300731     3A    -11.291324
       4A    -11.241788     5A    -11.232179     6A    -11.226097
       7A     -1.407280     8A     -1.096420     9A     -1.034595
      10A     -0.898546    11A     -0.840494    12A     -0.718319
      13A     -0.701795    14A     -0.649821    15A     -0.634143
      16A     -0.604713    17A     -0.572257    18A     -0.531558
      19A     -0.508952    20A     -0.470287    21A     -0.420194
      22A     -0.301635

  @DF-RHF Final Energy:  -267.73774246649702

   => Energetics <=

    Nuclear Repulsion Energy =            223.4623107799134800
    One-Electron Energy =                -805.8599744682136361
    Two-Electron Energy =                 314.6599212218030743
    Total Energy =                       -267.7377424664970249
  Basis Set: (AUG-CC-PVTZ AUX)
    Blend: AUG-CC-PVTZ-RI
    Molecular point group: c1

    Geometry (in Angstrom), charge = 0, multiplicity = 1:

       Center              X                  Y                   Z               Mass
    ------------   -----------------  -----------------  -----------------  -----------------
         O            0.184762079202    -1.306765651425    -0.280059913001    15.994914619570
         C           -1.046999920798    -0.802669651425     0.285959086999    12.000000000000
         C           -1.269968920798     0.628428348575    -0.101351913001    12.000000000000
         C           -0.190897920798     1.436222348575    -0.060038913001    12.000000000000
         C            1.113241079202     0.840572348575     0.184198086999    12.000000000000
         C            1.245100079202    -0.490082651425    -0.020078913001    12.000000000000
         H           -0.974576920798    -0.909815651425     1.381119086999     1.007825032230
         H           -1.823968920798    -1.472387651425    -0.085510913001     1.007825032230
         H           -2.280784920798     1.001326548575    -0.275330213001     1.007825032230
         H           -0.259491920798     2.494198348575    -0.300080913001     1.007825032230
         H            1.994568079202     1.444603348575     0.366437086999     1.007825032230
         H            2.192322079202    -1.018018651425    -0.079231913001     1.007825032230

  Basis Set: AUG-CC-PVTZ
    Blend: AUG-CC-PVTZ
  Basis Set: (AUG-CC-PVTZ AUX)
    Blend: AUG-CC-PVTZ-JKFIT
	 Reference Energy          =    -267.7377424664970249 [Eh]
	 Singles Energy            =      -0.0000000000000000 [Eh]
	 Same-Spin Energy          =      -0.2740677449327084 [Eh]
	 Opposite-Spin Energy      =      -0.8867509927375447 [Eh]
	 Correlation Energy        =      -1.1608187376702530 [Eh]
	 Total Energy              =    -268.8985612041672653 [Eh]

	 ================> DF-SCS-MP2 Energies <==================
	-----------------------------------------------------------
	 SCS Same-Spin Scale       =       0.3333333333333333 [-]
	 SCS Opposite-Spin Scale   =       1.2000000000000000 [-]
	 SCS Same-Spin Energy      =      -0.0913559149775695 [Eh]
	 SCS Opposite-Spin Energy  =      -1.0641011912850535 [Eh]
	 SCS Correlation Energy    =      -1.1554571062626231 [Eh]
	 SCS Total Energy          =    -268.8931995727596700 [Eh]
	-----------------------------------------------------------

  Dipole Moment: [D]
     X:    -0.3421      Y:     0.6435      Z:     0.4872     Total:     0.8767

*** Psi4 exiting successfully. Buy a developer a beer!
