                               Psi4 1.3.2 release

  ==> Input File <==

--------------------------------------------------------------------------
#psi4
#
memory 32 gb

molecule  {
0 1
  O        0.1973020    -1.3235490    -0.2892290
  C       -1.0344600    -0.8194530     0.2767900
  C       -1.2574290     0.6116450    -0.1105210
  C       -0.1783580     1.4194390    -0.0692080
  C        1.1257810     0.8237890     0.1750290
  C        1.2576400    -0.5068660    -0.0292480
  H       -0.9620370    -0.9265990     1.3719500
  H       -1.8114290    -1.4891710    -0.0946800
  H       -2.2490060     0.9624120    -0.3801030
  H       -0.2668297     2.5037659    -0.1629267
  H        2.0071080     1.4278200     0.3572680
  H        2.2048620    -1.0348020    -0.0884010
units angstrom
no_reorient  #important for SAPT in psi4, default
symmetry c1  #important for SAPT in psi4, default
}

set PROPERTIES_ORIGIN ["COM"]
properties('MP2/aug-cc-pvtz', properties = ['dipole'])
--------------------------------------------------------------------------

    Molecular point group: c1
  Charge       = 0
  Multiplicity = 1
  Basis Set: AUG-CC-PVTZ
    Blend: AUG-CC-PVTZ
  Basis Set: (AUG-CC-PVTZ AUX)
    Blend: AUG-CC-PVTZ-JKFIT

    Orbital Energies [Eh]
    ---------------------

    Doubly Occupied:

       1A    -20.587117     2A    -11.300779     3A    -11.291367
       4A    -11.242293     5A    -11.231554     6A    -11.225947
       7A     -1.407382     8A     -1.096270     9A     -1.034652
      10A     -0.898363    11A     -0.840503    12A     -0.718230
      13A     -0.703727    14A     -0.649624    15A     -0.632627
      16A     -0.603917    17A     -0.572090    18A     -0.532633
      19A     -0.508257    20A     -0.474036    21A     -0.417321
      22A     -0.301323

  @DF-RHF Final Energy:  -267.73706467612027

   => Energetics <=

    Nuclear Repulsion Energy =            223.4609026355582557
    One-Electron Energy =                -805.8559082766686288
    Two-Electron Energy =                 314.6579409649901322
    Total Energy =                       -267.7370646761202693
  Basis Set: (AUG-CC-PVTZ AUX)
    Blend: AUG-CC-PVTZ-RI
    Molecular point group: c1

    Geometry (in Angstrom), charge = 0, multiplicity = 1:

       Center              X                  Y                   Z               Mass
    ------------   -----------------  -----------------  -----------------  -----------------
         O            0.184769925170    -1.306817487390    -0.280682966641    15.994914619570
         C           -1.046992074830    -0.802721487390     0.285336033359    12.000000000000
         C           -1.269961074830     0.628376512610    -0.101974966641    12.000000000000
         C           -0.190890074830     1.436170512610    -0.060661966641    12.000000000000
         C            1.113248925170     0.840520512610     0.183575033359    12.000000000000
         C            1.245107925170    -0.490134487390    -0.020701966641    12.000000000000
         H           -0.974569074830    -0.909867487390     1.380496033359     1.007825032230
         H           -1.823961074830    -1.472439487390    -0.086133966641     1.007825032230
         H           -2.261538074830     0.979143512610    -0.371556966641     1.007825032230
         H           -0.279361774830     2.520497412610    -0.154380666641     1.007825032230
         H            1.994575925170     1.444551512610     0.365814033359     1.007825032230
         H            2.192329925170    -1.018070487390    -0.079854966641     1.007825032230

  Basis Set: AUG-CC-PVTZ
    Blend: AUG-CC-PVTZ
  Basis Set: (AUG-CC-PVTZ AUX)
    Blend: AUG-CC-PVTZ-JKFIT
	 Reference Energy          =    -267.7370646761202693 [Eh]
	 Singles Energy            =      -0.0000000000000000 [Eh]
	 Same-Spin Energy          =      -0.2741517285770096 [Eh]
	 Opposite-Spin Energy      =      -0.8868508355137100 [Eh]
	 Correlation Energy        =      -1.1610025640907198 [Eh]
	 Total Energy              =    -268.8980672402109917 [Eh]

	 ================> DF-SCS-MP2 Energies <==================
	-----------------------------------------------------------
	 SCS Same-Spin Scale       =       0.3333333333333333 [-]
	 SCS Opposite-Spin Scale   =       1.2000000000000000 [-]
	 SCS Same-Spin Energy      =      -0.0913839095256699 [Eh]
	 SCS Opposite-Spin Energy  =      -1.0642210026164520 [Eh]
	 SCS Correlation Energy    =      -1.1556049121421219 [Eh]
	 SCS Total Energy          =    -268.8926695882623790 [Eh]
	-----------------------------------------------------------

  Dipole Moment: [D]
     X:    -0.3492      Y:     0.6361      Z:     0.5159     Total:     0.8903

*** Psi4 exiting successfully. Buy a developer a beer!
