                               Psi4 1.3.2 release

  ==> Input File <==

--------------------------------------------------------------------------
#psi4
#
memory 32 gb

molecule  {
0 1
  O        0.1973020    -1.3235490    -0.2892290
  C       -1.0344600    -0.8194530     0.2767900
  C       -1.2574290     0.6116450    -0.1105210
  C       -0.1783580     1.4194390    -0.0692080
  C        1.1257810     0.8237890     0.1750290
  C        1.2576400    -0.5068660    -0.0292480
  H       -0.9620370    -0.9265990     1.3719500
  H       -1.8114290    -1.4891710    -0.0946800
  H       -2.2586255     0.9734776    -0.3323011
  H       -0.2469520     2.4774150    -0.3092500
  H        2.0071080     1.4278200     0.3572680
  H        2.2048620    -1.0348020    -0.0884010
units angstrom
no_reorient  #important for SAPT in psi4, default
symmetry c1  #important for SAPT in psi4, default
}

set PROPERTIES_ORIGIN ["COM"]
properties('MP2/aug-cc-pvtz', properties = ['dipole'])
--------------------------------------------------------------------------

    Molecular point group: c1
  Charge       = 0
  Multiplicity = 1
  Basis Set: AUG-CC-PVTZ
    Blend: AUG-CC-PVTZ
  Basis Set: (AUG-CC-PVTZ AUX)
    Blend: AUG-CC-PVTZ-JKFIT

    Orbital Energies [Eh]
    ---------------------

    Doubly Occupied:

       1A    -20.586986     2A    -11.300765     3A    -11.291238
       4A    -11.241700     5A    -11.231665     6A    -11.226102
       7A     -1.407292     8A     -1.096388     9A     -1.034603
      10A     -0.898529    11A     -0.840593    12A     -0.718283
      13A     -0.702679    14A     -0.649763    15A     -0.633694
      16A     -0.605238    17A     -0.572137    18A     -0.532046
      19A     -0.508552    20A     -0.470756    21A     -0.419548
      22A     -0.301928

  @DF-RHF Final Energy:  -267.73807486354673

   => Energetics <=

    Nuclear Repulsion Energy =            223.4833955427812384
    One-Electron Energy =                -805.9019765804009694
    Two-Electron Energy =                 314.6805061740730594
    Total Energy =                       -267.7380748635467285
  Basis Set: (AUG-CC-PVTZ AUX)
    Blend: AUG-CC-PVTZ-RI
    Molecular point group: c1

    Geometry (in Angstrom), charge = 0, multiplicity = 1:

       Center              X                  Y                   Z               Mass
    ------------   -----------------  -----------------  -----------------  -----------------
         O            0.184643910595    -1.306629718524    -0.279472702426    15.994914619570
         C           -1.047118089405    -0.802533718524     0.286546297574    12.000000000000
         C           -1.270087089405     0.628564281476    -0.100764702426    12.000000000000
         C           -0.191016089405     1.436358281476    -0.059451702426    12.000000000000
         C            1.113122910595     0.840708281476     0.184785297574    12.000000000000
         C            1.244981910595    -0.489946718524    -0.019491702426    12.000000000000
         H           -0.974695089405    -0.909679718524     1.381706297574     1.007825032230
         H           -1.824087089405    -1.472251718524    -0.084923702426     1.007825032230
         H           -2.271283589405     0.990396881476    -0.322544802426     1.007825032230
         H           -0.259610089405     2.494334281476    -0.299493702426     1.007825032230
         H            1.994449910595     1.444739281476     0.367024297574     1.007825032230
         H            2.192203910595    -1.017882718524    -0.078644702426     1.007825032230

  Basis Set: AUG-CC-PVTZ
    Blend: AUG-CC-PVTZ
  Basis Set: (AUG-CC-PVTZ AUX)
    Blend: AUG-CC-PVTZ-JKFIT
	 Reference Energy          =    -267.7380748635467285 [Eh]
	 Singles Energy            =      -0.0000000000000000 [Eh]
	 Same-Spin Energy          =      -0.2740851491009507 [Eh]
	 Opposite-Spin Energy      =      -0.8867289068379698 [Eh]
	 Correlation Energy        =      -1.1608140559389204 [Eh]
	 Total Energy              =    -268.8988889194856711 [Eh]

	 ================> DF-SCS-MP2 Energies <==================
	-----------------------------------------------------------
	 SCS Same-Spin Scale       =       0.3333333333333333 [-]
	 SCS Opposite-Spin Scale   =       1.2000000000000000 [-]
	 SCS Same-Spin Energy      =      -0.0913617163669836 [Eh]
	 SCS Opposite-Spin Energy  =      -1.0640746882055636 [Eh]
	 SCS Correlation Energy    =      -1.1554364045725471 [Eh]
	 SCS Total Energy          =    -268.8935112681192550 [Eh]
	-----------------------------------------------------------

  Dipole Moment: [D]
     X:    -0.3374      Y:     0.6336      Z:     0.4529     Total:     0.8488

*** Psi4 exiting successfully. Buy a developer a beer!
