                               Psi4 1.3.2 release

  ==> Input File <==

--------------------------------------------------------------------------
#psi4
#
memory 32 gb

molecule  {
0 1
  O        0.1973020    -1.3235490    -0.2892290
  C       -1.0344600    -0.8194530     0.2767900
  C       -1.2574290     0.6116450    -0.1105210
  C       -0.1783580     1.4194390    -0.0692080
  C        1.1257810     0.8237890     0.1750290
  C        1.2576400    -0.5068660    -0.0292480
  H       -0.9620370    -0.9265990     1.3719500
  H       -1.8114290    -1.4891710    -0.0946800
  H       -2.2490060     0.9624120    -0.3801030
  H       -0.2469520     2.4774150    -0.3092500
  H        2.0071080     1.4278200     0.3572680
  H        2.2192828    -0.9986248    -0.2845725
units angstrom
no_reorient  #important for SAPT in psi4, default
symmetry c1  #important for SAPT in psi4, default
}

set PROPERTIES_ORIGIN ["COM"]
properties('MP2/aug-cc-pvtz', properties = ['dipole'])
--------------------------------------------------------------------------

    Molecular point group: c1
  Charge       = 0
  Multiplicity = 1
  Basis Set: AUG-CC-PVTZ
    Blend: AUG-CC-PVTZ
  Basis Set: (AUG-CC-PVTZ AUX)
    Blend: AUG-CC-PVTZ-JKFIT

    Orbital Energies [Eh]
    ---------------------

    Doubly Occupied:

       1A    -20.588859     2A    -11.303896     3A    -11.290775
       4A    -11.242474     5A    -11.230936     6A    -11.227021
       7A     -1.408280     8A     -1.096804     9A     -1.034499
      10A     -0.898687    11A     -0.839288    12A     -0.715639
      13A     -0.702472    14A     -0.648631    15A     -0.635943
      16A     -0.604567    17A     -0.571762    18A     -0.526670
      19A     -0.509632    20A     -0.475486    21A     -0.417884
      22A     -0.301242

  @DF-RHF Final Energy:  -267.73470514866909

   => Energetics <=

    Nuclear Repulsion Energy =            223.4030054644625238
    One-Electron Energy =                -805.7325288689573881
    Two-Electron Energy =                 314.5948182558258281
    Total Energy =                       -267.7347051486690930
  Basis Set: (AUG-CC-PVTZ AUX)
    Blend: AUG-CC-PVTZ-RI
    Molecular point group: c1

    Geometry (in Angstrom), charge = 0, multiplicity = 1:

       Center              X                  Y                   Z               Mass
    ------------   -----------------  -----------------  -----------------  -----------------
         O            0.184348592879    -1.306938196386    -0.276475665482    15.994914619570
         C           -1.047413407121    -0.802842196386     0.289543334518    12.000000000000
         C           -1.270382407121     0.628255803614    -0.097767665482    12.000000000000
         C           -0.191311407121     1.436049803614    -0.056454665482    12.000000000000
         C            1.112827592879     0.840399803614     0.187782334518    12.000000000000
         C            1.244686592879    -0.490255196386    -0.016494665482    12.000000000000
         H           -0.974990407121    -0.909988196386     1.384703334518     1.007825032230
         H           -1.824382407121    -1.472560196386    -0.081926665482     1.007825032230
         H           -2.261959407121     0.979022803614    -0.367349665482     1.007825032230
         H           -0.259905407121     2.494025803614    -0.296496665482     1.007825032230
         H            1.994154592879     1.444430803614     0.370021334518     1.007825032230
         H            2.206329392879    -0.982013996386    -0.271819165482     1.007825032230

  Basis Set: AUG-CC-PVTZ
    Blend: AUG-CC-PVTZ
  Basis Set: (AUG-CC-PVTZ AUX)
    Blend: AUG-CC-PVTZ-JKFIT
	 Reference Energy          =    -267.7347051486690930 [Eh]
	 Singles Energy            =      -0.0000000000000000 [Eh]
	 Same-Spin Energy          =      -0.2747050697496691 [Eh]
	 Opposite-Spin Energy      =      -0.8875966393101963 [Eh]
	 Correlation Energy        =      -1.1623017090598653 [Eh]
	 Total Energy              =    -268.8970068577289680 [Eh]

	 ================> DF-SCS-MP2 Energies <==================
	-----------------------------------------------------------
	 SCS Same-Spin Scale       =       0.3333333333333333 [-]
	 SCS Opposite-Spin Scale   =       1.2000000000000000 [-]
	 SCS Same-Spin Energy      =      -0.0915683565832230 [Eh]
	 SCS Opposite-Spin Energy  =      -1.0651159671722354 [Eh]
	 SCS Correlation Energy    =      -1.1566843237554585 [Eh]
	 SCS Total Energy          =    -268.8913894724245779 [Eh]
	-----------------------------------------------------------

  Dipole Moment: [D]
     X:    -0.3198      Y:     0.6568      Z:     0.2821     Total:     0.7831

*** Psi4 exiting successfully. Buy a developer a beer!
