                               Psi4 1.3.2 release

  ==> Input File <==

--------------------------------------------------------------------------
#psi4
#
memory 32 gb

molecule  {
0 1
  O        0.1973020    -1.3235490    -0.2892290
  C       -1.0344600    -0.8194530     0.2767900
  C       -1.2574290     0.6116450    -0.1105210
  C       -0.1783580     1.4194390    -0.0692080
  C        1.1257810     0.8237890     0.1750290
  C        1.2576400    -0.5068660    -0.0292480
  H       -0.9620370    -0.9265990     1.3719500
  H       -1.8114290    -1.4891710    -0.0946800
  H       -2.2778645     0.9956087    -0.2366974
  H       -0.2469520     2.4774150    -0.3092500
  H        2.0071080     1.4278200     0.3572680
  H        2.2048620    -1.0348020    -0.0884010
units angstrom
no_reorient  #important for SAPT in psi4, default
symmetry c1  #important for SAPT in psi4, default
}

set PROPERTIES_ORIGIN ["COM"]
properties('MP2/aug-cc-pvtz', properties = ['dipole'])
--------------------------------------------------------------------------

    Molecular point group: c1
  Charge       = 0
  Multiplicity = 1
  Basis Set: AUG-CC-PVTZ
    Blend: AUG-CC-PVTZ
  Basis Set: (AUG-CC-PVTZ AUX)
    Blend: AUG-CC-PVTZ-JKFIT

    Orbital Energies [Eh]
    ---------------------

    Doubly Occupied:

       1A    -20.586925     2A    -11.300766     3A    -11.291402
       4A    -11.241970     5A    -11.232876     6A    -11.226135
       7A     -1.407299     8A     -1.096470     9A     -1.034581
      10A     -0.898577    11A     -0.840302    12A     -0.718365
      13A     -0.700729    14A     -0.649898    15A     -0.634474
      16A     -0.604046    17A     -0.572370    18A     -0.531036
      19A     -0.509341    20A     -0.469793    21A     -0.420796
      22A     -0.301365

  @DF-RHF Final Energy:  -267.73711565220316

   => Energetics <=

    Nuclear Repulsion Energy =            223.4330878420984163
    One-Electron Energy =                -805.8013758157949269
    Two-Electron Energy =                 314.6311723214933522
    Total Energy =                       -267.7371156522031583
  Basis Set: (AUG-CC-PVTZ AUX)
    Blend: AUG-CC-PVTZ-RI
    Molecular point group: c1

    Geometry (in Angstrom), charge = 0, multiplicity = 1:

       Center              X                  Y                   Z               Mass
    ------------   -----------------  -----------------  -----------------  -----------------
         O            0.184880247810    -1.306901583097    -0.280647124804    15.994914619570
         C           -1.046881752190    -0.802805583097     0.285371875196    12.000000000000
         C           -1.269850752190     0.628292416903    -0.101939124804    12.000000000000
         C           -0.190779752190     1.436086416903    -0.060626124804    12.000000000000
         C            1.113359247810     0.840436416903     0.183610875196    12.000000000000
         C            1.245218247810    -0.490218583097    -0.020666124804    12.000000000000
         H           -0.974458752190    -0.909951583097     1.380531875196     1.007825032230
         H           -1.823850752190    -1.472523583097    -0.086098124804     1.007825032230
         H           -2.290286252190     1.012256116903    -0.228115524804     1.007825032230
         H           -0.259373752190     2.494062416903    -0.300668124804     1.007825032230
         H            1.994686247810     1.444467416903     0.365849875196     1.007825032230
         H            2.192440247810    -1.018154583097    -0.079819124804     1.007825032230

  Basis Set: AUG-CC-PVTZ
    Blend: AUG-CC-PVTZ
  Basis Set: (AUG-CC-PVTZ AUX)
    Blend: AUG-CC-PVTZ-JKFIT
	 Reference Energy          =    -267.7371156522031583 [Eh]
	 Singles Energy            =      -0.0000000000000000 [Eh]
	 Same-Spin Energy          =      -0.2740662696038368 [Eh]
	 Opposite-Spin Energy      =      -0.8868124862825435 [Eh]
	 Correlation Energy        =      -1.1608787558863805 [Eh]
	 Total Energy              =    -268.8979944080895166 [Eh]

	 ================> DF-SCS-MP2 Energies <==================
	-----------------------------------------------------------
	 SCS Same-Spin Scale       =       0.3333333333333333 [-]
	 SCS Opposite-Spin Scale   =       1.2000000000000000 [-]
	 SCS Same-Spin Energy      =      -0.0913554232012789 [Eh]
	 SCS Opposite-Spin Energy  =      -1.0641749835390522 [Eh]
	 SCS Correlation Energy    =      -1.1555304067403311 [Eh]
	 SCS Total Energy          =    -268.8926460589435123 [Eh]
	-----------------------------------------------------------

  Dipole Moment: [D]
     X:    -0.3421      Y:     0.6526      Z:     0.5217     Total:     0.9028

*** Psi4 exiting successfully. Buy a developer a beer!
