                               Psi4 1.3.2 release

  ==> Input File <==

--------------------------------------------------------------------------
#psi4
#
memory 32 gb

molecule  {
0 1
  O        0.1973020    -1.3235490    -0.2892290
  C       -1.0344600    -0.8194530     0.2767900
  C       -1.2574290     0.6116450    -0.1105210
  C       -0.1783580     1.4194390    -0.0692080
  C        1.1257810     0.8237890     0.1750290
  C        1.2576400    -0.5068660    -0.0292480
  H       -0.9620370    -0.9265990     1.3719500
  H       -1.8114290    -1.4891710    -0.0946800
  H       -2.2490060     0.9624120    -0.3801030
  H       -0.2469520     2.4774150    -0.3092500
  H        2.0071080     1.4278200     0.3572680
  H        2.2264932    -0.9805361    -0.3826582
units angstrom
no_reorient  #important for SAPT in psi4, default
symmetry c1  #important for SAPT in psi4, default
}

set PROPERTIES_ORIGIN ["COM"]
properties('MP2/aug-cc-pvtz', properties = ['dipole'])
--------------------------------------------------------------------------

    Molecular point group: c1
  Charge       = 0
  Multiplicity = 1
  Basis Set: AUG-CC-PVTZ
    Blend: AUG-CC-PVTZ
  Basis Set: (AUG-CC-PVTZ AUX)
    Blend: AUG-CC-PVTZ-JKFIT

    Orbital Energies [Eh]
    ---------------------

    Doubly Occupied:

       1A    -20.589641     2A    -11.306381     3A    -11.290695
       4A    -11.243015     5A    -11.231078     6A    -11.227902
       7A     -1.408681     8A     -1.097247     9A     -1.034207
      10A     -0.898891    11A     -0.837925    12A     -0.713545
      13A     -0.701700    14A     -0.648045    15A     -0.637037
      16A     -0.603404    17A     -0.571333    18A     -0.522946
      19A     -0.510413    20A     -0.477185    21A     -0.417483
      22A     -0.300869

  @DF-RHF Final Energy:  -267.73058227618918

   => Energetics <=

    Nuclear Repulsion Energy =            223.3089821371653159
    One-Electron Energy =                -805.5398836720455620
    Two-Electron Energy =                 314.5003192586910359
    Total Energy =                       -267.7305822761891818
  Basis Set: (AUG-CC-PVTZ AUX)
    Blend: AUG-CC-PVTZ-RI
    Molecular point group: c1

    Geometry (in Angstrom), charge = 0, multiplicity = 1:

       Center              X                  Y                   Z               Mass
    ------------   -----------------  -----------------  -----------------  -----------------
         O            0.184260018325    -1.307160402996    -0.275270753527    15.994914619570
         C           -1.047501981675    -0.803064402996     0.290748246473    12.000000000000
         C           -1.270470981675     0.628033597004    -0.096562753527    12.000000000000
         C           -0.191399981675     1.435827597004    -0.055249753527    12.000000000000
         C            1.112739018325     0.840177597004     0.188987246473    12.000000000000
         C            1.244598018325    -0.490477402996    -0.015289753527    12.000000000000
         H           -0.975078981675    -0.910210402996     1.385908246473     1.007825032230
         H           -1.824470981675    -1.472782402996    -0.080721753527     1.007825032230
         H           -2.262047981675     0.978800597004    -0.366144753527     1.007825032230
         H           -0.259993981675     2.493803597004    -0.295291753527     1.007825032230
         H            1.994066018325     1.444208597004     0.371226246473     1.007825032230
         H            2.213451218325    -0.964147502996    -0.368699953527     1.007825032230

  Basis Set: AUG-CC-PVTZ
    Blend: AUG-CC-PVTZ
  Basis Set: (AUG-CC-PVTZ AUX)
    Blend: AUG-CC-PVTZ-JKFIT
	 Reference Energy          =    -267.7305822761891818 [Eh]
	 Singles Energy            =      -0.0000000000000000 [Eh]
	 Same-Spin Energy          =      -0.2751049546650618 [Eh]
	 Opposite-Spin Energy      =      -0.8883340243462692 [Eh]
	 Correlation Energy        =      -1.1634389790113309 [Eh]
	 Total Energy              =    -268.8940212552005278 [Eh]

	 ================> DF-SCS-MP2 Energies <==================
	-----------------------------------------------------------
	 SCS Same-Spin Scale       =       0.3333333333333333 [-]
	 SCS Opposite-Spin Scale   =       1.2000000000000000 [-]
	 SCS Same-Spin Energy      =      -0.0917016515550206 [Eh]
	 SCS Opposite-Spin Energy  =      -1.0660008292155230 [Eh]
	 SCS Correlation Energy    =      -1.1577024807705436 [Eh]
	 SCS Total Energy          =    -268.8882847569597061 [Eh]
	-----------------------------------------------------------

  Dipole Moment: [D]
     X:    -0.3349      Y:     0.6895      Z:     0.2191     Total:     0.7972

*** Psi4 exiting successfully. Buy a developer a beer!
