                               Psi4 1.3.2 release

  ==> Input File <==

--------------------------------------------------------------------------
#psi4
#
memory 32 gb

molecule  {
0 1
  O        0.1973020    -1.3235490    -0.2892290
  C       -1.0344600    -0.8194530     0.2767900
  C       -1.2574290     0.6116450    -0.1105210
  C       -0.1783580     1.4194390    -0.0692080
  C        1.1257810     0.8237890     0.1750290
  C        1.2576400    -0.5068660    -0.0292480
  H       -0.9620370    -0.9265990     1.3719500
  H       -1.8114290    -1.4891710    -0.0946800
  H       -2.2490060     0.9624120    -0.3801030
  H       -0.2469520     2.4774150    -0.3092500
  H        1.9976245     1.4217610     0.4059851
  H        2.2048620    -1.0348020    -0.0884010
units angstrom
no_reorient  #important for SAPT in psi4, default
symmetry c1  #important for SAPT in psi4, default
}

set PROPERTIES_ORIGIN ["COM"]
properties('MP2/aug-cc-pvtz', properties = ['dipole'])
--------------------------------------------------------------------------

    Molecular point group: c1
  Charge       = 0
  Multiplicity = 1
  Basis Set: AUG-CC-PVTZ
    Blend: AUG-CC-PVTZ
  Basis Set: (AUG-CC-PVTZ AUX)
    Blend: AUG-CC-PVTZ-JKFIT

    Orbital Energies [Eh]
    ---------------------

    Doubly Occupied:

       1A    -20.586922     2A    -11.300691     3A    -11.291104
       4A    -11.241653     5A    -11.231445     6A    -11.226008
       7A     -1.407209     8A     -1.096367     9A     -1.034534
      10A     -0.898525    11A     -0.840573    12A     -0.718120
      13A     -0.703319    14A     -0.649677    15A     -0.633947
      16A     -0.605756    17A     -0.571868    18A     -0.532169
      19A     -0.508845    20A     -0.470905    21A     -0.418275
      22A     -0.302337

  @DF-RHF Final Energy:  -267.73808829967862

   => Energetics <=

    Nuclear Repulsion Energy =            223.5034188607856720
    One-Electron Energy =                -805.9425150279668060
    Two-Electron Energy =                 314.7010078675024829
    Total Energy =                       -267.7380882996786227
  Basis Set: (AUG-CC-PVTZ AUX)
    Blend: AUG-CC-PVTZ-RI
    Molecular point group: c1

    Geometry (in Angstrom), charge = 0, multiplicity = 1:

       Center              X                  Y                   Z               Mass
    ------------   -----------------  -----------------  -----------------  -----------------
         O            0.184642239933    -1.306419355186    -0.279483944996    15.994914619570
         C           -1.047119760067    -0.802323355186     0.286535055004    12.000000000000
         C           -1.270088760067     0.628774644814    -0.100775944996    12.000000000000
         C           -0.191017760067     1.436568644814    -0.059462944996    12.000000000000
         C            1.113121239933     0.840918644814     0.184774055004    12.000000000000
         C            1.244980239933    -0.489736355186    -0.019502944996    12.000000000000
         H           -0.974696760067    -0.909469355186     1.381695055004     1.007825032230
         H           -1.824088760067    -1.472041355186    -0.084934944996     1.007825032230
         H           -2.261665760067     0.979541644814    -0.370357944996     1.007825032230
         H           -0.259611760067     2.494544644814    -0.299504944996     1.007825032230
         H            1.984964739933     1.438890644814     0.415730155004     1.007825032230
         H            2.192202239933    -1.017672355186    -0.078655944996     1.007825032230

  Basis Set: AUG-CC-PVTZ
    Blend: AUG-CC-PVTZ
  Basis Set: (AUG-CC-PVTZ AUX)
    Blend: AUG-CC-PVTZ-JKFIT
	 Reference Energy          =    -267.7380882996786227 [Eh]
	 Singles Energy            =      -0.0000000000000000 [Eh]
	 Same-Spin Energy          =      -0.2741049094130946 [Eh]
	 Opposite-Spin Energy      =      -0.8867407343832578 [Eh]
	 Correlation Energy        =      -1.1608456437963524 [Eh]
	 Total Energy              =    -268.8989339434749581 [Eh]

	 ================> DF-SCS-MP2 Energies <==================
	-----------------------------------------------------------
	 SCS Same-Spin Scale       =       0.3333333333333333 [-]
	 SCS Opposite-Spin Scale   =       1.2000000000000000 [-]
	 SCS Same-Spin Energy      =      -0.0913683031376982 [Eh]
	 SCS Opposite-Spin Energy  =      -1.0640888812599094 [Eh]
	 SCS Correlation Energy    =      -1.1554571843976076 [Eh]
	 SCS Total Energy          =    -268.8935454840762418 [Eh]
	-----------------------------------------------------------

  Dipole Moment: [D]
     X:    -0.3340      Y:     0.6248      Z:     0.4569     Total:     0.8430

*** Psi4 exiting successfully. Buy a developer a beer!
