                               Psi4 1.3.2 release

  ==> Input File <==

--------------------------------------------------------------------------
#psi4
#
memory 32 gb

molecule  {
0 1
  O        0.1973020    -1.3235490    -0.2892290
  C       -1.0344600    -0.8194530     0.2767900
  C       -1.2574290     0.6116450    -0.1105210
  C       -0.1783580     1.4194390    -0.0692080
  C        1.1257810     0.8237890     0.1750290
  C        1.2576400    -0.5068660    -0.0292480
  H       -0.9620370    -0.9265990     1.3719500
  H       -1.8114290    -1.4891710    -0.0946800
  H       -2.2490060     0.9624120    -0.3801030
  H       -0.2734556     2.5125495    -0.1141523
  H        2.0071080     1.4278200     0.3572680
  H        2.2048620    -1.0348020    -0.0884010
units angstrom
no_reorient  #important for SAPT in psi4, default
symmetry c1  #important for SAPT in psi4, default
}

set PROPERTIES_ORIGIN ["COM"]
properties('MP2/aug-cc-pvtz', properties = ['dipole'])
--------------------------------------------------------------------------

    Molecular point group: c1
  Charge       = 0
  Multiplicity = 1
  Basis Set: AUG-CC-PVTZ
    Blend: AUG-CC-PVTZ
  Basis Set: (AUG-CC-PVTZ AUX)
    Blend: AUG-CC-PVTZ-JKFIT

    Orbital Energies [Eh]
    ---------------------

    Doubly Occupied:

       1A    -20.587170     2A    -11.300740     3A    -11.291525
       4A    -11.242912     5A    -11.231819     6A    -11.225889
       7A     -1.407436     8A     -1.096215     9A     -1.034719
      10A     -0.898173    11A     -0.840382    12A     -0.717815
      13A     -0.703833    14A     -0.649629    15A     -0.632520
      16A     -0.602906    17A     -0.571887    18A     -0.532697
      19A     -0.508323    20A     -0.474953    21A     -0.416557
      22A     -0.301068

  @DF-RHF Final Energy:  -267.73606318869162

   => Energetics <=

    Nuclear Repulsion Energy =            223.4325548009322802
    One-Electron Energy =                -805.7989006732840380
    Two-Electron Energy =                 314.6302826836601412
    Total Energy =                       -267.7360631886916167
  Basis Set: (AUG-CC-PVTZ AUX)
    Blend: AUG-CC-PVTZ-RI
    Molecular point group: c1

    Geometry (in Angstrom), charge = 0, multiplicity = 1:

       Center              X                  Y                   Z               Mass
    ------------   -----------------  -----------------  -----------------  -----------------
         O            0.184851319565    -1.306925387570    -0.281282124904    15.994914619570
         C           -1.046910680435    -0.802829387570     0.284736875096    12.000000000000
         C           -1.269879680435     0.628268612430    -0.102574124904    12.000000000000
         C           -0.190808680435     1.436062612430    -0.061261124904    12.000000000000
         C            1.113330319565     0.840412612430     0.182975875096    12.000000000000
         C            1.245189319565    -0.490242387570    -0.021301124904    12.000000000000
         H           -0.974487680435    -0.909975387570     1.379896875096     1.007825032230
         H           -1.823879680435    -1.472547387570    -0.086733124904     1.007825032230
         H           -2.261456680435     0.979035612430    -0.372156124904     1.007825032230
         H           -0.285906280435     2.529173112430    -0.106205424904     1.007825032230
         H            1.994657319565     1.444443612430     0.365214875096     1.007825032230
         H            2.192411319565    -1.018178387570    -0.080454124904     1.007825032230

  Basis Set: AUG-CC-PVTZ
    Blend: AUG-CC-PVTZ
  Basis Set: (AUG-CC-PVTZ AUX)
    Blend: AUG-CC-PVTZ-JKFIT
	 Reference Energy          =    -267.7360631886916167 [Eh]
	 Singles Energy            =      -0.0000000000000000 [Eh]
	 Same-Spin Energy          =      -0.2741914673249244 [Eh]
	 Opposite-Spin Energy      =      -0.8869735235361234 [Eh]
	 Correlation Energy        =      -1.1611649908610477 [Eh]
	 Total Energy              =    -268.8972281795526555 [Eh]

	 ================> DF-SCS-MP2 Energies <==================
	-----------------------------------------------------------
	 SCS Same-Spin Scale       =       0.3333333333333333 [-]
	 SCS Opposite-Spin Scale   =       1.2000000000000000 [-]
	 SCS Same-Spin Energy      =      -0.0913971557749748 [Eh]
	 SCS Opposite-Spin Energy  =      -1.0643682282433480 [Eh]
	 SCS Correlation Energy    =      -1.1557653840183228 [Eh]
	 SCS Total Energy          =    -268.8918285727099260 [Eh]
	-----------------------------------------------------------

  Dipole Moment: [D]
     X:    -0.3575      Y:     0.6333      Z:     0.5490     Total:     0.9112

*** Psi4 exiting successfully. Buy a developer a beer!
