                               Psi4 1.3.2 release

  ==> Input File <==

--------------------------------------------------------------------------
#psi4
#
memory 32 gb

molecule  {
0 1
  O        0.1973020    -1.3235490    -0.2892290
  C       -1.0344600    -0.8194530     0.2767900
  C       -1.2574290     0.6116450    -0.1105210
  C       -0.1783580     1.4194390    -0.0692080
  C        1.1257810     0.8237890     0.1750290
  C        1.2576400    -0.5068660    -0.0292480
  H       -0.9620370    -0.9265990     1.3719500
  H       -1.8114290    -1.4891710    -0.0946800
  H       -2.2490060     0.9624120    -0.3801030
  H       -0.2800815     2.5213331    -0.0653778
  H        2.0071080     1.4278200     0.3572680
  H        2.2048620    -1.0348020    -0.0884010
units angstrom
no_reorient  #important for SAPT in psi4, default
symmetry c1  #important for SAPT in psi4, default
}

set PROPERTIES_ORIGIN ["COM"]
properties('MP2/aug-cc-pvtz', properties = ['dipole'])
--------------------------------------------------------------------------

    Molecular point group: c1
  Charge       = 0
  Multiplicity = 1
  Basis Set: AUG-CC-PVTZ
    Blend: AUG-CC-PVTZ
  Basis Set: (AUG-CC-PVTZ AUX)
    Blend: AUG-CC-PVTZ-JKFIT

    Orbital Energies [Eh]
    ---------------------

    Doubly Occupied:

       1A    -20.587239     2A    -11.300698     3A    -11.291724
       4A    -11.243735     5A    -11.232177     6A    -11.225838
       7A     -1.407509     8A     -1.096155     9A     -1.034811
      10A     -0.897927    11A     -0.840220    12A     -0.717223
      13A     -0.703927    14A     -0.649655    15A     -0.632452
      16A     -0.601707    17A     -0.571536    18A     -0.532768
      19A     -0.508399    20A     -0.475841    21A     -0.415687
      22A     -0.300840

  @DF-RHF Final Energy:  -267.73469239687705

   => Energetics <=

    Nuclear Repulsion Energy =            223.3963672787926669
    One-Electron Energy =                -805.7259793927274814
    Two-Electron Energy =                 314.5949197170577349
    Total Energy =                       -267.7346923968770511
  Basis Set: (AUG-CC-PVTZ AUX)
    Blend: AUG-CC-PVTZ-RI
    Molecular point group: c1

    Geometry (in Angstrom), charge = 0, multiplicity = 1:

       Center              X                  Y                   Z               Mass
    ------------   -----------------  -----------------  -----------------  -----------------
         O            0.184932713959    -1.307033287750    -0.281881284396    15.994914619570
         C           -1.046829286041    -0.802937287750     0.284137715604    12.000000000000
         C           -1.269798286041     0.628160712250    -0.103173284396    12.000000000000
         C           -0.190727286041     1.435954712250    -0.061860284396    12.000000000000
         C            1.113411713959     0.840304712250     0.182376715604    12.000000000000
         C            1.245270713959    -0.490350287750    -0.021900284396    12.000000000000
         H           -0.974406286041    -0.910083287750     1.379297715604     1.007825032230
         H           -1.823798286041    -1.472655287750    -0.087332284396     1.007825032230
         H           -2.261375286041     0.978927712250    -0.372755284396     1.007825032230
         H           -0.292450786041     2.537848812250    -0.058030084396     1.007825032230
         H            1.994738713959     1.444335712250     0.364615715604     1.007825032230
         H            2.192492713959    -1.018286287750    -0.081053284396     1.007825032230

  Basis Set: AUG-CC-PVTZ
    Blend: AUG-CC-PVTZ
  Basis Set: (AUG-CC-PVTZ AUX)
    Blend: AUG-CC-PVTZ-JKFIT
	 Reference Energy          =    -267.7346923968770511 [Eh]
	 Singles Energy            =      -0.0000000000000000 [Eh]
	 Same-Spin Energy          =      -0.2742450445360285 [Eh]
	 Opposite-Spin Energy      =      -0.8871402197804574 [Eh]
	 Correlation Energy        =      -1.1613852643164859 [Eh]
	 Total Energy              =    -268.8960776611935444 [Eh]

	 ================> DF-SCS-MP2 Energies <==================
	-----------------------------------------------------------
	 SCS Same-Spin Scale       =       0.3333333333333333 [-]
	 SCS Opposite-Spin Scale   =       1.2000000000000000 [-]
	 SCS Same-Spin Energy      =      -0.0914150148453428 [Eh]
	 SCS Opposite-Spin Energy  =      -1.0645682637365488 [Eh]
	 SCS Correlation Energy    =      -1.1559832785818915 [Eh]
	 SCS Total Energy          =    -268.8906756754589651 [Eh]
	-----------------------------------------------------------

  Dipole Moment: [D]
     X:    -0.3664      Y:     0.6269      Z:     0.5821     Total:     0.9306

*** Psi4 exiting successfully. Buy a developer a beer!
