                               Psi4 1.3.2 release

  ==> Input File <==

--------------------------------------------------------------------------
#psi4
#
memory 32 gb

molecule  {
0 1
  O        0.1973020    -1.3235490    -0.2892290
  C       -1.0344600    -0.8194530     0.2767900
  C       -1.2574290     0.6116450    -0.1105210
  C       -0.1783580     1.4194390    -0.0692080
  C        1.1257810     0.8237890     0.1750290
  C        1.2576400    -0.5068660    -0.0292480
  H       -0.9620370    -0.9265990     1.3719500
  H       -1.8114290    -1.4891710    -0.0946800
  H       -2.2971036     1.0177399    -0.1410937
  H       -0.2469520     2.4774150    -0.3092500
  H        2.0071080     1.4278200     0.3572680
  H        2.2048620    -1.0348020    -0.0884010
units angstrom
no_reorient  #important for SAPT in psi4, default
symmetry c1  #important for SAPT in psi4, default
}

set PROPERTIES_ORIGIN ["COM"]
properties('MP2/aug-cc-pvtz', properties = ['dipole'])
--------------------------------------------------------------------------

    Molecular point group: c1
  Charge       = 0
  Multiplicity = 1
  Basis Set: AUG-CC-PVTZ
    Blend: AUG-CC-PVTZ
  Basis Set: (AUG-CC-PVTZ AUX)
    Blend: AUG-CC-PVTZ-JKFIT

    Orbital Energies [Eh]
    ---------------------

    Doubly Occupied:

       1A    -20.586991     2A    -11.301039     3A    -11.291541
       4A    -11.242614     5A    -11.234797     6A    -11.226343
       7A     -1.407434     8A     -1.096627     9A     -1.034547
      10A     -0.898687    11A     -0.839678    12A     -0.718508
      13A     -0.698165    14A     -0.650097    15A     -0.634777
      16A     -0.602300    17A     -0.572568    18A     -0.529877
      19A     -0.510082    20A     -0.468716    21A     -0.421871
      22A     -0.300905

  @DF-RHF Final Energy:  -267.73482207030997

   => Energetics <=

    Nuclear Repulsion Energy =            223.3516496891341205
    One-Electron Energy =                -805.6366124284627404
    Two-Electron Energy =                 314.5501406690186741
    Total Energy =                       -267.7348220703099742
  Basis Set: (AUG-CC-PVTZ AUX)
    Blend: AUG-CC-PVTZ-RI
    Molecular point group: c1

    Geometry (in Angstrom), charge = 0, multiplicity = 1:

       Center              X                  Y                   Z               Mass
    ------------   -----------------  -----------------  -----------------  -----------------
         O            0.185116586252    -1.307173448899    -0.281821547183    15.994914619570
         C           -1.046645413748    -0.803077448899     0.284197452817    12.000000000000
         C           -1.269614413748     0.628020551101    -0.103113547183    12.000000000000
         C           -0.190543413748     1.435814551101    -0.061800547183    12.000000000000
         C            1.113595586252     0.840164551101     0.182436452817    12.000000000000
         C            1.245454586252    -0.490490448899    -0.021840547183    12.000000000000
         H           -0.974222413748    -0.910223448899     1.379357452817     1.007825032230
         H           -1.823614413748    -1.472795448899    -0.087272547183     1.007825032230
         H           -2.309289013748     1.034115451101    -0.133686247183     1.007825032230
         H           -0.259137413748     2.493790551101    -0.301842547183     1.007825032230
         H            1.994922586252     1.444195551101     0.364675452817     1.007825032230
         H            2.192676586252    -1.018426448899    -0.080993547183     1.007825032230

  Basis Set: AUG-CC-PVTZ
    Blend: AUG-CC-PVTZ
  Basis Set: (AUG-CC-PVTZ AUX)
    Blend: AUG-CC-PVTZ-JKFIT
	 Reference Energy          =    -267.7348220703099742 [Eh]
	 Singles Energy            =      -0.0000000000000000 [Eh]
	 Same-Spin Energy          =      -0.2741104679737576 [Eh]
	 Opposite-Spin Energy      =      -0.8870609550862617 [Eh]
	 Correlation Energy        =      -1.1611714230600194 [Eh]
	 Total Energy              =    -268.8959934933699856 [Eh]

	 ================> DF-SCS-MP2 Energies <==================
	-----------------------------------------------------------
	 SCS Same-Spin Scale       =       0.3333333333333333 [-]
	 SCS Opposite-Spin Scale   =       1.2000000000000000 [-]
	 SCS Same-Spin Energy      =      -0.0913701559912525 [Eh]
	 SCS Opposite-Spin Energy  =      -1.0644731461035140 [Eh]
	 SCS Correlation Energy    =      -1.1558433020947665 [Eh]
	 SCS Total Energy          =    -268.8906653724047260 [Eh]
	-----------------------------------------------------------

  Dipole Moment: [D]
     X:    -0.3281      Y:     0.6679      Z:     0.5904     Total:     0.9499

*** Psi4 exiting successfully. Buy a developer a beer!
