                               Psi4 1.3.2 release

  ==> Input File <==

--------------------------------------------------------------------------
#psi4
#
memory 32 gb

molecule  {
0 1
  O       -1.2481010    -0.6526680     1.0325150
  O       -1.2449750     2.4828510    -0.6861630
  O       -3.2732887     1.5370880     0.6999395
  O       -2.3570290    -3.0668370     0.0949400
  O        1.3605300     2.2470340    -0.0765420
  N        0.8434040     0.0452230     0.2559430
  N        3.0572260     0.7205030    -0.2937270
  N        4.7164630    -0.8366550    -0.5722980
  C       -1.2894840     1.0784300    -0.5920770
  C       -2.7151710     0.6552070    -0.2573930
  C       -0.5254080     0.4815200     0.6000940
  C       -2.5292560    -0.7168860     0.3610560
  C       -2.5283440    -1.8503930    -0.6392900
  C        1.2197750    -1.2614080     0.3112740
  C        1.7555940     1.0674350    -0.0594030
  C        2.5111010    -1.6091400     0.0469950
  C        3.4119830    -0.5506530    -0.2589250
  H       -0.9376060     0.5914040    -1.5148910
  H       -3.3971580     0.6803143    -1.1199535
  H       -0.4402900     1.2218800     1.4039980
  H       -3.2819570    -0.9087340     1.1307830
  H       -1.7133080    -1.7003050    -1.3694640
  H       -3.4855610    -1.8340040    -1.1841350
  H       -0.2975250     2.7131790    -0.5250000
  H       -2.8475560     2.3997430     0.5086630
  H        0.4343110    -1.9634370     0.5690680
  H       -2.4338740    -3.7984320    -0.5432330
  H        2.8291120    -2.6453980     0.0739220
  H        5.1251800    -1.6708610    -0.1624140
  H        5.3198140    -0.0200540    -0.5682940
units angstrom
no_reorient  #important for SAPT in psi4, default
symmetry c1  #important for SAPT in psi4, default
}

set PROPERTIES_ORIGIN ["COM"]
properties('MP2/aug-cc-pvtz', properties = ['dipole'])
--------------------------------------------------------------------------

    Molecular point group: c1
  Charge       = 0
  Multiplicity = 1
  Basis Set: AUG-CC-PVTZ
    Blend: AUG-CC-PVTZ
  Basis Set: (AUG-CC-PVTZ AUX)
    Blend: AUG-CC-PVTZ-JKFIT

    Orbital Energies [Eh]
    ---------------------

    Doubly Occupied:

       1A    -20.582881     2A    -20.582465     3A    -20.558086
       4A    -20.555101     5A    -20.522675     6A    -15.637770
       7A    -15.600346     8A    -15.553936     9A    -11.388959
      10A    -11.358451    11A    -11.343031    12A    -11.329198
      13A    -11.301526    14A    -11.298182    15A    -11.297762
      16A    -11.292101    17A    -11.249200    18A     -1.430012
      19A     -1.396995    20A     -1.379903    21A     -1.373216
      22A     -1.346287    23A     -1.306722    24A     -1.274514
      25A     -1.182843    26A     -1.082710    27A     -1.067517
      28A     -1.022258    29A     -0.935742    30A     -0.910139
      31A     -0.877741    32A     -0.832905    33A     -0.812576
      34A     -0.767633    35A     -0.753165    36A     -0.737154
      37A     -0.721338    38A     -0.703059    39A     -0.698663
      40A     -0.686222    41A     -0.669678    42A     -0.655118
      43A     -0.651978    44A     -0.639533    45A     -0.621104
      46A     -0.614942    47A     -0.608506    48A     -0.594497
      49A     -0.576030    50A     -0.570191    51A     -0.555296
      52A     -0.545069    53A     -0.538185    54A     -0.532166
      55A     -0.499271    56A     -0.477783    57A     -0.472904
      58A     -0.463162    59A     -0.459587    60A     -0.453361
      61A     -0.440368    62A     -0.433789    63A     -0.395829
      64A     -0.350740

  @DF-RHF Final Energy:  -886.37296222590510

   => Energetics <=

    Nuclear Repulsion Energy =           1322.5310637336845048
    One-Electron Energy =               -3842.6679095570402751
    Two-Electron Energy =                1633.7638835974503309
    Total Energy =                       -886.3729622259052121
  Basis Set: (AUG-CC-PVTZ AUX)
    Blend: AUG-CC-PVTZ-RI
    Molecular point group: c1

    Geometry (in Angstrom), charge = 0, multiplicity = 1:

       Center              X                  Y                   Z               Mass
    ------------   -----------------  -----------------  -----------------  -----------------
         O           -1.244222986751    -0.653876151483     1.035362616298    15.994914619570
         O           -1.241096986751     2.481642848517    -0.683315383702    15.994914619570
         O           -3.269410686751     1.535879848517     0.702787116298    15.994914619570
         O           -2.353150986751    -3.068045151483     0.097787616298    15.994914619570
         O            1.364408013249     2.245825848517    -0.073694383702    15.994914619570
         N            0.847282013249     0.044014848517     0.258790616298    14.003074004430
         N            3.061104013249     0.719294848517    -0.290879383702    14.003074004430
         N            4.720341013249    -0.837863151483    -0.569450383702    14.003074004430
         C           -1.285605986751     1.077221848517    -0.589229383702    12.000000000000
         C           -2.711292986751     0.653998848517    -0.254545383702    12.000000000000
         C           -0.521529986751     0.480311848517     0.602941616298    12.000000000000
         C           -2.525377986751    -0.718094151483     0.363903616298    12.000000000000
         C           -2.524465986751    -1.851601151483    -0.636442383702    12.000000000000
         C            1.223653013249    -1.262616151483     0.314121616298    12.000000000000
         C            1.759472013249     1.066226848517    -0.056555383702    12.000000000000
         C            2.514979013249    -1.610348151483     0.049842616298    12.000000000000
         C            3.415861013249    -0.551861151483    -0.256077383702    12.000000000000
         H           -0.933727986751     0.590195848517    -1.512043383702     1.007825032230
         H           -3.393279986751     0.679106148517    -1.117105883702     1.007825032230
         H           -0.436411986751     1.220671848517     1.406845616298     1.007825032230
         H           -3.278078986751    -0.909942151483     1.133630616298     1.007825032230
         H           -1.709429986751    -1.701513151483    -1.366616383702     1.007825032230
         H           -3.481682986751    -1.835212151483    -1.181287383702     1.007825032230
         H           -0.293646986751     2.711970848517    -0.522152383702     1.007825032230
         H           -2.843677986751     2.398534848517     0.511510616298     1.007825032230
         H            0.438189013249    -1.964645151483     0.571915616298     1.007825032230
         H           -2.429995986751    -3.799640151483    -0.540385383702     1.007825032230
         H            2.832990013249    -2.646606151483     0.076769616298     1.007825032230
         H            5.129058013249    -1.672069151483    -0.159566383702     1.007825032230
         H            5.323692013249    -0.021262151483    -0.565446383702     1.007825032230

  Basis Set: AUG-CC-PVTZ
    Blend: AUG-CC-PVTZ
  Basis Set: (AUG-CC-PVTZ AUX)
    Blend: AUG-CC-PVTZ-JKFIT
	 Reference Energy          =    -886.3729622259050984 [Eh]
	 Singles Energy            =      -0.0000000000000000 [Eh]
	 Same-Spin Energy          =      -0.9010351440744250 [Eh]
	 Opposite-Spin Energy      =      -2.7146117229180082 [Eh]
	 Correlation Energy        =      -3.6156468669924333 [Eh]
	 Total Energy              =    -889.9886090928974909 [Eh]

	 ================> DF-SCS-MP2 Energies <==================
	-----------------------------------------------------------
	 SCS Same-Spin Scale       =       0.3333333333333333 [-]
	 SCS Opposite-Spin Scale   =       1.2000000000000000 [-]
	 SCS Same-Spin Energy      =      -0.3003450480248083 [Eh]
	 SCS Opposite-Spin Energy  =      -3.2575340675016098 [Eh]
	 SCS Correlation Energy    =      -3.5578791155264180 [Eh]
	 SCS Total Energy          =    -889.9308413414314600 [Eh]
	-----------------------------------------------------------

  Dipole Moment: [D]
     X:     1.8818      Y:    -6.0058      Z:    -1.7563     Total:     6.5341

*** Psi4 exiting successfully. Buy a developer a beer!
