                               Psi4 1.3.2 release

  ==> Input File <==

--------------------------------------------------------------------------
#psi4
#
memory 32 gb

molecule  {
0 1
  O       -1.2481010    -0.6526680     1.0325150
  O       -1.2449750     2.4828510    -0.6861630
  O       -3.2165300     1.5210990     0.7448870
  O       -2.3570290    -3.0668370     0.0949400
  O        1.3605300     2.2470340    -0.0765420
  N        0.8434040     0.0452230     0.2559430
  N        3.0572260     0.7205030    -0.2937270
  N        4.7164630    -0.8366550    -0.5722980
  C       -1.2894840     1.0784300    -0.5920770
  C       -2.7151710     0.6552070    -0.2573930
  C       -0.5254080     0.4815200     0.6000940
  C       -2.5292560    -0.7168860     0.3610560
  C       -2.5283440    -1.8503930    -0.6392900
  C        1.2197750    -1.2614080     0.3112740
  C        1.7555940     1.0674350    -0.0594030
  C        2.5111010    -1.6091400     0.0469950
  C        3.4119830    -0.5506530    -0.2589250
  H       -0.9376060     0.5914040    -1.5148910
  H       -3.3625820     0.6426650    -1.1464650
  H       -0.4402900     1.2218800     1.4039980
  H       -3.2819570    -0.9087340     1.1307830
  H       -1.7133080    -1.7003050    -1.3694640
  H       -3.4855610    -1.8340040    -1.1841350
  H       -0.2975250     2.7131790    -0.5250000
  H       -2.8475560     2.3997430     0.5086630
  H        0.4343110    -1.9634370     0.5690680
  H       -2.4338740    -3.7984320    -0.5432330
  H        2.8291120    -2.6453980     0.0739220
  H        5.2056869    -1.8351784    -0.0816772
  H        5.3198140    -0.0200540    -0.5682940
units angstrom
no_reorient  #important for SAPT in psi4, default
symmetry c1  #important for SAPT in psi4, default
}

set PROPERTIES_ORIGIN ["COM"]
properties('MP2/aug-cc-pvtz', properties = ['dipole'])
--------------------------------------------------------------------------

    Molecular point group: c1
  Charge       = 0
  Multiplicity = 1
  Basis Set: AUG-CC-PVTZ
    Blend: AUG-CC-PVTZ
  Basis Set: (AUG-CC-PVTZ AUX)
    Blend: AUG-CC-PVTZ-JKFIT

    Orbital Energies [Eh]
    ---------------------

    Doubly Occupied:

       1A    -20.582017     2A    -20.581238     3A    -20.557527
       4A    -20.556936     5A    -20.521631     6A    -15.636177
       7A    -15.615542     8A    -15.553270     9A    -11.388035
      10A    -11.357460    11A    -11.341132    12A    -11.327511
      13A    -11.300924    14A    -11.296638    15A    -11.296296
      16A    -11.292676    17A    -11.247666    18A     -1.428969
      19A     -1.395970    20A     -1.379830    21A     -1.372547
      22A     -1.346004    23A     -1.303294    24A     -1.268109
      25A     -1.169875    26A     -1.080790    27A     -1.067414
      28A     -1.020058    29A     -0.933204    30A     -0.908747
      31A     -0.870612    32A     -0.829927    33A     -0.811316
      34A     -0.763028    35A     -0.749774    36A     -0.735786
      37A     -0.714148    38A     -0.702208    39A     -0.698123
      40A     -0.672413    41A     -0.665658    42A     -0.651197
      43A     -0.642518    44A     -0.635917    45A     -0.616953
      46A     -0.610791    47A     -0.605441    48A     -0.591693
      49A     -0.575197    50A     -0.569236    51A     -0.553569
      52A     -0.545005    53A     -0.536951    54A     -0.530866
      55A     -0.497613    56A     -0.477211    57A     -0.474120
      58A     -0.461800    59A     -0.459699    60A     -0.452529
      61A     -0.440046    62A     -0.432489    63A     -0.393142
      64A     -0.349232

  @DF-RHF Final Energy:  -886.34312125179554

   => Energetics <=

    Nuclear Repulsion Energy =           1322.6975452845695145
    One-Electron Energy =               -3843.1939376400464425
    Two-Electron Energy =                1634.1532711036813907
    Total Energy =                       -886.3431212517955373
  Basis Set: (AUG-CC-PVTZ AUX)
    Blend: AUG-CC-PVTZ-RI
    Molecular point group: c1

    Geometry (in Angstrom), charge = 0, multiplicity = 1:

       Center              X                  Y                   Z               Mass
    ------------   -----------------  -----------------  -----------------  -----------------
         O           -1.248434813048    -0.651986735015     1.032180275211    15.994914619570
         O           -1.245308813048     2.483532264985    -0.686497724789    15.994914619570
         O           -3.216863813048     1.521780264985     0.744552275211    15.994914619570
         O           -2.357362813048    -3.066155735015     0.094605275211    15.994914619570
         O            1.360196186952     2.247715264985    -0.076876724789    15.994914619570
         N            0.843070186952     0.045904264985     0.255608275211    14.003074004430
         N            3.056892186952     0.721184264985    -0.294061724789    14.003074004430
         N            4.716129186952    -0.835973735015    -0.572632724789    14.003074004430
         C           -1.289817813048     1.079111264985    -0.592411724789    12.000000000000
         C           -2.715504813048     0.655888264985    -0.257727724789    12.000000000000
         C           -0.525741813048     0.482201264985     0.599759275211    12.000000000000
         C           -2.529589813048    -0.716204735015     0.360721275211    12.000000000000
         C           -2.528677813048    -1.849711735015    -0.639624724789    12.000000000000
         C            1.219441186952    -1.260726735015     0.310939275211    12.000000000000
         C            1.755260186952     1.068116264985    -0.059737724789    12.000000000000
         C            2.510767186952    -1.608458735015     0.046660275211    12.000000000000
         C            3.411649186952    -0.549971735015    -0.259259724789    12.000000000000
         H           -0.937939813048     0.592085264985    -1.515225724789     1.007825032230
         H           -3.362915813048     0.643346264985    -1.146799724789     1.007825032230
         H           -0.440623813048     1.222561264985     1.403663275211     1.007825032230
         H           -3.282290813048    -0.908052735015     1.130448275211     1.007825032230
         H           -1.713641813048    -1.699623735015    -1.369798724789     1.007825032230
         H           -3.485894813048    -1.833322735015    -1.184469724789     1.007825032230
         H           -0.297858813048     2.713860264985    -0.525334724789     1.007825032230
         H           -2.847889813048     2.400424264985     0.508328275211     1.007825032230
         H            0.433977186952    -1.962755735015     0.568733275211     1.007825032230
         H           -2.434207813048    -3.797750735015    -0.543567724789     1.007825032230
         H            2.828778186952    -2.644716735015     0.073587275211     1.007825032230
         H            5.205353086952    -1.834497135015    -0.082011924789     1.007825032230
         H            5.319480186952    -0.019372735015    -0.568628724789     1.007825032230

  Basis Set: AUG-CC-PVTZ
    Blend: AUG-CC-PVTZ
  Basis Set: (AUG-CC-PVTZ AUX)
    Blend: AUG-CC-PVTZ-JKFIT
	 Reference Energy          =    -886.3431212517955373 [Eh]
	 Singles Energy            =      -0.0000000000000000 [Eh]
	 Same-Spin Energy          =      -0.9024502992663967 [Eh]
	 Opposite-Spin Energy      =      -2.7187987684131594 [Eh]
	 Correlation Energy        =      -3.6212490676795559 [Eh]
	 Total Energy              =    -889.9643703194750515 [Eh]

	 ================> DF-SCS-MP2 Energies <==================
	-----------------------------------------------------------
	 SCS Same-Spin Scale       =       0.3333333333333333 [-]
	 SCS Opposite-Spin Scale   =       1.2000000000000000 [-]
	 SCS Same-Spin Energy      =      -0.3008167664221322 [Eh]
	 SCS Opposite-Spin Energy  =      -3.2625585220957913 [Eh]
	 SCS Correlation Energy    =      -3.5633752885179235 [Eh]
	 SCS Total Energy          =    -889.9064965403134693 [Eh]
	-----------------------------------------------------------

  Dipole Moment: [D]
     X:     1.8176      Y:    -6.0837      Z:    -1.7702     Total:     6.5915

*** Psi4 exiting successfully. Buy a developer a beer!
