                               Psi4 1.3.2 release

  ==> Input File <==

--------------------------------------------------------------------------
#psi4
#
memory 32 gb

molecule  {
0 1
  O       -1.2481010    -0.6526680     1.0325150
  O       -1.2449750     2.4828510    -0.6861630
  O       -3.2165300     1.5210990     0.7448870
  O       -2.3570290    -3.0668370     0.0949400
  O        1.3605300     2.2470340    -0.0765420
  N        0.8434040     0.0452230     0.2559430
  N        3.0680305     0.7233904    -0.2964938
  N        4.7164630    -0.8366550    -0.5722980
  C       -1.2894840     1.0784300    -0.5920770
  C       -2.7151710     0.6552070    -0.2573930
  C       -0.5254080     0.4815200     0.6000940
  C       -2.5292560    -0.7168860     0.3610560
  C       -2.5283440    -1.8503930    -0.6392900
  C        1.2197750    -1.2614080     0.3112740
  C        1.7555940     1.0674350    -0.0594030
  C        2.5203366    -1.6173278     0.0456101
  C        3.4119830    -0.5506530    -0.2589250
  H       -0.9376060     0.5914040    -1.5148910
  H       -3.3625820     0.6426650    -1.1464650
  H       -0.4402900     1.2218800     1.4039980
  H       -3.2819570    -0.9087340     1.1307830
  H       -1.7133080    -1.7003050    -1.3694640
  H       -3.4855610    -1.8340040    -1.1841350
  H       -0.2975250     2.7131790    -0.5250000
  H       -2.8475560     2.3997430     0.5086630
  H        0.4343110    -1.9634370     0.5690680
  H       -2.4338740    -3.7984320    -0.5432330
  H        2.8291120    -2.6453980     0.0739220
  H        5.1251800    -1.6708610    -0.1624140
  H        5.3198140    -0.0200540    -0.5682940
units angstrom
no_reorient  #important for SAPT in psi4, default
symmetry c1  #important for SAPT in psi4, default
}

set PROPERTIES_ORIGIN ["COM"]
properties('MP2/aug-cc-pvtz', properties = ['dipole'])
--------------------------------------------------------------------------

    Molecular point group: c1
  Charge       = 0
  Multiplicity = 1
  Basis Set: AUG-CC-PVTZ
    Blend: AUG-CC-PVTZ
  Basis Set: (AUG-CC-PVTZ AUX)
    Blend: AUG-CC-PVTZ-JKFIT

    Orbital Energies [Eh]
    ---------------------

    Doubly Occupied:

       1A    -20.582506     2A    -20.582173     3A    -20.558177
       4A    -20.557788     5A    -20.523380     6A    -15.638499
       7A    -15.598031     8A    -15.554410     9A    -11.389717
      10A    -11.356583    11A    -11.342378    12A    -11.330685
      13A    -11.301495    14A    -11.297339    15A    -11.297210
      16A    -11.293398    17A    -11.248799    18A     -1.429889
      19A     -1.396632    20A     -1.380530    21A     -1.373169
      22A     -1.346737    23A     -1.305638    24A     -1.274002
      25A     -1.179905    26A     -1.080409    27A     -1.068170
      28A     -1.021666    29A     -0.935395    30A     -0.910533
      31A     -0.875812    32A     -0.832281    33A     -0.812137
      34A     -0.765657    35A     -0.752999    36A     -0.736793
      37A     -0.719402    38A     -0.703116    39A     -0.698904
      40A     -0.685020    41A     -0.673322    42A     -0.654402
      43A     -0.653400    44A     -0.639007    45A     -0.620095
      46A     -0.614330    47A     -0.605793    48A     -0.594648
      49A     -0.575921    50A     -0.569905    51A     -0.554311
      52A     -0.546001    53A     -0.537972    54A     -0.531984
      55A     -0.498002    56A     -0.477847    57A     -0.474848
      58A     -0.462800    59A     -0.461413    60A     -0.453319
      61A     -0.441084    62A     -0.433703    63A     -0.394602
      64A     -0.349158

  @DF-RHF Final Energy:  -886.37246638120155

   => Energetics <=

    Nuclear Repulsion Energy =           1323.1115263942044749
    One-Electron Energy =               -3843.8575282898741534
    Two-Electron Energy =                1634.3735355144683581
    Total Energy =                       -886.3724663812015478
  Basis Set: (AUG-CC-PVTZ AUX)
    Blend: AUG-CC-PVTZ-RI
    Molecular point group: c1

    Geometry (in Angstrom), charge = 0, multiplicity = 1:

       Center              X                  Y                   Z               Mass
    ------------   -----------------  -----------------  -----------------  -----------------
         O           -1.249179351610    -0.652430126561     1.032742756567    15.994914619570
         O           -1.246053351610     2.483088873439    -0.685935243433    15.994914619570
         O           -3.217608351610     1.521336873439     0.745114756567    15.994914619570
         O           -2.358107351610    -3.066599126561     0.095167756567    15.994914619570
         O            1.359451648390     2.247271873439    -0.076314243433    15.994914619570
         N            0.842325648390     0.045460873439     0.256170756567    14.003074004430
         N            3.066952148390     0.723628273439    -0.296266043433    14.003074004430
         N            4.715384648390    -0.836417126561    -0.572070243433    14.003074004430
         C           -1.290562351610     1.078667873439    -0.591849243433    12.000000000000
         C           -2.716249351610     0.655444873439    -0.257165243433    12.000000000000
         C           -0.526486351610     0.481757873439     0.600321756567    12.000000000000
         C           -2.530334351610    -0.716648126561     0.361283756567    12.000000000000
         C           -2.529422351610    -1.850155126561    -0.639062243433    12.000000000000
         C            1.218696648390    -1.261170126561     0.311501756567    12.000000000000
         C            1.754515648390     1.067672873439    -0.059175243433    12.000000000000
         C            2.519258248390    -1.617089926561     0.045837856567    12.000000000000
         C            3.410904648390    -0.550415126561    -0.258697243433    12.000000000000
         H           -0.938684351610     0.591641873439    -1.514663243433     1.007825032230
         H           -3.363660351610     0.642902873439    -1.146237243433     1.007825032230
         H           -0.441368351610     1.222117873439     1.404225756567     1.007825032230
         H           -3.283035351610    -0.908496126561     1.131010756567     1.007825032230
         H           -1.714386351610    -1.700067126561    -1.369236243433     1.007825032230
         H           -3.486639351610    -1.833766126561    -1.183907243433     1.007825032230
         H           -0.298603351610     2.713416873439    -0.524772243433     1.007825032230
         H           -2.848634351610     2.399980873439     0.508890756567     1.007825032230
         H            0.433232648390    -1.963199126561     0.569295756567     1.007825032230
         H           -2.434952351610    -3.798194126561    -0.543005243433     1.007825032230
         H            2.828033648390    -2.645160126561     0.074149756567     1.007825032230
         H            5.124101648390    -1.670623126561    -0.162186243433     1.007825032230
         H            5.318735648390    -0.019816126561    -0.568066243433     1.007825032230

  Basis Set: AUG-CC-PVTZ
    Blend: AUG-CC-PVTZ
  Basis Set: (AUG-CC-PVTZ AUX)
    Blend: AUG-CC-PVTZ-JKFIT
	 Reference Energy          =    -886.3724663812015478 [Eh]
	 Singles Energy            =      -0.0000000000000000 [Eh]
	 Same-Spin Energy          =      -0.9012780595534537 [Eh]
	 Opposite-Spin Energy      =      -2.7152796998812780 [Eh]
	 Correlation Energy        =      -3.6165577594347318 [Eh]
	 Total Energy              =    -889.9890241406362748 [Eh]

	 ================> DF-SCS-MP2 Energies <==================
	-----------------------------------------------------------
	 SCS Same-Spin Scale       =       0.3333333333333333 [-]
	 SCS Opposite-Spin Scale   =       1.2000000000000000 [-]
	 SCS Same-Spin Energy      =      -0.3004260198511512 [Eh]
	 SCS Opposite-Spin Energy  =      -3.2583356398575334 [Eh]
	 SCS Correlation Energy    =      -3.5587616597086846 [Eh]
	 SCS Total Energy          =    -889.9312280409102414 [Eh]
	-----------------------------------------------------------

  Dipole Moment: [D]
     X:     1.6263      Y:    -5.9229      Z:    -1.8111     Total:     6.4035

*** Psi4 exiting successfully. Buy a developer a beer!
