                               Psi4 1.3.2 release

  ==> Input File <==

--------------------------------------------------------------------------
#psi4
#
memory 32 gb

molecule  {
0 1
  O       -1.2481010    -0.6526680     1.0325150
  O       -1.2449750     2.4828510    -0.6861630
  O       -3.2069324     1.5182022     0.7521144
  O       -2.3570290    -3.0668370     0.0949400
  O        1.3605300     2.2470340    -0.0765420
  N        0.8434040     0.0452230     0.2559430
  N        3.0572260     0.7205030    -0.2937270
  N        4.7164630    -0.8366550    -0.5722980
  C       -1.2894840     1.0784300    -0.5920770
  C       -2.7151710     0.6552070    -0.2573930
  C       -0.5254080     0.4815200     0.6000940
  C       -2.5292560    -0.7168860     0.3610560
  C       -2.5283440    -1.8503930    -0.6392900
  C        1.2197750    -1.2614080     0.3112740
  C        1.7555940     1.0674350    -0.0594030
  C        2.5111010    -1.6091400     0.0469950
  C        3.4119830    -0.5506530    -0.2589250
  H       -0.9376060     0.5914040    -1.5148910
  H       -3.3566442     0.6363907    -1.1506485
  H       -0.4402900     1.2218800     1.4039980
  H       -3.2819570    -0.9087340     1.1307830
  H       -1.7133080    -1.7003050    -1.3694640
  H       -3.4855610    -1.8340040    -1.1841350
  H       -0.2975250     2.7131790    -0.5250000
  H       -2.8475560     2.3997430     0.5086630
  H        0.4343110    -1.9634370     0.5690680
  H       -2.4338740    -3.7984320    -0.5432330
  H        2.8291120    -2.6453980     0.0739220
  H        5.1251800    -1.6708610    -0.1624140
  H        5.3198140    -0.0200540    -0.5682940
units angstrom
no_reorient  #important for SAPT in psi4, default
symmetry c1  #important for SAPT in psi4, default
}

set PROPERTIES_ORIGIN ["COM"]
properties('MP2/aug-cc-pvtz', properties = ['dipole'])
--------------------------------------------------------------------------

    Molecular point group: c1
  Charge       = 0
  Multiplicity = 1
  Basis Set: AUG-CC-PVTZ
    Blend: AUG-CC-PVTZ
  Basis Set: (AUG-CC-PVTZ AUX)
    Blend: AUG-CC-PVTZ-JKFIT

    Orbital Energies [Eh]
    ---------------------

    Doubly Occupied:

       1A    -20.582205     2A    -20.581386     3A    -20.558311
       4A    -20.557099     5A    -20.521880     6A    -15.636789
       7A    -15.599777     8A    -15.553253     9A    -11.388150
      10A    -11.357767    11A    -11.341306    12A    -11.328422
      13A    -11.301120    14A    -11.296772    15A    -11.296385
      16A    -11.293081    17A    -11.248459    18A     -1.429256
      19A     -1.396290    20A     -1.380131    21A     -1.372736
      22A     -1.346261    23A     -1.305957    24A     -1.273684
      25A     -1.182157    26A     -1.081850    27A     -1.067746
      28A     -1.021217    29A     -0.935383    30A     -0.909369
      31A     -0.877205    32A     -0.832225    33A     -0.811704
      34A     -0.766861    35A     -0.752283    36A     -0.736044
      37A     -0.720081    38A     -0.702915    39A     -0.698385
      40A     -0.685543    41A     -0.673265    42A     -0.654430
      43A     -0.651464    44A     -0.638261    45A     -0.620589
      46A     -0.614347    47A     -0.606409    48A     -0.593742
      49A     -0.575726    50A     -0.569669    51A     -0.553762
      52A     -0.545797    53A     -0.537404    54A     -0.531749
      55A     -0.497897    56A     -0.477471    57A     -0.474794
      58A     -0.461979    59A     -0.460061    60A     -0.452679
      61A     -0.440681    62A     -0.433031    63A     -0.395100
      64A     -0.349890

  @DF-RHF Final Energy:  -886.37319481125485

   => Energetics <=

    Nuclear Repulsion Energy =           1323.9125452691564533
    One-Electron Energy =               -3845.4961930941012724
    Two-Electron Energy =                1635.2104530136898575
    Total Energy =                       -886.3731948112549617
  Basis Set: (AUG-CC-PVTZ AUX)
    Blend: AUG-CC-PVTZ-RI
    Molecular point group: c1

    Geometry (in Angstrom), charge = 0, multiplicity = 1:

       Center              X                  Y                   Z               Mass
    ------------   -----------------  -----------------  -----------------  -----------------
         O           -1.248757169504    -0.652451368710     1.032056792571    15.994914619570
         O           -1.245631169504     2.483067631290    -0.686621207429    15.994914619570
         O           -3.207588569504     1.518418831290     0.751656192571    15.994914619570
         O           -2.357685169504    -3.066620368710     0.094481792571    15.994914619570
         O            1.359873830496     2.247250631290    -0.077000207429    15.994914619570
         N            0.842747830496     0.045439631290     0.255484792571    14.003074004430
         N            3.056569830496     0.720719631290    -0.294185207429    14.003074004430
         N            4.715806830496    -0.836438368710    -0.572756207429    14.003074004430
         C           -1.290140169504     1.078646631290    -0.592535207429    12.000000000000
         C           -2.715827169504     0.655423631290    -0.257851207429    12.000000000000
         C           -0.526064169504     0.481736631290     0.599635792571    12.000000000000
         C           -2.529912169504    -0.716669368710     0.360597792571    12.000000000000
         C           -2.529000169504    -1.850176368710    -0.639748207429    12.000000000000
         C            1.219118830496    -1.261191368710     0.310815792571    12.000000000000
         C            1.754937830496     1.067651631290    -0.059861207429    12.000000000000
         C            2.510444830496    -1.608923368710     0.046536792571    12.000000000000
         C            3.411326830496    -0.550436368710    -0.259383207429    12.000000000000
         H           -0.938262169504     0.591620631290    -1.515349207429     1.007825032230
         H           -3.357300369504     0.636607331290    -1.151106707429     1.007825032230
         H           -0.440946169504     1.222096631290     1.403539792571     1.007825032230
         H           -3.282613169504    -0.908517368710     1.130324792571     1.007825032230
         H           -1.713964169504    -1.700088368710    -1.369922207429     1.007825032230
         H           -3.486217169504    -1.833787368710    -1.184593207429     1.007825032230
         H           -0.298181169504     2.713395631290    -0.525458207429     1.007825032230
         H           -2.848212169504     2.399959631290     0.508204792571     1.007825032230
         H            0.433654830496    -1.963220368710     0.568609792571     1.007825032230
         H           -2.434530169504    -3.798215368710    -0.543691207429     1.007825032230
         H            2.828455830496    -2.645181368710     0.073463792571     1.007825032230
         H            5.124523830496    -1.670644368710    -0.162872207429     1.007825032230
         H            5.319157830496    -0.019837368710    -0.568752207429     1.007825032230

  Basis Set: AUG-CC-PVTZ
    Blend: AUG-CC-PVTZ
  Basis Set: (AUG-CC-PVTZ AUX)
    Blend: AUG-CC-PVTZ-JKFIT
	 Reference Energy          =    -886.3731948112548480 [Eh]
	 Singles Energy            =      -0.0000000000000000 [Eh]
	 Same-Spin Energy          =      -0.9013029879399700 [Eh]
	 Opposite-Spin Energy      =      -2.7150437711156297 [Eh]
	 Correlation Energy        =      -3.6163467590555998 [Eh]
	 Total Energy              =    -889.9895415703103936 [Eh]

	 ================> DF-SCS-MP2 Energies <==================
	-----------------------------------------------------------
	 SCS Same-Spin Scale       =       0.3333333333333333 [-]
	 SCS Opposite-Spin Scale   =       1.2000000000000000 [-]
	 SCS Same-Spin Energy      =      -0.3004343293133233 [Eh]
	 SCS Opposite-Spin Energy  =      -3.2580525253387553 [Eh]
	 SCS Correlation Energy    =      -3.5584868546520787 [Eh]
	 SCS Total Energy          =    -889.9316816659069218 [Eh]
	-----------------------------------------------------------

  Dipole Moment: [D]
     X:     1.6806      Y:    -5.9403      Z:    -1.8323     Total:     6.4396

*** Psi4 exiting successfully. Buy a developer a beer!
