                               Psi4 1.3.2 release

  ==> Input File <==

--------------------------------------------------------------------------
#psi4
#
memory 32 gb

molecule  {
0 1
  O       -1.2481010    -0.6526680     1.0325150
  O       -1.2449750     2.4828510    -0.6861630
  O       -3.2165300     1.5210990     0.7448870
  O       -2.3570290    -3.0668370     0.0949400
  O        1.3605300     2.2470340    -0.0765420
  N        0.8434040     0.0452230     0.2559430
  N        3.0572260     0.7205030    -0.2937270
  N        4.7164630    -0.8366550    -0.5722980
  C       -1.2894840     1.0784300    -0.5920770
  C       -2.9022232     0.5996795    -0.2134820
  C       -0.5254080     0.4815200     0.6000940
  C       -2.5292560    -0.7168860     0.3610560
  C       -2.5283440    -1.8503930    -0.6392900
  C        1.2197750    -1.2614080     0.3112740
  C        1.7555940     1.0674350    -0.0594030
  C        2.5111010    -1.6091400     0.0469950
  C        3.4119830    -0.5506530    -0.2589250
  H       -0.9376060     0.5914040    -1.5148910
  H       -3.3625820     0.6426650    -1.1464650
  H       -0.4402900     1.2218800     1.4039980
  H       -3.2819570    -0.9087340     1.1307830
  H       -1.7133080    -1.7003050    -1.3694640
  H       -3.4855610    -1.8340040    -1.1841350
  H       -0.2975250     2.7131790    -0.5250000
  H       -2.8475560     2.3997430     0.5086630
  H        0.4343110    -1.9634370     0.5690680
  H       -2.4338740    -3.7984320    -0.5432330
  H        2.8291120    -2.6453980     0.0739220
  H        5.1251800    -1.6708610    -0.1624140
  H        5.3198140    -0.0200540    -0.5682940
units angstrom
no_reorient  #important for SAPT in psi4, default
symmetry c1  #important for SAPT in psi4, default
}

set PROPERTIES_ORIGIN ["COM"]
properties('MP2/aug-cc-pvtz', properties = ['dipole'])
--------------------------------------------------------------------------

    Molecular point group: c1
  Charge       = 0
  Multiplicity = 1
  Basis Set: AUG-CC-PVTZ
    Blend: AUG-CC-PVTZ
  Basis Set: (AUG-CC-PVTZ AUX)
    Blend: AUG-CC-PVTZ-JKFIT

    Orbital Energies [Eh]
    ---------------------

    Doubly Occupied:

       1A    -20.582951     2A    -20.581486     3A    -20.561205
       4A    -20.555446     5A    -20.520465     6A    -15.635718
       7A    -15.598926     8A    -15.552222     9A    -11.386871
      10A    -11.356756    11A    -11.339156    12A    -11.327440
      13A    -11.301634    14A    -11.298759    15A    -11.297030
      16A    -11.296186    17A    -11.247473    18A     -1.427429
      19A     -1.395975    20A     -1.385028    21A     -1.372679
      22A     -1.352210    23A     -1.304806    24A     -1.272611
      25A     -1.181152    26A     -1.080918    27A     -1.065628
      28A     -1.004574    29A     -0.930630    30A     -0.908479
      31A     -0.879867    32A     -0.831350    33A     -0.816394
      34A     -0.766202    35A     -0.750147    36A     -0.729239
      37A     -0.720688    38A     -0.717900    39A     -0.697551
      40A     -0.684578    41A     -0.678853    42A     -0.655830
      43A     -0.648263    44A     -0.638920    45A     -0.618668
      46A     -0.615616    47A     -0.608319    48A     -0.593577
      49A     -0.578399    50A     -0.568711    51A     -0.562563
      52A     -0.548280    53A     -0.534815    54A     -0.530069
      55A     -0.494815    56A     -0.476899    57A     -0.474891
      58A     -0.461899    59A     -0.458516    60A     -0.443073
      61A     -0.432090    62A     -0.409194    63A     -0.391339
      64A     -0.347445

  @DF-RHF Final Energy:  -886.34315453913280

   => Energetics <=

    Nuclear Repulsion Energy =           1320.6294966037457925
    One-Electron Energy =               -3838.9716968168881976
    Two-Electron Energy =                1631.9990456740097216
    Total Energy =                       -886.3431545391326836
  Basis Set: (AUG-CC-PVTZ AUX)
    Blend: AUG-CC-PVTZ-RI
    Molecular point group: c1

    Geometry (in Angstrom), charge = 0, multiplicity = 1:

       Center              X                  Y                   Z               Mass
    ------------   -----------------  -----------------  -----------------  -----------------
         O           -1.238867138001    -0.649926855800     1.030347325922    15.994914619570
         O           -1.235741138001     2.485592144200    -0.688330674078    15.994914619570
         O           -3.207296138001     1.523840144200     0.742719325922    15.994914619570
         O           -2.347795138001    -3.064095855800     0.092772325922    15.994914619570
         O            1.369763861999     2.249775144200    -0.078709674078    15.994914619570
         N            0.852637861999     0.047964144200     0.253775325922    14.003074004430
         N            3.066459861999     0.723244144200    -0.295894674078    14.003074004430
         N            4.725696861999    -0.833913855800    -0.574465674078    14.003074004430
         C           -1.280250138001     1.081171144200    -0.594244674078    12.000000000000
         C           -2.892989338001     0.602420644200    -0.215649674078    12.000000000000
         C           -0.516174138001     0.484261144200     0.597926325922    12.000000000000
         C           -2.520022138001    -0.714144855800     0.358888325922    12.000000000000
         C           -2.519110138001    -1.847651855800    -0.641457674078    12.000000000000
         C            1.229008861999    -1.258666855800     0.309106325922    12.000000000000
         C            1.764827861999     1.070176144200    -0.061570674078    12.000000000000
         C            2.520334861999    -1.606398855800     0.044827325922    12.000000000000
         C            3.421216861999    -0.547911855800    -0.261092674078    12.000000000000
         H           -0.928372138001     0.594145144200    -1.517058674078     1.007825032230
         H           -3.353348138001     0.645406144200    -1.148632674078     1.007825032230
         H           -0.431056138001     1.224621144200     1.401830325922     1.007825032230
         H           -3.272723138001    -0.905992855800     1.128615325922     1.007825032230
         H           -1.704074138001    -1.697563855800    -1.371631674078     1.007825032230
         H           -3.476327138001    -1.831262855800    -1.186302674078     1.007825032230
         H           -0.288291138001     2.715920144200    -0.527167674078     1.007825032230
         H           -2.838322138001     2.402484144200     0.506495325922     1.007825032230
         H            0.443544861999    -1.960695855800     0.566900325922     1.007825032230
         H           -2.424640138001    -3.795690855800    -0.545400674078     1.007825032230
         H            2.838345861999    -2.642656855800     0.071754325922     1.007825032230
         H            5.134413861999    -1.668119855800    -0.164581674078     1.007825032230
         H            5.329047861999    -0.017312855800    -0.570461674078     1.007825032230

  Basis Set: AUG-CC-PVTZ
    Blend: AUG-CC-PVTZ
  Basis Set: (AUG-CC-PVTZ AUX)
    Blend: AUG-CC-PVTZ-JKFIT
	 Reference Energy          =    -886.3431545391327973 [Eh]
	 Singles Energy            =      -0.0000000000000000 [Eh]
	 Same-Spin Energy          =      -0.9026219130699089 [Eh]
	 Opposite-Spin Energy      =      -2.7169623911845200 [Eh]
	 Correlation Energy        =      -3.6195843042544289 [Eh]
	 Total Energy              =    -889.9627388433872284 [Eh]

	 ================> DF-SCS-MP2 Energies <==================
	-----------------------------------------------------------
	 SCS Same-Spin Scale       =       0.3333333333333333 [-]
	 SCS Opposite-Spin Scale   =       1.2000000000000000 [-]
	 SCS Same-Spin Energy      =      -0.3008739710233029 [Eh]
	 SCS Opposite-Spin Energy  =      -3.2603548694214237 [Eh]
	 SCS Correlation Energy    =      -3.5612288404447265 [Eh]
	 SCS Total Energy          =    -889.9043833795775527 [Eh]
	-----------------------------------------------------------

  Dipole Moment: [D]
     X:     1.4464      Y:    -5.8060      Z:    -1.7928     Total:     6.2463

*** Psi4 exiting successfully. Buy a developer a beer!
