                               Psi4 1.3.2 release

  ==> Input File <==

--------------------------------------------------------------------------
#psi4
#
memory 32 gb

molecule  {
0 1
  O       -1.2481010    -0.6526680     1.0325150
  O       -1.2449750     2.4828510    -0.6861630
  O       -3.2165300     1.5210990     0.7448870
  O       -2.3570290    -3.0668370     0.0949400
  O        1.3605300     2.2470340    -0.0765420
  N        0.8434040     0.0452230     0.2559430
  N        3.0572260     0.7205030    -0.2937270
  N        4.7164630    -0.8366550    -0.5722980
  C       -1.2721090     1.0321859    -0.5723113
  C       -2.7151710     0.6552070    -0.2573930
  C       -0.5254080     0.4815200     0.6000940
  C       -2.4770499    -0.7120797     0.3537600
  C       -2.5283440    -1.8503930    -0.6392900
  C        1.2197750    -1.2614080     0.3112740
  C        1.7555940     1.0674350    -0.0594030
  C        2.5111010    -1.6091400     0.0469950
  C        3.4119830    -0.5506530    -0.2589250
  H       -0.9376060     0.5914040    -1.5148910
  H       -3.3625820     0.6426650    -1.1464650
  H       -0.4402900     1.2218800     1.4039980
  H       -3.2819570    -0.9087340     1.1307830
  H       -1.7133080    -1.7003050    -1.3694640
  H       -3.4855610    -1.8340040    -1.1841350
  H       -0.2975250     2.7131790    -0.5250000
  H       -2.8475560     2.3997430     0.5086630
  H        0.4343110    -1.9634370     0.5690680
  H       -2.4338740    -3.7984320    -0.5432330
  H        2.8291120    -2.6453980     0.0739220
  H        5.1251800    -1.6708610    -0.1624140
  H        5.3198140    -0.0200540    -0.5682940
units angstrom
no_reorient  #important for SAPT in psi4, default
symmetry c1  #important for SAPT in psi4, default
}

set PROPERTIES_ORIGIN ["COM"]
properties('MP2/aug-cc-pvtz', properties = ['dipole'])
--------------------------------------------------------------------------

    Molecular point group: c1
  Charge       = 0
  Multiplicity = 1
  Basis Set: AUG-CC-PVTZ
    Blend: AUG-CC-PVTZ
  Basis Set: (AUG-CC-PVTZ AUX)
    Blend: AUG-CC-PVTZ-JKFIT

    Orbital Energies [Eh]
    ---------------------

    Doubly Occupied:

       1A    -20.587573     2A    -20.581704     3A    -20.557891
       4A    -20.553641     5A    -20.522685     6A    -15.638682
       7A    -15.600904     8A    -15.554499     9A    -11.389426
      10A    -11.359133    11A    -11.344829    12A    -11.330353
      13A    -11.300064    14A    -11.296585    15A    -11.295674
      16A    -11.293206    17A    -11.250143    18A     -1.442311
      19A     -1.399469    20A     -1.375917    21A     -1.371342
      22A     -1.336079    23A     -1.307617    24A     -1.276391
      25A     -1.183762    26A     -1.085742    27A     -1.069449
      28A     -1.028471    29A     -0.937290    30A     -0.911944
      31A     -0.877732    32A     -0.832187    33A     -0.814024
      34A     -0.768294    35A     -0.756062    36A     -0.733941
      37A     -0.722310    38A     -0.701816    39A     -0.697529
      40A     -0.687171    41A     -0.671982    42A     -0.656377
      43A     -0.652259    44A     -0.641944    45A     -0.621132
      46A     -0.616725    47A     -0.607755    48A     -0.593605
      49A     -0.578312    50A     -0.567369    51A     -0.552340
      52A     -0.544867    53A     -0.535807    54A     -0.531758
      55A     -0.497103    56A     -0.477077    57A     -0.470006
      58A     -0.461965    59A     -0.460316    60A     -0.455815
      61A     -0.444536    62A     -0.433702    63A     -0.397096
      64A     -0.351944

  @DF-RHF Final Energy:  -886.36658267324651

   => Energetics <=

    Nuclear Repulsion Energy =           1325.4088706944437490
    One-Electron Energy =               -3848.3596409101819518
    Two-Electron Energy =                1636.5841875424914633
    Total Energy =                       -886.3665826732465121
  Basis Set: (AUG-CC-PVTZ AUX)
    Blend: AUG-CC-PVTZ-RI
    Molecular point group: c1

    Geometry (in Angstrom), charge = 0, multiplicity = 1:

       Center              X                  Y                   Z               Mass
    ------------   -----------------  -----------------  -----------------  -----------------
         O           -1.251535928776    -0.650622398668     1.031899436468    15.994914619570
         O           -1.248409928776     2.484896601332    -0.686778563532    15.994914619570
         O           -3.219964928776     1.523144601332     0.744271436468    15.994914619570
         O           -2.360463928776    -3.064791398668     0.094324436468    15.994914619570
         O            1.357095071224     2.249079601332    -0.077157563532    15.994914619570
         N            0.839969071224     0.047268601332     0.255327436468    14.003074004430
         N            3.053791071224     0.722548601332    -0.294342563532    14.003074004430
         N            4.713028071224    -0.834609398668    -0.572913563532    14.003074004430
         C           -1.275543928776     1.034231501332    -0.572926863532    12.000000000000
         C           -2.718605928776     0.657252601332    -0.258008563532    12.000000000000
         C           -0.528842928776     0.483565601332     0.599478436468    12.000000000000
         C           -2.480484828776    -0.710034098668     0.353144436468    12.000000000000
         C           -2.531778928776    -1.848347398668    -0.639905563532    12.000000000000
         C            1.216340071224    -1.259362398668     0.310658436468    12.000000000000
         C            1.752159071224     1.069480601332    -0.060018563532    12.000000000000
         C            2.507666071224    -1.607094398668     0.046379436468    12.000000000000
         C            3.408548071224    -0.548607398668    -0.259540563532    12.000000000000
         H           -0.941040928776     0.593449601332    -1.515506563532     1.007825032230
         H           -3.366016928776     0.644710601332    -1.147080563532     1.007825032230
         H           -0.443724928776     1.223925601332     1.403382436468     1.007825032230
         H           -3.285391928776    -0.906688398668     1.130167436468     1.007825032230
         H           -1.716742928776    -1.698259398668    -1.370079563532     1.007825032230
         H           -3.488995928776    -1.831958398668    -1.184750563532     1.007825032230
         H           -0.300959928776     2.715224601332    -0.525615563532     1.007825032230
         H           -2.850990928776     2.401788601332     0.508047436468     1.007825032230
         H            0.430876071224    -1.961391398668     0.568452436468     1.007825032230
         H           -2.437308928776    -3.796386398668    -0.543848563532     1.007825032230
         H            2.825677071224    -2.643352398668     0.073306436468     1.007825032230
         H            5.121745071224    -1.668815398668    -0.163029563532     1.007825032230
         H            5.316379071224    -0.018008398668    -0.568909563532     1.007825032230

  Basis Set: AUG-CC-PVTZ
    Blend: AUG-CC-PVTZ
  Basis Set: (AUG-CC-PVTZ AUX)
    Blend: AUG-CC-PVTZ-JKFIT
	 Reference Energy          =    -886.3665826732465121 [Eh]
	 Singles Energy            =      -0.0000000000000000 [Eh]
	 Same-Spin Energy          =      -0.9019300314328915 [Eh]
	 Opposite-Spin Energy      =      -2.7161447753786589 [Eh]
	 Correlation Energy        =      -3.6180748068115505 [Eh]
	 Total Energy              =    -889.9846574800581038 [Eh]

	 ================> DF-SCS-MP2 Energies <==================
	-----------------------------------------------------------
	 SCS Same-Spin Scale       =       0.3333333333333333 [-]
	 SCS Opposite-Spin Scale   =       1.2000000000000000 [-]
	 SCS Same-Spin Energy      =      -0.3006433438109638 [Eh]
	 SCS Opposite-Spin Energy  =      -3.2593737304543908 [Eh]
	 SCS Correlation Energy    =      -3.5600170742653545 [Eh]
	 SCS Total Energy          =    -889.9265997475118866 [Eh]
	-----------------------------------------------------------

  Dipole Moment: [D]
     X:     1.9090      Y:    -6.0144      Z:    -1.7825     Total:     6.5571

*** Psi4 exiting successfully. Buy a developer a beer!
