                               Psi4 1.3.2 release

  ==> Input File <==

--------------------------------------------------------------------------
#psi4
#
memory 32 gb

molecule  {
0 1
  O       -1.2840144    -0.6656286     1.0979991
  O       -1.2449750     2.4828510    -0.6861630
  O       -3.2165300     1.5210990     0.7448870
  O       -2.3570290    -3.0668370     0.0949400
  O        1.3605300     2.2470340    -0.0765420
  N        0.8434040     0.0452230     0.2559430
  N        3.0572260     0.7205030    -0.2937270
  N        4.7164630    -0.8366550    -0.5722980
  C       -1.2894840     1.0784300    -0.5920770
  C       -2.7151710     0.6552070    -0.2573930
  C       -0.5254080     0.4815200     0.6000940
  C       -2.5292560    -0.7168860     0.3610560
  C       -2.5283440    -1.8503930    -0.6392900
  C        1.2197750    -1.2614080     0.3112740
  C        1.7555940     1.0674350    -0.0594030
  C        2.5111010    -1.6091400     0.0469950
  C        3.4119830    -0.5506530    -0.2589250
  H       -0.9376060     0.5914040    -1.5148910
  H       -3.3625820     0.6426650    -1.1464650
  H       -0.4402900     1.2218800     1.4039980
  H       -3.2399583    -0.9088655     1.1696908
  H       -1.7133080    -1.7003050    -1.3694640
  H       -3.4855610    -1.8340040    -1.1841350
  H       -0.2975250     2.7131790    -0.5250000
  H       -2.8475560     2.3997430     0.5086630
  H        0.4343110    -1.9634370     0.5690680
  H       -2.4338740    -3.7984320    -0.5432330
  H        2.8291120    -2.6453980     0.0739220
  H        5.1251800    -1.6708610    -0.1624140
  H        5.3198140    -0.0200540    -0.5682940
units angstrom
no_reorient  #important for SAPT in psi4, default
symmetry c1  #important for SAPT in psi4, default
}

set PROPERTIES_ORIGIN ["COM"]
properties('MP2/aug-cc-pvtz', properties = ['dipole'])
--------------------------------------------------------------------------

    Molecular point group: c1
  Charge       = 0
  Multiplicity = 1
  Basis Set: AUG-CC-PVTZ
    Blend: AUG-CC-PVTZ
  Basis Set: (AUG-CC-PVTZ AUX)
    Blend: AUG-CC-PVTZ-JKFIT

    Orbital Energies [Eh]
    ---------------------

    Doubly Occupied:

       1A    -20.582022     2A    -20.581550     3A    -20.559033
       4A    -20.557403     5A    -20.523244     6A    -15.639314
       7A    -15.600752     8A    -15.554579     9A    -11.389805
      10A    -11.358987    11A    -11.344331    12A    -11.329874
      13A    -11.301071    14A    -11.298932    15A    -11.293719
      16A    -11.293045    17A    -11.249703    18A     -1.420040
      19A     -1.395145    20A     -1.379556    21A     -1.369287
      22A     -1.346428    23A     -1.307300    24A     -1.275315
      25A     -1.183433    26A     -1.083265    27A     -1.065320
      28A     -1.020812    29A     -0.935852    30A     -0.910191
      31A     -0.877786    32A     -0.831789    33A     -0.809799
      34A     -0.767921    35A     -0.751230    36A     -0.734414
      37A     -0.720297    38A     -0.702639    39A     -0.697886
      40A     -0.684456    41A     -0.671996    42A     -0.652976
      43A     -0.650836    44A     -0.637992    45A     -0.620290
      46A     -0.614831    47A     -0.605432    48A     -0.595018
      49A     -0.574628    50A     -0.561392    51A     -0.554049
      52A     -0.545873    53A     -0.538051    54A     -0.531853
      55A     -0.499165    56A     -0.477117    57A     -0.475258
      58A     -0.461788    59A     -0.460195    60A     -0.454149
      61A     -0.441685    62A     -0.434592    63A     -0.396388
      64A     -0.351312

  @DF-RHF Final Energy:  -886.36763871503035

   => Energetics <=

    Nuclear Repulsion Energy =           1321.5907949177221781
    One-Electron Energy =               -3840.8480819775099917
    Two-Electron Energy =                1632.8896483447574610
    Total Energy =                       -886.3676387150303526
  Basis Set: (AUG-CC-PVTZ AUX)
    Blend: AUG-CC-PVTZ-RI
    Molecular point group: c1

    Geometry (in Angstrom), charge = 0, multiplicity = 1:

       Center              X                  Y                   Z               Mass
    ------------   -----------------  -----------------  -----------------  -----------------
         O           -1.281825474165    -0.664775243191     1.093528973509    15.994914619570
         O           -1.242786074165     2.483704356809    -0.690633126491    15.994914619570
         O           -3.214341074165     1.521952356809     0.740416873509    15.994914619570
         O           -2.354840074165    -3.065983643191     0.090469873509    15.994914619570
         O            1.362718925835     2.247887356809    -0.081012126491    15.994914619570
         N            0.845592925835     0.046076356809     0.251472873509    14.003074004430
         N            3.059414925835     0.721356356809    -0.298197126491    14.003074004430
         N            4.718651925835    -0.835801643191    -0.576768126491    14.003074004430
         C           -1.287295074165     1.079283356809    -0.596547126491    12.000000000000
         C           -2.712982074165     0.656060356809    -0.261863126491    12.000000000000
         C           -0.523219074165     0.482373356809     0.595623873509    12.000000000000
         C           -2.527067074165    -0.716032643191     0.356585873509    12.000000000000
         C           -2.526155074165    -1.849539643191    -0.643760126491    12.000000000000
         C            1.221963925835    -1.260554643191     0.306803873509    12.000000000000
         C            1.757782925835     1.068288356809    -0.063873126491    12.000000000000
         C            2.513289925835    -1.608286643191     0.042524873509    12.000000000000
         C            3.414171925835    -0.549799643191    -0.263395126491    12.000000000000
         H           -0.935417074165     0.592257356809    -1.519361126491     1.007825032230
         H           -3.360393074165     0.643518356809    -1.150935126491     1.007825032230
         H           -0.438101074165     1.222733356809     1.399527873509     1.007825032230
         H           -3.237769374165    -0.908012143191     1.165220673509     1.007825032230
         H           -1.711119074165    -1.699451643191    -1.373934126491     1.007825032230
         H           -3.483372074165    -1.833150643191    -1.188605126491     1.007825032230
         H           -0.295336074165     2.714032356809    -0.529470126491     1.007825032230
         H           -2.845367074165     2.400596356809     0.504192873509     1.007825032230
         H            0.436499925835    -1.962583643191     0.564597873509     1.007825032230
         H           -2.431685074165    -3.797578643191    -0.547703126491     1.007825032230
         H            2.831300925835    -2.644544643191     0.069451873509     1.007825032230
         H            5.127368925835    -1.670007643191    -0.166884126491     1.007825032230
         H            5.322002925835    -0.019200643191    -0.572764126491     1.007825032230

  Basis Set: AUG-CC-PVTZ
    Blend: AUG-CC-PVTZ
  Basis Set: (AUG-CC-PVTZ AUX)
    Blend: AUG-CC-PVTZ-JKFIT
	 Reference Energy          =    -886.3676387150303526 [Eh]
	 Singles Energy            =      -0.0000000000000000 [Eh]
	 Same-Spin Energy          =      -0.9016519785758964 [Eh]
	 Opposite-Spin Energy      =      -2.7167836280425570 [Eh]
	 Correlation Energy        =      -3.6184356066184535 [Eh]
	 Total Energy              =    -889.9860743216488572 [Eh]

	 ================> DF-SCS-MP2 Energies <==================
	-----------------------------------------------------------
	 SCS Same-Spin Scale       =       0.3333333333333333 [-]
	 SCS Opposite-Spin Scale   =       1.2000000000000000 [-]
	 SCS Same-Spin Energy      =      -0.3005506595252988 [Eh]
	 SCS Opposite-Spin Energy  =      -3.2601403536510682 [Eh]
	 SCS Correlation Energy    =      -3.5606910131763669 [Eh]
	 SCS Total Energy          =    -889.9283297282066769 [Eh]
	-----------------------------------------------------------

  Dipole Moment: [D]
     X:     1.8936      Y:    -5.8737      Z:    -1.9298     Total:     6.4661

*** Psi4 exiting successfully. Buy a developer a beer!
