                               Psi4 1.4a3.dev225

  ==> Input File <==

--------------------------------------------------------------------------
#psi4
#
memory 32 gb

molecule  {
0 1
  O       -1.3191770     0.6538360    -1.0992360
  O       -1.5735610    -2.4640850     0.5135810
  O       -3.5606630    -1.0699430    -0.4600060
  O       -1.4399290     3.1254620     0.1265180
  O        1.1065530    -2.3833650     0.0076020
  N        0.7686360    -0.1579440    -0.3706350
  N        2.9363770    -0.9938720     0.1460080
  N        4.7058880     0.4431110     0.3611260
  C       -1.3768610    -1.0680440     0.5552780
  C       -2.7379840    -0.3746360     0.4578480
  C       -0.6377490    -0.5042940    -0.6790150
  C       -2.3707440     0.9655450    -0.1585060
  C       -1.8992030     1.9895750     0.8571380
  C        1.2309690     1.1190800    -0.4442230
  C        1.6104480    -1.2470590    -0.0585760
  C        2.5474650     1.3753690    -0.1998620
  C        3.3802090     0.2523040     0.0808410
  H       -0.8441360    -0.7686950     1.4698480
  H       -3.2257400    -0.2778790     1.4400230
  H       -0.6227070    -1.2428120    -1.4883720
  H       -3.1941750     1.3785730    -0.7472070
  H       -1.0952130     1.5703990     1.4802000
  H       -2.7410530     2.2466610     1.5166010
  H       -0.6710550    -2.8260740     0.3542250
  H       -3.3063470    -2.0105220    -0.3629290
  H        0.4929290     1.8778260    -0.6840360
  H       -1.2098800     3.8154810     0.7720340
  H        2.9156787     2.3408694    -0.2371108
  H        5.1589650     1.2712730    -0.0008400
  H        5.2635310    -0.4031270     0.3606700
units angstrom
no_reorient  #important for SAPT in psi4, default
symmetry c1  #important for SAPT in psi4, default
}

set PROPERTIES_ORIGIN ["COM"]
properties('MP2/aug-cc-pvtz', properties = ['dipole'])
--------------------------------------------------------------------------

    Molecular point group: c1
  Charge       = 0
  Multiplicity = 1
  Basis Set: AUG-CC-PVTZ
    Blend: AUG-CC-PVTZ
  Basis Set: (AUG-CC-PVTZ AUX)
    Blend: AUG-CC-PVTZ-JKFIT

    Orbital Energies [Eh]
    ---------------------

    Doubly Occupied:

       1A    -20.586730     2A    -20.581338     3A    -20.559277
       4A    -20.556382     5A    -20.519586     6A    -15.632756
       7A    -15.599708     8A    -15.551412     9A    -11.385781
      10A    -11.357608    11A    -11.339460    12A    -11.324815
      13A    -11.303542    14A    -11.297892    15A    -11.296897
      16A    -11.293449    17A    -11.240808    18A     -1.429144
      19A     -1.393956    20A     -1.382992    21A     -1.375460
      22A     -1.346474    23A     -1.303537    24A     -1.271194
      25A     -1.181049    26A     -1.080824    27A     -1.068011
      28A     -1.017713    29A     -0.936620    30A     -0.907198
      31A     -0.877383    32A     -0.830571    33A     -0.812307
      34A     -0.766440    35A     -0.752492    36A     -0.735418
      37A     -0.721978    38A     -0.708014    39A     -0.703492
      40A     -0.685567    41A     -0.676471    42A     -0.654639
      43A     -0.652443    44A     -0.633871    45A     -0.621188
      46A     -0.614928    47A     -0.607748    48A     -0.595150
      49A     -0.577028    50A     -0.564907    51A     -0.555752
      52A     -0.548336    53A     -0.536715    54A     -0.530996
      55A     -0.495503    56A     -0.480779    57A     -0.473666
      58A     -0.463359    59A     -0.457939    60A     -0.452967
      61A     -0.441985    62A     -0.430176    63A     -0.392114
      64A     -0.348103

  @DF-RHF Final Energy:  -886.37340231310611

   => Energetics <=

    Nuclear Repulsion Energy =           1334.8785204295170388
    One-Electron Energy =               -3867.4597664489565432
    Two-Electron Energy =                1646.2078437063332785
    Total Energy =                       -886.3734023131059985
  Basis Set: (AUG-CC-PVTZ AUX)
    Blend: AUG-CC-PVTZ-RI
    Molecular point group: c1

    Geometry (in Angstrom), charge = 0, multiplicity = 1:

       Center              X                  Y                   Z               Mass
    ------------   -----------------  -----------------  -----------------  -----------------
         O           -1.331846834575     0.682641032089    -1.083463256813    15.994914619570
         O           -1.586230834575    -2.435279967911     0.529353743187    15.994914619570
         O           -3.573332834575    -1.041137967911    -0.444233256813    15.994914619570
         O           -1.452598834575     3.154267032089     0.142290743187    15.994914619570
         O            1.093883165425    -2.354559967911     0.023374743187    15.994914619570
         N            0.755966165425    -0.129138967911    -0.354862256813    14.003074004430
         N            2.923707165425    -0.965066967911     0.161780743187    14.003074004430
         N            4.693218165425     0.471916032089     0.376898743187    14.003074004430
         C           -1.389530834575    -1.039238967911     0.571050743187    12.000000000000
         C           -2.750653834575    -0.345830967911     0.473620743187    12.000000000000
         C           -0.650418834575    -0.475488967911    -0.663242256813    12.000000000000
         C           -2.383413834575     0.994350032089    -0.142733256813    12.000000000000
         C           -1.911872834575     2.018380032089     0.872910743187    12.000000000000
         C            1.218299165425     1.147885032089    -0.428450256813    12.000000000000
         C            1.597778165425    -1.218253967911    -0.042803256813    12.000000000000
         C            2.534795165425     1.404174032089    -0.184089256813    12.000000000000
         C            3.367539165425     0.281109032089     0.096613743187    12.000000000000
         H           -0.856805834575    -0.739889967911     1.485620743187     1.007825032230
         H           -3.238409834575    -0.249073967911     1.455795743187     1.007825032230
         H           -0.635376834575    -1.214006967911    -1.472599256813     1.007825032230
         H           -3.206844834575     1.407378032089    -0.731434256813     1.007825032230
         H           -1.107882834575     1.599204032089     1.495972743187     1.007825032230
         H           -2.753722834575     2.275466032089     1.532373743187     1.007825032230
         H           -0.683724834575    -2.797268967911     0.369997743187     1.007825032230
         H           -3.319016834575    -1.981716967911    -0.347156256813     1.007825032230
         H            0.480259165425     1.906631032089    -0.668263256813     1.007825032230
         H           -1.222549834575     3.844286032089     0.787806743187     1.007825032230
         H            2.903008865425     2.369674432089    -0.221338056813     1.007825032230
         H            5.146295165425     1.300078032089     0.014932743187     1.007825032230
         H            5.250861165425    -0.374321967911     0.376442743187     1.007825032230

  Basis Set: AUG-CC-PVTZ
    Blend: AUG-CC-PVTZ
  Basis Set: (AUG-CC-PVTZ AUX)
    Blend: AUG-CC-PVTZ-JKFIT
	 Reference Energy          =    -886.3734023131061122 [Eh]
	 Singles Energy            =      -0.0000000000000000 [Eh]
	 Same-Spin Energy          =      -0.9017204101933790 [Eh]
	 Opposite-Spin Energy      =      -2.7155975511491364 [Eh]
	 Correlation Energy        =      -3.6173179613425153 [Eh]
	 Total Energy              =    -889.9907202744486767 [Eh]

	 ================> DF-SCS-MP2 Energies <==================
	-----------------------------------------------------------
	 SCS Same-Spin Scale       =       0.3333333333333333 [-]
	 SCS Opposite-Spin Scale   =       1.2000000000000000 [-]
	 SCS Same-Spin Energy      =      -0.3005734700644597 [Eh]
	 SCS Opposite-Spin Energy  =      -3.2587170613789636 [Eh]
	 SCS Correlation Energy    =      -3.5592905314434233 [Eh]
	 SCS Total Energy          =    -889.9326928445495923 [Eh]
	-----------------------------------------------------------

  Dipole Moment: [D]
     X:     2.7376      Y:     5.8042      Z:     1.9461     Total:     6.7060

*** Psi4 exiting successfully. Buy a developer a beer!
