                               Psi4 1.3.2 release

  ==> Input File <==

--------------------------------------------------------------------------
#psi4
#
memory 32 gb

molecule  {
0 1
  O       -1.2481010    -0.6526680     1.0325150
  O       -1.2449750     2.4828510    -0.6861630
  O       -3.2165300     1.5210990     0.7448870
  O       -2.3570290    -3.0668370     0.0949400
  O        1.3406266     2.2402469    -0.0711316
  N        0.8257618     0.0620719     0.2585723
  N        3.0572260     0.7205030    -0.2937270
  N        4.7164630    -0.8366550    -0.5722980
  C       -1.2894840     1.0784300    -0.5920770
  C       -2.7151710     0.6552070    -0.2573930
  C       -0.5254080     0.4815200     0.6000940
  C       -2.5292560    -0.7168860     0.3610560
  C       -2.5283440    -1.8503930    -0.6392900
  C        1.2197750    -1.2614080     0.3112740
  C        1.7555940     1.0674350    -0.0594030
  C        2.5111010    -1.6091400     0.0469950
  C        3.4119830    -0.5506530    -0.2589250
  H       -0.9376060     0.5914040    -1.5148910
  H       -3.3625820     0.6426650    -1.1464650
  H       -0.4402900     1.2218800     1.4039980
  H       -3.2819570    -0.9087340     1.1307830
  H       -1.7133080    -1.7003050    -1.3694640
  H       -3.4855610    -1.8340040    -1.1841350
  H       -0.2975250     2.7131790    -0.5250000
  H       -2.8475560     2.3997430     0.5086630
  H        0.4343110    -1.9634370     0.5690680
  H       -2.4338740    -3.7984320    -0.5432330
  H        2.8291120    -2.6453980     0.0739220
  H        5.1251800    -1.6708610    -0.1624140
  H        5.3198140    -0.0200540    -0.5682940
units angstrom
no_reorient  #important for SAPT in psi4, default
symmetry c1  #important for SAPT in psi4, default
}

set PROPERTIES_ORIGIN ["COM"]
properties('MP2/aug-cc-pvtz', properties = ['dipole'])
--------------------------------------------------------------------------

    Molecular point group: c1
  Charge       = 0
  Multiplicity = 1
  Basis Set: AUG-CC-PVTZ
    Blend: AUG-CC-PVTZ
  Basis Set: (AUG-CC-PVTZ AUX)
    Blend: AUG-CC-PVTZ-JKFIT

    Orbital Energies [Eh]
    ---------------------

    Doubly Occupied:

       1A    -20.581708     2A    -20.580284     3A    -20.556567
       4A    -20.555302     5A    -20.520955     6A    -15.635562
       7A    -15.601794     8A    -15.555563     9A    -11.388590
      10A    -11.360267    11A    -11.338303    12A    -11.330662
      13A    -11.300471    14A    -11.295912    15A    -11.294675
      16A    -11.291585    17A    -11.251105    18A     -1.428957
      19A     -1.396342    20A     -1.378870    21A     -1.372045
      22A     -1.344834    23A     -1.305205    24A     -1.272304
      25A     -1.184436    26A     -1.083247    27A     -1.066627
      28A     -1.020312    29A     -0.936109    30A     -0.907604
      31A     -0.877320    32A     -0.832120    33A     -0.811164
      34A     -0.767932    35A     -0.750979    36A     -0.735216
      37A     -0.721467    38A     -0.702827    39A     -0.697417
      40A     -0.686428    41A     -0.672584    42A     -0.654330
      43A     -0.652034    44A     -0.638065    45A     -0.620263
      46A     -0.614127    47A     -0.606222    48A     -0.592927
      49A     -0.575021    50A     -0.569229    51A     -0.553334
      52A     -0.545552    53A     -0.536833    54A     -0.531297
      55A     -0.495441    56A     -0.476545    57A     -0.473066
      58A     -0.461282    59A     -0.460192    60A     -0.451416
      61A     -0.440275    62A     -0.433885    63A     -0.396134
      64A     -0.351479

  @DF-RHF Final Energy:  -886.37245482421895

   => Energetics <=

    Nuclear Repulsion Energy =           1324.2408654425119039
    One-Electron Energy =               -3846.1854476819094089
    Two-Electron Energy =                1635.5721274151783291
    Total Energy =                       -886.3724548242189485
  Basis Set: (AUG-CC-PVTZ AUX)
    Blend: AUG-CC-PVTZ-RI
    Molecular point group: c1

    Geometry (in Angstrom), charge = 0, multiplicity = 1:

       Center              X                  Y                   Z               Mass
    ------------   -----------------  -----------------  -----------------  -----------------
         O           -1.245775110884    -0.653191991901     1.032007543407    15.994914619570
         O           -1.242649110884     2.482327008099    -0.686670456593    15.994914619570
         O           -3.214204110884     1.520575008099     0.744379543407    15.994914619570
         O           -2.354703110884    -3.067360991901     0.094432543407    15.994914619570
         O            1.342952489116     2.239722908099    -0.071639056593    15.994914619570
         N            0.828087689116     0.061547908099     0.258064843407    14.003074004430
         N            3.059551889116     0.719979008099    -0.294234456593    14.003074004430
         N            4.718788889116    -0.837178991901    -0.572805456593    14.003074004430
         C           -1.287158110884     1.077906008099    -0.592584456593    12.000000000000
         C           -2.712845110884     0.654683008099    -0.257900456593    12.000000000000
         C           -0.523082110884     0.480996008099     0.599586543407    12.000000000000
         C           -2.526930110884    -0.717409991901     0.360548543407    12.000000000000
         C           -2.526018110884    -1.850916991901    -0.639797456593    12.000000000000
         C            1.222100889116    -1.261931991901     0.310766543407    12.000000000000
         C            1.757919889116     1.066911008099    -0.059910456593    12.000000000000
         C            2.513426889116    -1.609663991901     0.046487543407    12.000000000000
         C            3.414308889116    -0.551176991901    -0.259432456593    12.000000000000
         H           -0.935280110884     0.590880008099    -1.515398456593     1.007825032230
         H           -3.360256110884     0.642141008099    -1.146972456593     1.007825032230
         H           -0.437964110884     1.221356008099     1.403490543407     1.007825032230
         H           -3.279631110884    -0.909257991901     1.130275543407     1.007825032230
         H           -1.710982110884    -1.700828991901    -1.369971456593     1.007825032230
         H           -3.483235110884    -1.834527991901    -1.184642456593     1.007825032230
         H           -0.295199110884     2.712655008099    -0.525507456593     1.007825032230
         H           -2.845230110884     2.399219008099     0.508155543407     1.007825032230
         H            0.436636889116    -1.963960991901     0.568560543407     1.007825032230
         H           -2.431548110884    -3.798955991901    -0.543740456593     1.007825032230
         H            2.831437889116    -2.645921991901     0.073414543407     1.007825032230
         H            5.127505889116    -1.671384991901    -0.162921456593     1.007825032230
         H            5.322139889116    -0.020577991901    -0.568801456593     1.007825032230

  Basis Set: AUG-CC-PVTZ
    Blend: AUG-CC-PVTZ
  Basis Set: (AUG-CC-PVTZ AUX)
    Blend: AUG-CC-PVTZ-JKFIT
	 Reference Energy          =    -886.3724548242189485 [Eh]
	 Singles Energy            =      -0.0000000000000000 [Eh]
	 Same-Spin Energy          =      -0.9012285254803321 [Eh]
	 Opposite-Spin Energy      =      -2.7150504982282229 [Eh]
	 Correlation Energy        =      -3.6162790237085547 [Eh]
	 Total Energy              =    -889.9887338479275058 [Eh]

	 ================> DF-SCS-MP2 Energies <==================
	-----------------------------------------------------------
	 SCS Same-Spin Scale       =       0.3333333333333333 [-]
	 SCS Opposite-Spin Scale   =       1.2000000000000000 [-]
	 SCS Same-Spin Energy      =      -0.3004095084934440 [Eh]
	 SCS Opposite-Spin Energy  =      -3.2580605978738673 [Eh]
	 SCS Correlation Energy    =      -3.5584701063673112 [Eh]
	 SCS Total Energy          =    -889.9309249305862295 [Eh]
	-----------------------------------------------------------

  Dipole Moment: [D]
     X:     1.9102      Y:    -6.0001      Z:    -1.8455     Total:     6.5617

*** Psi4 exiting successfully. Buy a developer a beer!
