                               Psi4 1.4a3.dev225

  ==> Input File <==

--------------------------------------------------------------------------
#psi4
#
memory 32 gb

molecule  {
0 1
  O       -1.3191770     0.6538360    -1.0992360
  O       -1.5735610    -2.4640850     0.5135810
  O       -3.5606630    -1.0699430    -0.4600060
  O       -1.4399290     3.1254620     0.1265180
  O        1.1065530    -2.3833650     0.0076020
  N        0.7686360    -0.1579440    -0.3706350
  N        2.9363770    -0.9938720     0.1460080
  N        4.7058880     0.4431110     0.3611260
  C       -1.3768610    -1.0680440     0.5552780
  C       -2.7379840    -0.3746360     0.4578480
  C       -0.6377490    -0.5042940    -0.6790150
  C       -2.3707440     0.9655450    -0.1585060
  C       -1.9147407     1.9558322     0.8236715
  C        1.2309690     1.1190800    -0.4442230
  C        1.6104480    -1.2470590    -0.0585760
  C        2.5474650     1.3753690    -0.1998620
  C        3.3802090     0.2523040     0.0808410
  H       -0.8441360    -0.7686950     1.4698480
  H       -3.2257400    -0.2778790     1.4400230
  H       -0.6227070    -1.2428120    -1.4883720
  H       -3.1941750     1.3785730    -0.7472070
  H       -1.0952130     1.5703990     1.4802000
  H       -2.7410530     2.2466610     1.5166010
  H       -0.6710550    -2.8260740     0.3542250
  H       -3.3063470    -2.0105220    -0.3629290
  H        0.4929290     1.8778260    -0.6840360
  H       -1.2098800     3.8154810     0.7720340
  H        2.9334840     2.3875570    -0.2389120
  H        5.1589650     1.2712730    -0.0008400
  H        5.2635310    -0.4031270     0.3606700
units angstrom
no_reorient  #important for SAPT in psi4, default
symmetry c1  #important for SAPT in psi4, default
}

set PROPERTIES_ORIGIN ["COM"]
properties('MP2/aug-cc-pvtz', properties = ['dipole'])
--------------------------------------------------------------------------

    Molecular point group: c1
  Charge       = 0
  Multiplicity = 1
  Basis Set: AUG-CC-PVTZ
    Blend: AUG-CC-PVTZ
  Basis Set: (AUG-CC-PVTZ AUX)
    Blend: AUG-CC-PVTZ-JKFIT

    Orbital Energies [Eh]
    ---------------------

    Doubly Occupied:

       1A    -20.583934     2A    -20.581913     3A    -20.559781
       4A    -20.557291     5A    -20.519787     6A    -15.633011
       7A    -15.599622     8A    -15.551726     9A    -11.386004
      10A    -11.358016    11A    -11.340026    12A    -11.324981
      13A    -11.305753    14A    -11.297508    15A    -11.296829
      16A    -11.294909    17A    -11.246434    18A     -1.430265
      19A     -1.393900    20A     -1.380478    21A     -1.372298
      22A     -1.347212    23A     -1.303679    24A     -1.271431
      25A     -1.181222    26A     -1.080189    27A     -1.074921
      28A     -1.020059    29A     -0.937091    30A     -0.906360
      31A     -0.876348    32A     -0.830728    33A     -0.812954
      34A     -0.766496    35A     -0.750405    36A     -0.735671
      37A     -0.721704    38A     -0.706698    39A     -0.704788
      40A     -0.684692    41A     -0.676396    42A     -0.650866
      43A     -0.649460    44A     -0.633559    45A     -0.621150
      46A     -0.614415    47A     -0.608818    48A     -0.593291
      49A     -0.575871    50A     -0.563969    51A     -0.553510
      52A     -0.550639    53A     -0.537104    54A     -0.531690
      55A     -0.495842    56A     -0.478011    57A     -0.472543
      58A     -0.467242    59A     -0.458147    60A     -0.454326
      61A     -0.442771    62A     -0.430595    63A     -0.392289
      64A     -0.348223

  @DF-RHF Final Energy:  -886.37120841615001

   => Energetics <=

    Nuclear Repulsion Energy =           1335.4089572086095359
    One-Electron Energy =               -3868.5046464395713883
    Two-Electron Energy =                1646.7244808148118409
    Total Energy =                       -886.3712084161500115
  Basis Set: (AUG-CC-PVTZ AUX)
    Blend: AUG-CC-PVTZ-RI
    Molecular point group: c1

    Geometry (in Angstrom), charge = 0, multiplicity = 1:

       Center              X                  Y                   Z               Mass
    ------------   -----------------  -----------------  -----------------  -----------------
         O           -1.331153630913     0.684113191629    -1.081803703856    15.994914619570
         O           -1.585537630913    -2.433807808371     0.531013296144    15.994914619570
         O           -3.572639630913    -1.039665808371    -0.442573703856    15.994914619570
         O           -1.451905630913     3.155739191629     0.143950296144    15.994914619570
         O            1.094576369087    -2.353087808371     0.025034296144    15.994914619570
         N            0.756659369087    -0.127666808371    -0.353202703856    14.003074004430
         N            2.924400369087    -0.963594808371     0.163440296144    14.003074004430
         N            4.693911369087     0.473388191629     0.378558296144    14.003074004430
         C           -1.388837630913    -1.037766808371     0.572710296144    12.000000000000
         C           -2.749960630913    -0.344358808371     0.475280296144    12.000000000000
         C           -0.649725630913    -0.474016808371    -0.661582703856    12.000000000000
         C           -2.382720630913     0.995822191629    -0.141073703856    12.000000000000
         C           -1.926717330913     1.986109391629     0.841103796144    12.000000000000
         C            1.218992369087     1.149357191629    -0.426790703856    12.000000000000
         C            1.598471369087    -1.216781808371    -0.041143703856    12.000000000000
         C            2.535488369087     1.405646191629    -0.182429703856    12.000000000000
         C            3.368232369087     0.282581191629     0.098273296144    12.000000000000
         H           -0.856112630913    -0.738417808371     1.487280296144     1.007825032230
         H           -3.237716630913    -0.247601808371     1.457455296144     1.007825032230
         H           -0.634683630913    -1.212534808371    -1.470939703856     1.007825032230
         H           -3.206151630913     1.408850191629    -0.729774703856     1.007825032230
         H           -1.107189630913     1.600676191629     1.497632296144     1.007825032230
         H           -2.753029630913     2.276938191629     1.534033296144     1.007825032230
         H           -0.683031630913    -2.795796808371     0.371657296144     1.007825032230
         H           -3.318323630913    -1.980244808371    -0.345496703856     1.007825032230
         H            0.480952369087     1.908103191629    -0.666603703856     1.007825032230
         H           -1.221856630913     3.845758191629     0.789466296144     1.007825032230
         H            2.921507369087     2.417834191629    -0.221479703856     1.007825032230
         H            5.146988369087     1.301550191629     0.016592296144     1.007825032230
         H            5.251554369087    -0.372849808371     0.378102296144     1.007825032230

  Basis Set: AUG-CC-PVTZ
    Blend: AUG-CC-PVTZ
  Basis Set: (AUG-CC-PVTZ AUX)
    Blend: AUG-CC-PVTZ-JKFIT
	 Reference Energy          =    -886.3712084161500115 [Eh]
	 Singles Energy            =      -0.0000000000000000 [Eh]
	 Same-Spin Energy          =      -0.9021480209665583 [Eh]
	 Opposite-Spin Energy      =      -2.7163118086263571 [Eh]
	 Correlation Energy        =      -3.6184598295929153 [Eh]
	 Total Energy              =    -889.9896682457429051 [Eh]

	 ================> DF-SCS-MP2 Energies <==================
	-----------------------------------------------------------
	 SCS Same-Spin Scale       =       0.3333333333333333 [-]
	 SCS Opposite-Spin Scale   =       1.2000000000000000 [-]
	 SCS Same-Spin Energy      =      -0.3007160069888528 [Eh]
	 SCS Opposite-Spin Energy  =      -3.2595741703516286 [Eh]
	 SCS Correlation Energy    =      -3.5602901773404811 [Eh]
	 SCS Total Energy          =    -889.9314985934904598 [Eh]
	-----------------------------------------------------------

  Dipole Moment: [D]
     X:     2.7041      Y:     5.7252      Z:     1.9526     Total:     6.6259

*** Psi4 exiting successfully. Buy a developer a beer!
