                               Psi4 1.3.2 release

  ==> Input File <==

--------------------------------------------------------------------------
#psi4
#
memory 32 gb

molecule  {
0 1
  O       -1.2481010    -0.6526680     1.0325150
  O       -1.2449750     2.4828510    -0.6861630
  O       -3.2165300     1.5210990     0.7448870
  O       -2.3570290    -3.0668370     0.0949400
  O        1.3605300     2.2470340    -0.0765420
  N        0.8434040     0.0452230     0.2559430
  N        3.0572260     0.7205030    -0.2937270
  N        4.7164630    -0.8366550    -0.5722980
  C       -1.2894840     1.0784300    -0.5920770
  C       -2.7151710     0.6552070    -0.2573930
  C       -0.5254080     0.4815200     0.6000940
  C       -2.5292560    -0.7168860     0.3610560
  C       -2.5284043    -1.7754156    -0.5731207
  C        1.2197750    -1.2614080     0.3112740
  C        1.7555940     1.0674350    -0.0594030
  C        2.5111010    -1.6091400     0.0469950
  C        3.4119830    -0.5506530    -0.2589250
  H       -0.9376060     0.5914040    -1.5148910
  H       -3.3625820     0.6426650    -1.1464650
  H       -0.4402900     1.2218800     1.4039980
  H       -3.2819570    -0.9087340     1.1307830
  H       -1.7133080    -1.7003050    -1.3694640
  H       -3.4855610    -1.8340040    -1.1841350
  H       -0.2975250     2.7131790    -0.5250000
  H       -2.8475560     2.3997430     0.5086630
  H        0.4343110    -1.9634370     0.5690680
  H       -2.4338740    -3.7984320    -0.5432330
  H        2.8291120    -2.6453980     0.0739220
  H        5.1251800    -1.6708610    -0.1624140
  H        5.3198140    -0.0200540    -0.5682940
units angstrom
no_reorient  #important for SAPT in psi4, default
symmetry c1  #important for SAPT in psi4, default
}

set PROPERTIES_ORIGIN ["COM"]
properties('MP2/aug-cc-pvtz', properties = ['dipole'])
--------------------------------------------------------------------------

    Molecular point group: c1
  Charge       = 0
  Multiplicity = 1
  Basis Set: AUG-CC-PVTZ
    Blend: AUG-CC-PVTZ
  Basis Set: (AUG-CC-PVTZ AUX)
    Blend: AUG-CC-PVTZ-JKFIT

    Orbital Energies [Eh]
    ---------------------

    Doubly Occupied:

       1A    -20.582763     2A    -20.576406     3A    -20.559573
       4A    -20.558231     5A    -20.522363     6A    -15.637321
       7A    -15.599973     8A    -15.553537     9A    -11.388601
      10A    -11.358018    11A    -11.342609    12A    -11.328597
      13A    -11.305614    14A    -11.297838    15A    -11.296116
      16A    -11.294286    17A    -11.248629    18A     -1.431663
      19A     -1.397066    20A     -1.380341    21A     -1.360102
      22A     -1.347728    23A     -1.306381    24A     -1.274279
      25A     -1.182573    26A     -1.086929    27A     -1.080084
      28A     -1.027262    29A     -0.937328    30A     -0.909138
      31A     -0.876442    32A     -0.833736    33A     -0.812997
      34A     -0.767316    35A     -0.752922    36A     -0.737765
      37A     -0.720122    38A     -0.704972    39A     -0.696989
      40A     -0.685308    41A     -0.674405    42A     -0.653845
      43A     -0.650475    44A     -0.639000    45A     -0.620383
      46A     -0.618736    47A     -0.606216    48A     -0.594415
      49A     -0.575755    50A     -0.565261    51A     -0.554849
      52A     -0.545738    53A     -0.538136    54A     -0.530743
      55A     -0.498186    56A     -0.477445    57A     -0.471494
      58A     -0.467104    59A     -0.460152    60A     -0.452892
      61A     -0.441822    62A     -0.434098    63A     -0.395513
      64A     -0.350273

  @DF-RHF Final Energy:  -886.36092845601377

   => Energetics <=

    Nuclear Repulsion Energy =           1325.4935446316894740
    One-Electron Energy =               -3848.5552426852182180
    Two-Electron Energy =                1636.7007695975150909
    Total Energy =                       -886.3609284560136530
  Basis Set: (AUG-CC-PVTZ AUX)
    Blend: AUG-CC-PVTZ-RI
    Molecular point group: c1

    Geometry (in Angstrom), charge = 0, multiplicity = 1:

       Center              X                  Y                   Z               Mass
    ------------   -----------------  -----------------  -----------------  -----------------
         O           -1.248098057206    -0.656369274899     1.029248537317    15.994914619570
         O           -1.244972057206     2.479149725101    -0.689429462683    15.994914619570
         O           -3.216527057206     1.517397725101     0.741620537317    15.994914619570
         O           -2.357026057206    -3.070538274899     0.091673537317    15.994914619570
         O            1.360532942794     2.243332725101    -0.079808462683    15.994914619570
         N            0.843406942794     0.041521725101     0.252676537317    14.003074004430
         N            3.057228942794     0.716801725101    -0.296993462683    14.003074004430
         N            4.716465942794    -0.840356274899    -0.575564462683    14.003074004430
         C           -1.289481057206     1.074728725101    -0.595343462683    12.000000000000
         C           -2.715168057206     0.651505725101    -0.260659462683    12.000000000000
         C           -0.525405057206     0.477818725101     0.596827537317    12.000000000000
         C           -2.529253057206    -0.720587274899     0.357789537317    12.000000000000
         C           -2.528401357206    -1.779116874899    -0.576387162683    12.000000000000
         C            1.219777942794    -1.265109274899     0.308007537317    12.000000000000
         C            1.755596942794     1.063733725101    -0.062669462683    12.000000000000
         C            2.511103942794    -1.612841274899     0.043728537317    12.000000000000
         C            3.411985942794    -0.554354274899    -0.262191462683    12.000000000000
         H           -0.937603057206     0.587702725101    -1.518157462683     1.007825032230
         H           -3.362579057206     0.638963725101    -1.149731462683     1.007825032230
         H           -0.440287057206     1.218178725101     1.400731537317     1.007825032230
         H           -3.281954057206    -0.912435274899     1.127516537317     1.007825032230
         H           -1.713305057206    -1.704006274899    -1.372730462683     1.007825032230
         H           -3.485558057206    -1.837705274899    -1.187401462683     1.007825032230
         H           -0.297522057206     2.709477725101    -0.528266462683     1.007825032230
         H           -2.847553057206     2.396041725101     0.505396537317     1.007825032230
         H            0.434313942794    -1.967138274899     0.565801537317     1.007825032230
         H           -2.433871057206    -3.802133274899    -0.546499462683     1.007825032230
         H            2.829114942794    -2.649099274899     0.070655537317     1.007825032230
         H            5.125182942794    -1.674562274899    -0.165680462683     1.007825032230
         H            5.319816942794    -0.023755274899    -0.571560462683     1.007825032230

  Basis Set: AUG-CC-PVTZ
    Blend: AUG-CC-PVTZ
  Basis Set: (AUG-CC-PVTZ AUX)
    Blend: AUG-CC-PVTZ-JKFIT
	 Reference Energy          =    -886.3609284560137667 [Eh]
	 Singles Energy            =      -0.0000000000000000 [Eh]
	 Same-Spin Energy          =      -0.9021766166218009 [Eh]
	 Opposite-Spin Energy      =      -2.7162309397180233 [Eh]
	 Correlation Energy        =      -3.6184075563398244 [Eh]
	 Total Energy              =    -889.9793360123535422 [Eh]

	 ================> DF-SCS-MP2 Energies <==================
	-----------------------------------------------------------
	 SCS Same-Spin Scale       =       0.3333333333333333 [-]
	 SCS Opposite-Spin Scale   =       1.2000000000000000 [-]
	 SCS Same-Spin Energy      =      -0.3007255388739336 [Eh]
	 SCS Opposite-Spin Energy  =      -3.2594771276616279 [Eh]
	 SCS Correlation Energy    =      -3.5602026665355613 [Eh]
	 SCS Total Energy          =    -889.9211311225493546 [Eh]
	-----------------------------------------------------------

  Dipole Moment: [D]
     X:     1.7069      Y:    -5.7672      Z:    -1.8273     Total:     6.2859

*** Psi4 exiting successfully. Buy a developer a beer!
