                               Psi4 1.3.2 release

  ==> Input File <==

--------------------------------------------------------------------------
#psi4
#
memory 32 gb

molecule  {
0 1
  O       -1.2481010    -0.6526680     1.0325150
  O       -1.2449750     2.4828510    -0.6861630
  O       -3.2356100     1.5266947     0.7302038
  O       -2.3570290    -3.0668370     0.0949400
  O        1.3605300     2.2470340    -0.0765420
  N        0.8434040     0.0452230     0.2559430
  N        3.0572260     0.7205030    -0.2937270
  N        4.7164630    -0.8366550    -0.5722980
  C       -1.2894840     1.0784300    -0.5920770
  C       -2.7151710     0.6552070    -0.2573930
  C       -0.5254080     0.4815200     0.6000940
  C       -2.5292560    -0.7168860     0.3610560
  C       -2.5283440    -1.8503930    -0.6392900
  C        1.2197750    -1.2614080     0.3112740
  C        1.7555940     1.0674350    -0.0594030
  C        2.5111010    -1.6091400     0.0469950
  C        3.4119830    -0.5506530    -0.2589250
  H       -0.9376060     0.5914040    -1.5148910
  H       -3.3743093     0.6552160    -1.1378951
  H       -0.4402900     1.2218800     1.4039980
  H       -3.2819570    -0.9087340     1.1307830
  H       -1.7133080    -1.7003050    -1.3694640
  H       -3.4855610    -1.8340040    -1.1841350
  H       -0.2975250     2.7131790    -0.5250000
  H       -2.8475560     2.3997430     0.5086630
  H        0.4343110    -1.9634370     0.5690680
  H       -2.4338740    -3.7984320    -0.5432330
  H        2.8291120    -2.6453980     0.0739220
  H        5.1251800    -1.6708610    -0.1624140
  H        5.3198140    -0.0200540    -0.5682940
units angstrom
no_reorient  #important for SAPT in psi4, default
symmetry c1  #important for SAPT in psi4, default
}

set PROPERTIES_ORIGIN ["COM"]
properties('MP2/aug-cc-pvtz', properties = ['dipole'])
--------------------------------------------------------------------------

    Molecular point group: c1
  Charge       = 0
  Multiplicity = 1
  Basis Set: AUG-CC-PVTZ
    Blend: AUG-CC-PVTZ
  Basis Set: (AUG-CC-PVTZ AUX)
    Blend: AUG-CC-PVTZ-JKFIT

    Orbital Energies [Eh]
    ---------------------

    Doubly Occupied:

       1A    -20.582330     2A    -20.582051     3A    -20.557521
       4A    -20.556799     5A    -20.522228     6A    -15.637221
       7A    -15.600027     8A    -15.553553     9A    -11.388505
      10A    -11.358068    11A    -11.342066    12A    -11.328764
      13A    -11.301312    14A    -11.297230    15A    -11.297166
      16A    -11.292707    17A    -11.248785    18A     -1.429583
      19A     -1.396596    20A     -1.380070    21A     -1.372964
      22A     -1.346345    23A     -1.306293    24A     -1.274050
      25A     -1.182459    26A     -1.082228    27A     -1.067692
      28A     -1.021680    29A     -0.935565    30A     -0.909710
      31A     -0.877461    32A     -0.832541    33A     -0.812096
      34A     -0.767201    35A     -0.752640    36A     -0.736521
      37A     -0.720573    38A     -0.703018    39A     -0.698563
      40A     -0.685841    41A     -0.671849    42A     -0.654771
      43A     -0.651707    44A     -0.638854    45A     -0.620814
      46A     -0.614632    47A     -0.607324    48A     -0.594087
      49A     -0.575837    50A     -0.569904    51A     -0.554506
      52A     -0.545480    53A     -0.537784    54A     -0.531943
      55A     -0.498490    56A     -0.477591    57A     -0.473803
      58A     -0.462574    59A     -0.459960    60A     -0.453100
      61A     -0.440676    62A     -0.433370    63A     -0.395423
      64A     -0.350264

  @DF-RHF Final Energy:  -886.37370293544677

   => Energetics <=

    Nuclear Repulsion Energy =           1323.3106551391165340
    One-Electron Energy =               -3844.2631803153717556
    Two-Electron Energy =                1634.5788222408084494
    Total Energy =                       -886.3737029354467722
  Basis Set: (AUG-CC-PVTZ AUX)
    Blend: AUG-CC-PVTZ-RI
    Molecular point group: c1

    Geometry (in Angstrom), charge = 0, multiplicity = 1:

       Center              X                  Y                   Z               Mass
    ------------   -----------------  -----------------  -----------------  -----------------
         O           -1.246796957755    -0.653088220385     1.033445624698    15.994914619570
         O           -1.243670957755     2.482430779615    -0.685232375302    15.994914619570
         O           -3.234305957755     1.526274479615     0.731134424698    15.994914619570
         O           -2.355724957755    -3.067257220385     0.095870624698    15.994914619570
         O            1.361834042245     2.246613779615    -0.075611375302    15.994914619570
         N            0.844708042245     0.044802779615     0.256873624698    14.003074004430
         N            3.058530042245     0.720082779615    -0.292796375302    14.003074004430
         N            4.717767042245    -0.837075220385    -0.571367375302    14.003074004430
         C           -1.288179957755     1.078009779615    -0.591146375302    12.000000000000
         C           -2.713866957755     0.654786779615    -0.256462375302    12.000000000000
         C           -0.524103957755     0.481099779615     0.601024624698    12.000000000000
         C           -2.527951957755    -0.717306220385     0.361986624698    12.000000000000
         C           -2.527039957755    -1.850813220385    -0.638359375302    12.000000000000
         C            1.221079042245    -1.261828220385     0.312204624698    12.000000000000
         C            1.756898042245     1.067014779615    -0.058472375302    12.000000000000
         C            2.512405042245    -1.609560220385     0.047925624698    12.000000000000
         C            3.413287042245    -0.551073220385    -0.257994375302    12.000000000000
         H           -0.936301957755     0.590983779615    -1.513960375302     1.007825032230
         H           -3.373005257755     0.654795779615    -1.136964475302     1.007825032230
         H           -0.438985957755     1.221459779615     1.404928624698     1.007825032230
         H           -3.280652957755    -0.909154220385     1.131713624698     1.007825032230
         H           -1.712003957755    -1.700725220385    -1.368533375302     1.007825032230
         H           -3.484256957755    -1.834424220385    -1.183204375302     1.007825032230
         H           -0.296220957755     2.712758779615    -0.524069375302     1.007825032230
         H           -2.846251957755     2.399322779615     0.509593624698     1.007825032230
         H            0.435615042245    -1.963857220385     0.569998624698     1.007825032230
         H           -2.432569957755    -3.798852220385    -0.542302375302     1.007825032230
         H            2.830416042245    -2.645818220385     0.074852624698     1.007825032230
         H            5.126484042245    -1.671281220385    -0.161483375302     1.007825032230
         H            5.321118042245    -0.020474220385    -0.567363375302     1.007825032230

  Basis Set: AUG-CC-PVTZ
    Blend: AUG-CC-PVTZ
  Basis Set: (AUG-CC-PVTZ AUX)
    Blend: AUG-CC-PVTZ-JKFIT
	 Reference Energy          =    -886.3737029354467722 [Eh]
	 Singles Energy            =      -0.0000000000000000 [Eh]
	 Same-Spin Energy          =      -0.9011455156086249 [Eh]
	 Opposite-Spin Energy      =      -2.7147801140906047 [Eh]
	 Correlation Energy        =      -3.6159256296992295 [Eh]
	 Total Energy              =    -889.9896285651459493 [Eh]

	 ================> DF-SCS-MP2 Energies <==================
	-----------------------------------------------------------
	 SCS Same-Spin Scale       =       0.3333333333333333 [-]
	 SCS Opposite-Spin Scale   =       1.2000000000000000 [-]
	 SCS Same-Spin Energy      =      -0.3003818385362083 [Eh]
	 SCS Opposite-Spin Energy  =      -3.2577361369087257 [Eh]
	 SCS Correlation Energy    =      -3.5581179754449339 [Eh]
	 SCS Total Energy          =    -889.9318209108917017 [Eh]
	-----------------------------------------------------------

  Dipole Moment: [D]
     X:     1.7683      Y:    -5.9702      Z:    -1.8023     Total:     6.4821

*** Psi4 exiting successfully. Buy a developer a beer!
