                               Psi4 1.3.2 release

  ==> Input File <==

--------------------------------------------------------------------------
#psi4
#
memory 32 gb

molecule  {
0 1
  O       -1.2481010    -0.6526680     1.0325150
  O       -1.2449750     2.4828510    -0.6861630
  O       -3.2165300     1.5210990     0.7448870
  O       -2.3570290    -3.0668370     0.0949400
  O        1.3605300     2.2470340    -0.0765420
  N        0.8434040     0.0452230     0.2559430
  N        3.0572260     0.7205030    -0.2937270
  N        4.7164630    -0.8366550    -0.5722980
  C       -1.2894840     1.0784300    -0.5920770
  C       -2.7151710     0.6552070    -0.2573930
  C       -0.5254080     0.4815200     0.6000940
  C       -2.5292560    -0.7168860     0.3610560
  C       -2.5283440    -1.8503930    -0.6392900
  C        1.2197750    -1.2614080     0.3112740
  C        1.7555940     1.0674350    -0.0594030
  C        2.5111010    -1.6091400     0.0469950
  C        3.4119830    -0.5506530    -0.2589250
  H       -0.9376060     0.5914040    -1.5148910
  H       -3.3625820     0.6426650    -1.1464650
  H       -0.4402900     1.2218800     1.4039980
  H       -3.2819570    -0.9087340     1.1307830
  H       -1.7133080    -1.7003050    -1.3694640
  H       -3.4855610    -1.8340040    -1.1841350
  H       -0.2975250     2.7131790    -0.5250000
  H       -2.8475560     2.3997430     0.5086630
  H        0.4343110    -1.9634370     0.5690680
  H       -2.4338740    -3.7984320    -0.5432330
  H        2.7704541    -2.4542578     0.0689553
  H        5.1251800    -1.6708610    -0.1624140
  H        5.3198140    -0.0200540    -0.5682940
units angstrom
no_reorient  #important for SAPT in psi4, default
symmetry c1  #important for SAPT in psi4, default
}

set PROPERTIES_ORIGIN ["COM"]
properties('MP2/aug-cc-pvtz', properties = ['dipole'])
--------------------------------------------------------------------------

    Molecular point group: c1
  Charge       = 0
  Multiplicity = 1
  Basis Set: AUG-CC-PVTZ
    Blend: AUG-CC-PVTZ
  Basis Set: (AUG-CC-PVTZ AUX)
    Blend: AUG-CC-PVTZ-JKFIT

    Orbital Energies [Eh]
    ---------------------

    Doubly Occupied:

       1A    -20.582273     2A    -20.581484     3A    -20.557697
       4A    -20.557097     5A    -20.521737     6A    -15.636443
       7A    -15.600102     8A    -15.552259     9A    -11.387835
      10A    -11.356481    11A    -11.341269    12A    -11.327891
      13A    -11.301180    14A    -11.296860    15A    -11.296499
      16A    -11.292866    17A    -11.225455    18A     -1.429173
      19A     -1.396056    20A     -1.380025    21A     -1.372784
      22A     -1.346177    23A     -1.305902    24A     -1.273531
      25A     -1.181901    26A     -1.090665    27A     -1.067652
      28A     -1.023870    29A     -0.936682    30A     -0.913186
      31A     -0.880060    32A     -0.835330    33A     -0.811776
      34A     -0.768739    35A     -0.763767    36A     -0.737458
      37A     -0.720093    38A     -0.703944    39A     -0.700040
      40A     -0.690909    41A     -0.680803    42A     -0.664992
      43A     -0.654333    44A     -0.640805    45A     -0.620636
      46A     -0.614720    47A     -0.606519    48A     -0.599501
      49A     -0.575675    50A     -0.569598    51A     -0.554062
      52A     -0.545935    53A     -0.537706    54A     -0.531785
      55A     -0.497728    56A     -0.477529    57A     -0.474386
      58A     -0.462125    59A     -0.460078    60A     -0.452722
      61A     -0.440650    62A     -0.433018    63A     -0.394855
      64A     -0.349995

  @DF-RHF Final Energy:  -886.33828587893925

   => Energetics <=

    Nuclear Repulsion Energy =           1325.0337527158608282
    One-Electron Energy =               -3847.5734655518654108
    Two-Electron Energy =                1636.2014269570654506
    Total Energy =                       -886.3382858789391321
  Basis Set: (AUG-CC-PVTZ AUX)
    Blend: AUG-CC-PVTZ-RI
    Molecular point group: c1

    Geometry (in Angstrom), charge = 0, multiplicity = 1:

       Center              X                  Y                   Z               Mass
    ------------   -----------------  -----------------  -----------------  -----------------
         O           -1.247857840101    -0.653460451205     1.032535599265    15.994914619570
         O           -1.244731840101     2.482058548795    -0.686142400735    15.994914619570
         O           -3.216286840101     1.520306548795     0.744907599265    15.994914619570
         O           -2.356785840101    -3.067629451205     0.094960599265    15.994914619570
         O            1.360773159899     2.246241548795    -0.076521400735    15.994914619570
         N            0.843647159899     0.044430548795     0.255963599265    14.003074004430
         N            3.057469159899     0.719710548795    -0.293706400735    14.003074004430
         N            4.716706159899    -0.837447451205    -0.572277400735    14.003074004430
         C           -1.289240840101     1.077637548795    -0.592056400735    12.000000000000
         C           -2.714927840101     0.654414548795    -0.257372400735    12.000000000000
         C           -0.525164840101     0.480727548795     0.600114599265    12.000000000000
         C           -2.529012840101    -0.717678451205     0.361076599265    12.000000000000
         C           -2.528100840101    -1.851185451205    -0.639269400735    12.000000000000
         C            1.220018159899    -1.262200451205     0.311294599265    12.000000000000
         C            1.755837159899     1.066642548795    -0.059382400735    12.000000000000
         C            2.511344159899    -1.609932451205     0.047015599265    12.000000000000
         C            3.412226159899    -0.551445451205    -0.258904400735    12.000000000000
         H           -0.937362840101     0.590611548795    -1.514870400735     1.007825032230
         H           -3.362338840101     0.641872548795    -1.146444400735     1.007825032230
         H           -0.440046840101     1.221087548795     1.404018599265     1.007825032230
         H           -3.281713840101    -0.909526451205     1.130803599265     1.007825032230
         H           -1.713064840101    -1.701097451205    -1.369443400735     1.007825032230
         H           -3.485317840101    -1.834796451205    -1.184114400735     1.007825032230
         H           -0.297281840101     2.712386548795    -0.524979400735     1.007825032230
         H           -2.847312840101     2.398950548795     0.508683599265     1.007825032230
         H            0.434554159899    -1.964229451205     0.569088599265     1.007825032230
         H           -2.433630840101    -3.799224451205    -0.543212400735     1.007825032230
         H            2.770697259899    -2.455050251205     0.068975899265     1.007825032230
         H            5.125423159899    -1.671653451205    -0.162393400735     1.007825032230
         H            5.320057159899    -0.020846451205    -0.568273400735     1.007825032230

  Basis Set: AUG-CC-PVTZ
    Blend: AUG-CC-PVTZ
  Basis Set: (AUG-CC-PVTZ AUX)
    Blend: AUG-CC-PVTZ-JKFIT
	 Reference Energy          =    -886.3382858789392458 [Eh]
	 Singles Energy            =      -0.0000000000000000 [Eh]
	 Same-Spin Energy          =      -0.9010027371672569 [Eh]
	 Opposite-Spin Energy      =      -2.7143542142405344 [Eh]
	 Correlation Energy        =      -3.6153569514077910 [Eh]
	 Total Energy              =    -889.9536428303470075 [Eh]

	 ================> DF-SCS-MP2 Energies <==================
	-----------------------------------------------------------
	 SCS Same-Spin Scale       =       0.3333333333333333 [-]
	 SCS Opposite-Spin Scale   =       1.2000000000000000 [-]
	 SCS Same-Spin Energy      =      -0.3003342457224190 [Eh]
	 SCS Opposite-Spin Energy  =      -3.2572250570886410 [Eh]
	 SCS Correlation Energy    =      -3.5575593028110601 [Eh]
	 SCS Total Energy          =    -889.8958451817503601 [Eh]
	-----------------------------------------------------------

  Dipole Moment: [D]
     X:     1.7068      Y:    -5.9477      Z:    -1.8187     Total:     6.4495

*** Psi4 exiting successfully. Buy a developer a beer!
