                               Psi4 1.3.2 release

  ==> Input File <==

--------------------------------------------------------------------------
#psi4
#
memory 32 gb

molecule  {
0 1
  O       -1.2481010    -0.6526680     1.0325150
  O       -1.2449750     2.4828510    -0.6861630
  O       -3.2165300     1.5210990     0.7448870
  O       -2.3570290    -3.0668370     0.0949400
  O        1.3605300     2.2470340    -0.0765420
  N        0.8434040     0.0452230     0.2559430
  N        3.0572260     0.7205030    -0.2937270
  N        4.7164630    -0.8366550    -0.5722980
  C       -1.2894840     1.0784300    -0.5920770
  C       -2.7151710     0.6552070    -0.2573930
  C       -0.5254080     0.4815200     0.6000940
  C       -2.5292560    -0.7168860     0.3610560
  C       -2.5283440    -1.8503930    -0.6392900
  C        1.2197750    -1.2614080     0.3112740
  C        1.7555940     1.0674350    -0.0594030
  C        2.5111010    -1.6091400     0.0469950
  C        3.4302782    -0.5672574    -0.2614918
  H       -0.9376060     0.5914040    -1.5148910
  H       -3.3625820     0.6426650    -1.1464650
  H       -0.4402900     1.2218800     1.4039980
  H       -3.2819570    -0.9087340     1.1307830
  H       -1.7133080    -1.7003050    -1.3694640
  H       -3.4855610    -1.8340040    -1.1841350
  H       -0.2975250     2.7131790    -0.5250000
  H       -2.8475560     2.3997430     0.5086630
  H        0.4343110    -1.9634370     0.5690680
  H       -2.4338740    -3.7984320    -0.5432330
  H        2.8466669    -2.6399550     0.0694136
  H        5.1251800    -1.6708610    -0.1624140
  H        5.3198140    -0.0200540    -0.5682940
units angstrom
no_reorient  #important for SAPT in psi4, default
symmetry c1  #important for SAPT in psi4, default
}

set PROPERTIES_ORIGIN ["COM"]
properties('MP2/aug-cc-pvtz', properties = ['dipole'])
--------------------------------------------------------------------------

    Molecular point group: c1
  Charge       = 0
  Multiplicity = 1
  Basis Set: AUG-CC-PVTZ
    Blend: AUG-CC-PVTZ
  Basis Set: (AUG-CC-PVTZ AUX)
    Blend: AUG-CC-PVTZ-JKFIT

    Orbital Energies [Eh]
    ---------------------

    Doubly Occupied:

       1A    -20.581959     2A    -20.581033     3A    -20.557262
       4A    -20.556384     5A    -20.519474     6A    -15.635933
       7A    -15.604287     8A    -15.551146     9A    -11.385797
      10A    -11.358806    11A    -11.340744    12A    -11.329203
      13A    -11.300824    14A    -11.296454    15A    -11.295935
      16A    -11.292417    17A    -11.248498    18A     -1.428480
      19A     -1.394139    20A     -1.379488    21A     -1.372367
      22A     -1.345558    23A     -1.305979    24A     -1.276634
      25A     -1.180046    26A     -1.081004    27A     -1.067202
      28A     -1.020886    29A     -0.935345    30A     -0.908872
      31A     -0.875823    32A     -0.831992    33A     -0.811444
      34A     -0.768498    35A     -0.751427    36A     -0.735592
      37A     -0.724153    38A     -0.703257    39A     -0.698039
      40A     -0.686372    41A     -0.673469    42A     -0.653553
      43A     -0.650212    44A     -0.636707    45A     -0.620573
      46A     -0.613663    47A     -0.607439    48A     -0.592606
      49A     -0.575279    50A     -0.569787    51A     -0.553927
      52A     -0.546107    53A     -0.537444    54A     -0.532599
      55A     -0.497021    56A     -0.477056    57A     -0.473789
      58A     -0.461433    59A     -0.457066    60A     -0.452150
      61A     -0.439946    62A     -0.430299    63A     -0.392040
      64A     -0.349360

  @DF-RHF Final Energy:  -886.37206615718526

   => Energetics <=

    Nuclear Repulsion Energy =           1323.3442755011692498
    One-Electron Energy =               -3844.4081371736542678
    Two-Electron Energy =                1634.6917955152998729
    Total Energy =                       -886.3720661571851451
  Basis Set: (AUG-CC-PVTZ AUX)
    Blend: AUG-CC-PVTZ-RI
    Molecular point group: c1

    Geometry (in Angstrom), charge = 0, multiplicity = 1:

       Center              X                  Y                   Z               Mass
    ------------   -----------------  -----------------  -----------------  -----------------
         O           -1.249076964823    -0.651870874476     1.032660410129    15.994914619570
         O           -1.245950964823     2.483648125524    -0.686017589871    15.994914619570
         O           -3.217505964823     1.521896125524     0.745032410129    15.994914619570
         O           -2.358004964823    -3.066039874476     0.095085410129    15.994914619570
         O            1.359554035177     2.247831125524    -0.076396589871    15.994914619570
         N            0.842428035177     0.046020125524     0.256088410129    14.003074004430
         N            3.056250035177     0.721300125524    -0.293581589871    14.003074004430
         N            4.715487035177    -0.835857874476    -0.572152589871    14.003074004430
         C           -1.290459964823     1.079227125524    -0.591931589871    12.000000000000
         C           -2.716146964823     0.656004125524    -0.257247589871    12.000000000000
         C           -0.526383964823     0.482317125524     0.600239410129    12.000000000000
         C           -2.530231964823    -0.716088874476     0.361201410129    12.000000000000
         C           -2.529319964823    -1.849595874476    -0.639144589871    12.000000000000
         C            1.218799035177    -1.260610874476     0.311419410129    12.000000000000
         C            1.754618035177     1.068232125524    -0.059257589871    12.000000000000
         C            2.510125035177    -1.608342874476     0.047140410129    12.000000000000
         C            3.429302235177    -0.566460274476    -0.261346389871    12.000000000000
         H           -0.938581964823     0.592201125524    -1.514745589871     1.007825032230
         H           -3.363557964823     0.643462125524    -1.146319589871     1.007825032230
         H           -0.441265964823     1.222677125524     1.404143410129     1.007825032230
         H           -3.282932964823    -0.907936874476     1.130928410129     1.007825032230
         H           -1.714283964823    -1.699507874476    -1.369318589871     1.007825032230
         H           -3.486536964823    -1.833206874476    -1.183989589871     1.007825032230
         H           -0.298500964823     2.713976125524    -0.524854589871     1.007825032230
         H           -2.848531964823     2.400540125524     0.508808410129     1.007825032230
         H            0.433335035177    -1.962639874476     0.569213410129     1.007825032230
         H           -2.434849964823    -3.797634874476    -0.543087589871     1.007825032230
         H            2.845690935177    -2.639157874476     0.069559010129     1.007825032230
         H            5.124204035177    -1.670063874476    -0.162268589871     1.007825032230
         H            5.318838035177    -0.019256874476    -0.568148589871     1.007825032230

  Basis Set: AUG-CC-PVTZ
    Blend: AUG-CC-PVTZ
  Basis Set: (AUG-CC-PVTZ AUX)
    Blend: AUG-CC-PVTZ-JKFIT
	 Reference Energy          =    -886.3720661571852588 [Eh]
	 Singles Energy            =      -0.0000000000000000 [Eh]
	 Same-Spin Energy          =      -0.9014575895522612 [Eh]
	 Opposite-Spin Energy      =      -2.7151587168294062 [Eh]
	 Correlation Energy        =      -3.6166163063816672 [Eh]
	 Total Energy              =    -889.9886824635668745 [Eh]

	 ================> DF-SCS-MP2 Energies <==================
	-----------------------------------------------------------
	 SCS Same-Spin Scale       =       0.3333333333333333 [-]
	 SCS Opposite-Spin Scale   =       1.2000000000000000 [-]
	 SCS Same-Spin Energy      =      -0.3004858631840870 [Eh]
	 SCS Opposite-Spin Energy  =      -3.2581904601952876 [Eh]
	 SCS Correlation Energy    =      -3.5586763233793746 [Eh]
	 SCS Total Energy          =    -889.9307424805646178 [Eh]
	-----------------------------------------------------------

  Dipole Moment: [D]
     X:     1.9140      Y:    -6.0578      Z:    -1.8581     Total:     6.6192

*** Psi4 exiting successfully. Buy a developer a beer!
