                               Psi4 1.3.2 release

  ==> Input File <==

--------------------------------------------------------------------------
#psi4
#
memory 32 gb

molecule  {
0 1
  O       -1.2481010    -0.6526680     1.0325150
  O       -1.2449750     2.4828510    -0.6861630
  O       -3.2165300     1.5210990     0.7448870
  O       -2.3570290    -3.0668370     0.0949400
  O        1.3605300     2.2470340    -0.0765420
  N        0.8434040     0.0452230     0.2559430
  N        3.0572260     0.7205030    -0.2937270
  N        4.7164630    -0.8366550    -0.5722980
  C       -1.2653322     1.0781848    -0.5875226
  C       -2.7151710     0.6552070    -0.2573930
  C       -0.5254080     0.4815200     0.6000940
  C       -2.5292560    -0.7168860     0.3610560
  C       -2.5283440    -1.8503930    -0.6392900
  C        1.2197750    -1.2614080     0.3112740
  C        1.7555940     1.0674350    -0.0594030
  C        2.5111010    -1.6091400     0.0469950
  C        3.4119830    -0.5506530    -0.2589250
  H       -0.9376060     0.5914040    -1.5148910
  H       -3.3625820     0.6426650    -1.1464650
  H       -0.4402900     1.2218800     1.4039980
  H       -3.2819570    -0.9087340     1.1307830
  H       -1.7133080    -1.7003050    -1.3694640
  H       -3.4855610    -1.8340040    -1.1841350
  H       -0.2939299     2.6964165    -0.5231020
  H       -2.8475560     2.3997430     0.5086630
  H        0.4343110    -1.9634370     0.5690680
  H       -2.4338740    -3.7984320    -0.5432330
  H        2.8291120    -2.6453980     0.0739220
  H        5.1251800    -1.6708610    -0.1624140
  H        5.3198140    -0.0200540    -0.5682940
units angstrom
no_reorient  #important for SAPT in psi4, default
symmetry c1  #important for SAPT in psi4, default
}

set PROPERTIES_ORIGIN ["COM"]
properties('MP2/aug-cc-pvtz', properties = ['dipole'])
--------------------------------------------------------------------------

    Molecular point group: c1
  Charge       = 0
  Multiplicity = 1
  Basis Set: AUG-CC-PVTZ
    Blend: AUG-CC-PVTZ
  Basis Set: (AUG-CC-PVTZ AUX)
    Blend: AUG-CC-PVTZ-JKFIT

    Orbital Energies [Eh]
    ---------------------

    Doubly Occupied:

       1A    -20.582166     2A    -20.582077     3A    -20.557855
       4A    -20.557526     5A    -20.522706     6A    -15.637006
       7A    -15.600037     8A    -15.553652     9A    -11.388710
      10A    -11.358097    11A    -11.341736    12A    -11.328705
      13A    -11.301057    14A    -11.296482    15A    -11.296135
      16A    -11.293334    17A    -11.248746    18A     -1.429827
      19A     -1.396910    20A     -1.380064    21A     -1.372892
      22A     -1.346753    23A     -1.306457    24A     -1.274140
      25A     -1.182582    26A     -1.082719    27A     -1.065840
      28A     -1.022050    29A     -0.934796    30A     -0.909740
      31A     -0.877601    32A     -0.831775    33A     -0.812480
      34A     -0.767242    35A     -0.752502    36A     -0.735926
      37A     -0.720371    38A     -0.702905    39A     -0.697988
      40A     -0.685951    41A     -0.672119    42A     -0.654919
      43A     -0.651400    44A     -0.639374    45A     -0.620725
      46A     -0.614310    47A     -0.606682    48A     -0.594624
      49A     -0.574757    50A     -0.569808    51A     -0.555590
      52A     -0.545870    53A     -0.538752    54A     -0.531896
      55A     -0.498155    56A     -0.477553    57A     -0.472075
      58A     -0.462077    59A     -0.460578    60A     -0.452785
      61A     -0.441249    62A     -0.433582    63A     -0.395638
      64A     -0.350398

  @DF-RHF Final Energy:  -886.37235963791056

   => Energetics <=

    Nuclear Repulsion Energy =           1323.9172193443669130
    One-Electron Energy =               -3845.4782412454928817
    Two-Electron Energy =                1635.1886622632152921
    Total Energy =                       -886.3723596379106766
  Basis Set: (AUG-CC-PVTZ AUX)
    Blend: AUG-CC-PVTZ-RI
    Molecular point group: c1

    Geometry (in Angstrom), charge = 0, multiplicity = 1:

       Center              X                  Y                   Z               Mass
    ------------   -----------------  -----------------  -----------------  -----------------
         O           -1.249308200991    -0.652586388674     1.032282308915    15.994914619570
         O           -1.246182200991     2.482932611326    -0.686395691085    15.994914619570
         O           -3.217737200991     1.521180611326     0.744654308915    15.994914619570
         O           -2.358236200991    -3.066755388674     0.094707308915    15.994914619570
         O            1.359322799009     2.247115611326    -0.076774691085    15.994914619570
         N            0.842196799009     0.045304611326     0.255710308915    14.003074004430
         N            3.056018799009     0.720584611326    -0.293959691085    14.003074004430
         N            4.715255799009    -0.836573388674    -0.572530691085    14.003074004430
         C           -1.266539400991     1.078266411326    -0.587755291085    12.000000000000
         C           -2.716378200991     0.655288611326    -0.257625691085    12.000000000000
         C           -0.526615200991     0.481601611326     0.599861308915    12.000000000000
         C           -2.530463200991    -0.716804388674     0.360823308915    12.000000000000
         C           -2.529551200991    -1.850311388674    -0.639522691085    12.000000000000
         C            1.218567799009    -1.261326388674     0.311041308915    12.000000000000
         C            1.754386799009     1.067516611326    -0.059635691085    12.000000000000
         C            2.509893799009    -1.609058388674     0.046762308915    12.000000000000
         C            3.410775799009    -0.550571388674    -0.259157691085    12.000000000000
         H           -0.938813200991     0.591485611326    -1.515123691085     1.007825032230
         H           -3.363789200991     0.642746611326    -1.146697691085     1.007825032230
         H           -0.441497200991     1.221961611326     1.403765308915     1.007825032230
         H           -3.283164200991    -0.908652388674     1.130550308915     1.007825032230
         H           -1.714515200991    -1.700223388674    -1.369696691085     1.007825032230
         H           -3.486768200991    -1.833922388674    -1.184367691085     1.007825032230
         H           -0.295137100991     2.696498111326    -0.523334691085     1.007825032230
         H           -2.848763200991     2.399824611326     0.508430308915     1.007825032230
         H            0.433103799009    -1.963355388674     0.568835308915     1.007825032230
         H           -2.435081200991    -3.798350388674    -0.543465691085     1.007825032230
         H            2.827904799009    -2.645316388674     0.073689308915     1.007825032230
         H            5.123972799009    -1.670779388674    -0.162646691085     1.007825032230
         H            5.318606799009    -0.019972388674    -0.568526691085     1.007825032230

  Basis Set: AUG-CC-PVTZ
    Blend: AUG-CC-PVTZ
  Basis Set: (AUG-CC-PVTZ AUX)
    Blend: AUG-CC-PVTZ-JKFIT
	 Reference Energy          =    -886.3723596379105629 [Eh]
	 Singles Energy            =      -0.0000000000000000 [Eh]
	 Same-Spin Energy          =      -0.9014465969375096 [Eh]
	 Opposite-Spin Energy      =      -2.7153124327380489 [Eh]
	 Correlation Energy        =      -3.6167590296755585 [Eh]
	 Total Energy              =    -889.9891186675861263 [Eh]

	 ================> DF-SCS-MP2 Energies <==================
	-----------------------------------------------------------
	 SCS Same-Spin Scale       =       0.3333333333333333 [-]
	 SCS Opposite-Spin Scale   =       1.2000000000000000 [-]
	 SCS Same-Spin Energy      =      -0.3004821989791698 [Eh]
	 SCS Opposite-Spin Energy  =      -3.2583749192856586 [Eh]
	 SCS Correlation Energy    =      -3.5588571182648283 [Eh]
	 SCS Total Energy          =    -889.9312167561754450 [Eh]
	-----------------------------------------------------------

  Dipole Moment: [D]
     X:     1.7378      Y:    -5.9663      Z:    -1.8156     Total:     6.4741

*** Psi4 exiting successfully. Buy a developer a beer!
