                               Psi4 1.3.2 release

  ==> Input File <==

--------------------------------------------------------------------------
#psi4
#
memory 32 gb

molecule  {
0 1
  O       -1.2481010    -0.6526680     1.0325150
  O       -1.2449750     2.4828510    -0.6861630
  O       -3.2165300     1.5210990     0.7448870
  O       -2.3570290    -3.0668370     0.0949400
  O        1.3605300     2.2470340    -0.0765420
  N        0.8434040     0.0452230     0.2559430
  N        3.0572260     0.7205030    -0.2937270
  N        4.7164630    -0.8366550    -0.5722980
  C       -1.2894840     1.0784300    -0.5920770
  C       -2.7151710     0.6552070    -0.2573930
  C       -0.5254080     0.4815200     0.6000940
  C       -2.5292560    -0.7168860     0.3610560
  C       -2.5283440    -1.8503930    -0.6392900
  C        1.2197750    -1.2614080     0.3112740
  C        1.8853634     1.2128563    -0.1042646
  C        2.5111010    -1.6091400     0.0469950
  C        3.4119830    -0.5506530    -0.2589250
  H       -0.9376060     0.5914040    -1.5148910
  H       -3.3625820     0.6426650    -1.1464650
  H       -0.4402900     1.2218800     1.4039980
  H       -3.2819570    -0.9087340     1.1307830
  H       -1.7133080    -1.7003050    -1.3694640
  H       -3.4855610    -1.8340040    -1.1841350
  H       -0.2975250     2.7131790    -0.5250000
  H       -2.8475560     2.3997430     0.5086630
  H        0.4343110    -1.9634370     0.5690680
  H       -2.4338740    -3.7984320    -0.5432330
  H        2.8291120    -2.6453980     0.0739220
  H        5.1251800    -1.6708610    -0.1624140
  H        5.3198140    -0.0200540    -0.5682940
units angstrom
no_reorient  #important for SAPT in psi4, default
symmetry c1  #important for SAPT in psi4, default
}

set PROPERTIES_ORIGIN ["COM"]
properties('MP2/aug-cc-pvtz', properties = ['dipole'])
--------------------------------------------------------------------------

    Molecular point group: c1
  Charge       = 0
  Multiplicity = 1
  Basis Set: AUG-CC-PVTZ
    Blend: AUG-CC-PVTZ
  Basis Set: (AUG-CC-PVTZ AUX)
    Blend: AUG-CC-PVTZ-JKFIT

    Orbital Energies [Eh]
    ---------------------

    Doubly Occupied:

       1A    -20.577625     2A    -20.572240     3A    -20.560217
       4A    -20.554871     5A    -20.547849     6A    -15.604511
       7A    -15.602362     8A    -15.549385     9A    -11.397681
      10A    -11.366902    11A    -11.328959    12A    -11.317187
      13A    -11.296186    14A    -11.291443    15A    -11.291032
      16A    -11.288665    17A    -11.232572    18A     -1.453816
      19A     -1.414883    20A     -1.377984    21A     -1.368171
      22A     -1.346151    23A     -1.314367    24A     -1.247137
      25A     -1.198479    26A     -1.070917    27A     -1.061734
      28A     -1.009571    29A     -0.932462    30A     -0.891428
      31A     -0.871150    32A     -0.825911    33A     -0.806408
      34A     -0.759833    35A     -0.744956    36A     -0.728987
      37A     -0.721224    38A     -0.698108    39A     -0.694191
      40A     -0.684958    41A     -0.679354    42A     -0.666431
      43A     -0.647104    44A     -0.636060    45A     -0.619137
      46A     -0.616323    47A     -0.604146    48A     -0.595152
      49A     -0.571790    50A     -0.564584    51A     -0.554414
      52A     -0.548164    53A     -0.540490    54A     -0.529451
      55A     -0.497052    56A     -0.484213    57A     -0.472542
      58A     -0.469393    59A     -0.455186    60A     -0.450168
      61A     -0.435177    62A     -0.412426    63A     -0.405620
      64A     -0.334721

  @DF-RHF Final Energy:  -886.34689066355588

   => Energetics <=

    Nuclear Repulsion Energy =           1321.3429412106945620
    One-Electron Energy =               -3840.5964474565635101
    Two-Electron Energy =                1632.9066155823134068
    Total Energy =                       -886.3468906635557687
  Basis Set: (AUG-CC-PVTZ AUX)
    Blend: AUG-CC-PVTZ-RI
    Molecular point group: c1

    Geometry (in Angstrom), charge = 0, multiplicity = 1:

       Center              X                  Y                   Z               Mass
    ------------   -----------------  -----------------  -----------------  -----------------
         O           -1.254507144825    -0.659846762156     1.034729615734    15.994914619570
         O           -1.251381144825     2.475672237844    -0.683948384266    15.994914619570
         O           -3.222936144825     1.513920237844     0.747101615734    15.994914619570
         O           -2.363435144825    -3.074015762156     0.097154615734    15.994914619570
         O            1.354123855175     2.239855237844    -0.074327384266    15.994914619570
         N            0.836997855175     0.038044237844     0.258157615734    14.003074004430
         N            3.050819855175     0.713324237844    -0.291512384266    14.003074004430
         N            4.710056855175    -0.843833762156    -0.570083384266    14.003074004430
         C           -1.295890144825     1.071251237844    -0.589862384266    12.000000000000
         C           -2.721577144825     0.648028237844    -0.255178384266    12.000000000000
         C           -0.531814144825     0.474341237844     0.602308615734    12.000000000000
         C           -2.535662144825    -0.724064762156     0.363270615734    12.000000000000
         C           -2.534750144825    -1.857571762156    -0.637075384266    12.000000000000
         C            1.213368855175    -1.268586762156     0.313488615734    12.000000000000
         C            1.878957255175     1.205677537844    -0.102049984266    12.000000000000
         C            2.504694855175    -1.616318762156     0.049209615734    12.000000000000
         C            3.405576855175    -0.557831762156    -0.256710384266    12.000000000000
         H           -0.944012144825     0.584225237844    -1.512676384266     1.007825032230
         H           -3.368988144825     0.635486237844    -1.144250384266     1.007825032230
         H           -0.446696144825     1.214701237844     1.406212615734     1.007825032230
         H           -3.288363144825    -0.915912762156     1.132997615734     1.007825032230
         H           -1.719714144825    -1.707483762156    -1.367249384266     1.007825032230
         H           -3.491967144825    -1.841182762156    -1.181920384266     1.007825032230
         H           -0.303931144825     2.706000237844    -0.522785384266     1.007825032230
         H           -2.853962144825     2.392564237844     0.510877615734     1.007825032230
         H            0.427904855175    -1.970615762156     0.571282615734     1.007825032230
         H           -2.440280144825    -3.805610762156    -0.541018384266     1.007825032230
         H            2.822705855175    -2.652576762156     0.076136615734     1.007825032230
         H            5.118773855175    -1.678039762156    -0.160199384266     1.007825032230
         H            5.313407855175    -0.027232762156    -0.566079384266     1.007825032230

  Basis Set: AUG-CC-PVTZ
    Blend: AUG-CC-PVTZ
  Basis Set: (AUG-CC-PVTZ AUX)
    Blend: AUG-CC-PVTZ-JKFIT
	 Reference Energy          =    -886.3468906635558824 [Eh]
	 Singles Energy            =      -0.0000000000000000 [Eh]
	 Same-Spin Energy          =      -0.9016103309307105 [Eh]
	 Opposite-Spin Energy      =      -2.7145251560611996 [Eh]
	 Correlation Energy        =      -3.6161354869919102 [Eh]
	 Total Energy              =    -889.9630261505477620 [Eh]

	 ================> DF-SCS-MP2 Energies <==================
	-----------------------------------------------------------
	 SCS Same-Spin Scale       =       0.3333333333333333 [-]
	 SCS Opposite-Spin Scale   =       1.2000000000000000 [-]
	 SCS Same-Spin Energy      =      -0.3005367769769035 [Eh]
	 SCS Opposite-Spin Energy  =      -3.2574301872734392 [Eh]
	 SCS Correlation Energy    =      -3.5579669642503426 [Eh]
	 SCS Total Energy          =    -889.9048576278062228 [Eh]
	-----------------------------------------------------------

  Dipole Moment: [D]
     X:     2.2160      Y:    -4.7578      Z:    -2.0377     Total:     5.6302

*** Psi4 exiting successfully. Buy a developer a beer!
