                               Psi4 1.3.2 release

  ==> Input File <==

--------------------------------------------------------------------------
#psi4
#
memory 32 gb

molecule  {
0 1
  O       -1.2481010    -0.6526680     1.0325150
  O       -1.2449750     2.4828510    -0.6861630
  O       -3.2165300     1.5210990     0.7448870
  O       -2.3570290    -3.0668370     0.0949400
  O        1.3605300     2.2470340    -0.0765420
  N        0.8434040     0.0452230     0.2559430
  N        3.0572260     0.7205030    -0.2937270
  N        4.7164630    -0.8366550    -0.5722980
  C       -1.2866816     1.0552078    -0.6051986
  C       -2.7151710     0.6552070    -0.2573930
  C       -0.5254080     0.4815200     0.6000940
  C       -2.5292560    -0.7168860     0.3610560
  C       -2.5283440    -1.8503930    -0.6392900
  C        1.2197750    -1.2614080     0.3112740
  C        1.7555940     1.0674350    -0.0594030
  C        2.5111010    -1.6091400     0.0469950
  C        3.4119830    -0.5506530    -0.2589250
  H       -0.9376060     0.5914040    -1.5148910
  H       -3.3625820     0.6426650    -1.1464650
  H       -0.4307138     1.2090965     1.4145294
  H       -3.2819570    -0.9087340     1.1307830
  H       -1.7133080    -1.7003050    -1.3694640
  H       -3.4855610    -1.8340040    -1.1841350
  H       -0.2975250     2.7131790    -0.5250000
  H       -2.8475560     2.3997430     0.5086630
  H        0.4343110    -1.9634370     0.5690680
  H       -2.4338740    -3.7984320    -0.5432330
  H        2.8291120    -2.6453980     0.0739220
  H        5.1251800    -1.6708610    -0.1624140
  H        5.3198140    -0.0200540    -0.5682940
units angstrom
no_reorient  #important for SAPT in psi4, default
symmetry c1  #important for SAPT in psi4, default
}

set PROPERTIES_ORIGIN ["COM"]
properties('MP2/aug-cc-pvtz', properties = ['dipole'])
--------------------------------------------------------------------------

    Molecular point group: c1
  Charge       = 0
  Multiplicity = 1
  Basis Set: AUG-CC-PVTZ
    Blend: AUG-CC-PVTZ
  Basis Set: (AUG-CC-PVTZ AUX)
    Blend: AUG-CC-PVTZ-JKFIT

    Orbital Energies [Eh]
    ---------------------

    Doubly Occupied:

       1A    -20.582497     2A    -20.581378     3A    -20.558280
       4A    -20.555137     5A    -20.521603     6A    -15.636584
       7A    -15.599825     8A    -15.553272     9A    -11.388035
      10A    -11.357806    11A    -11.342176    12A    -11.328496
      13A    -11.301552    14A    -11.296923    15A    -11.296270
      16A    -11.293556    17A    -11.248553    18A     -1.429171
      19A     -1.396224    20A     -1.377576    21A     -1.371449
      22A     -1.341675    23A     -1.305900    24A     -1.273813
      25A     -1.182208    26A     -1.082085    27A     -1.068937
      28A     -1.021970    29A     -0.935685    30A     -0.909551
      31A     -0.877354    32A     -0.833424    33A     -0.811967
      34A     -0.767067    35A     -0.751977    36A     -0.734945
      37A     -0.720580    38A     -0.702397    39A     -0.698986
      40A     -0.685514    41A     -0.672534    42A     -0.654894
      43A     -0.651133    44A     -0.638558    45A     -0.620137
      46A     -0.613127    47A     -0.606796    48A     -0.592630
      49A     -0.575431    50A     -0.569665    51A     -0.552494
      52A     -0.545860    53A     -0.535438    54A     -0.531200
      55A     -0.497767    56A     -0.477537    57A     -0.475621
      58A     -0.462118    59A     -0.459818    60A     -0.455359
      61A     -0.441760    62A     -0.433154    63A     -0.395310
      64A     -0.349984

  @DF-RHF Final Energy:  -886.37228003882012

   => Energetics <=

    Nuclear Repulsion Energy =           1323.5961914774163688
    One-Electron Energy =               -3844.8755022461946282
    Two-Electron Energy =                1634.9070307299582510
    Total Energy =                       -886.3722800388202359
  Basis Set: (AUG-CC-PVTZ AUX)
    Blend: AUG-CC-PVTZ-RI
    Molecular point group: c1

    Geometry (in Angstrom), charge = 0, multiplicity = 1:

       Center              X                  Y                   Z               Mass
    ------------   -----------------  -----------------  -----------------  -----------------
         O           -1.248279078001    -0.651468618008     1.033119096902    15.994914619570
         O           -1.245153078001     2.484050381992    -0.685558903098    15.994914619570
         O           -3.216708078001     1.522298381992     0.745491096902    15.994914619570
         O           -2.357207078001    -3.065637618008     0.095544096902    15.994914619570
         O            1.360351921999     2.248233381992    -0.075937903098    15.994914619570
         N            0.843225921999     0.046422381992     0.256547096902    14.003074004430
         N            3.057047921999     0.721702381992    -0.293122903098    14.003074004430
         N            4.716284921999    -0.835455618008    -0.571693903098    14.003074004430
         C           -1.286859678001     1.056407181992    -0.604594503098    12.000000000000
         C           -2.715349078001     0.656406381992    -0.256788903098    12.000000000000
         C           -0.525586078001     0.482719381992     0.600698096902    12.000000000000
         C           -2.529434078001    -0.715686618008     0.361660096902    12.000000000000
         C           -2.528522078001    -1.849193618008    -0.638685903098    12.000000000000
         C            1.219596921999    -1.260208618008     0.311878096902    12.000000000000
         C            1.755415921999     1.068634381992    -0.058798903098    12.000000000000
         C            2.510922921999    -1.607940618008     0.047599096902    12.000000000000
         C            3.411804921999    -0.549453618008    -0.258320903098    12.000000000000
         H           -0.937784078001     0.592603381992    -1.514286903098     1.007825032230
         H           -3.362760078001     0.643864381992    -1.145860903098     1.007825032230
         H           -0.430891878001     1.210295881992     1.415133496902     1.007825032230
         H           -3.282135078001    -0.907534618008     1.131387096902     1.007825032230
         H           -1.713486078001    -1.699105618008    -1.368859903098     1.007825032230
         H           -3.485739078001    -1.832804618008    -1.183530903098     1.007825032230
         H           -0.297703078001     2.714378381992    -0.524395903098     1.007825032230
         H           -2.847734078001     2.400942381992     0.509267096902     1.007825032230
         H            0.434132921999    -1.962237618008     0.569672096902     1.007825032230
         H           -2.434052078001    -3.797232618008    -0.542628903098     1.007825032230
         H            2.828933921999    -2.644198618008     0.074526096902     1.007825032230
         H            5.125001921999    -1.669661618008    -0.161809903098     1.007825032230
         H            5.319635921999    -0.018854618008    -0.567689903098     1.007825032230

  Basis Set: AUG-CC-PVTZ
    Blend: AUG-CC-PVTZ
  Basis Set: (AUG-CC-PVTZ AUX)
    Blend: AUG-CC-PVTZ-JKFIT
	 Reference Energy          =    -886.3722800388201222 [Eh]
	 Singles Energy            =      -0.0000000000000000 [Eh]
	 Same-Spin Energy          =      -0.9012673599734640 [Eh]
	 Opposite-Spin Energy      =      -2.7153242741442178 [Eh]
	 Correlation Energy        =      -3.6165916341176816 [Eh]
	 Total Energy              =    -889.9888716729377620 [Eh]

	 ================> DF-SCS-MP2 Energies <==================
	-----------------------------------------------------------
	 SCS Same-Spin Scale       =       0.3333333333333333 [-]
	 SCS Opposite-Spin Scale   =       1.2000000000000000 [-]
	 SCS Same-Spin Energy      =      -0.3004224533244880 [Eh]
	 SCS Opposite-Spin Energy  =      -3.2583891289730613 [Eh]
	 SCS Correlation Energy    =      -3.5588115822975492 [Eh]
	 SCS Total Energy          =    -889.9310916211176163 [Eh]
	-----------------------------------------------------------

  Dipole Moment: [D]
     X:     1.6999      Y:    -6.0111      Z:    -1.8263     Total:     6.5083

*** Psi4 exiting successfully. Buy a developer a beer!
