                               Psi4 1.4a3.dev225

  ==> Input File <==

--------------------------------------------------------------------------
#psi4
#
memory 32 gb

molecule  {
0 1
  O       -1.3191770     0.6538360    -1.0992360
  O       -1.5735610    -2.4640850     0.5135810
  O       -3.5606630    -1.0699430    -0.4600060
  O       -1.4399290     3.1254620     0.1265180
  O        1.1065530    -2.3833650     0.0076020
  N        0.7686360    -0.1579440    -0.3706350
  N        2.9363770    -0.9938720     0.1460080
  N        4.7058880     0.4431110     0.3611260
  C       -1.3768610    -1.0680440     0.5552780
  C       -2.7379840    -0.3746360     0.4578480
  C       -0.6377490    -0.5042940    -0.6790150
  C       -2.3707440     0.9655450    -0.1585060
  C       -1.8992030     1.9895750     0.8571380
  C        1.2309690     1.1190800    -0.4442230
  C        1.6104480    -1.2470590    -0.0585760
  C        2.5474650     1.3753690    -0.1998620
  C        3.3802090     0.2523040     0.0808410
  H       -0.8344495    -0.7632519     1.4864776
  H       -3.2257400    -0.2778790     1.4400230
  H       -0.6227070    -1.2428120    -1.4883720
  H       -3.1941750     1.3785730    -0.7472070
  H       -1.0952130     1.5703990     1.4802000
  H       -2.7410530     2.2466610     1.5166010
  H       -0.6710550    -2.8260740     0.3542250
  H       -3.3063470    -2.0105220    -0.3629290
  H        0.4929290     1.8778260    -0.6840360
  H       -1.2098800     3.8154810     0.7720340
  H        2.9334840     2.3875570    -0.2389120
  H        5.1589650     1.2712730    -0.0008400
  H        5.2635310    -0.4031270     0.3606700
units angstrom
no_reorient  #important for SAPT in psi4, default
symmetry c1  #important for SAPT in psi4, default
}

set PROPERTIES_ORIGIN ["COM"]
properties('MP2/aug-cc-pvtz', properties = ['dipole'])
--------------------------------------------------------------------------

    Molecular point group: c1
  Charge       = 0
  Multiplicity = 1
  Basis Set: AUG-CC-PVTZ
    Blend: AUG-CC-PVTZ
  Basis Set: (AUG-CC-PVTZ AUX)
    Blend: AUG-CC-PVTZ-JKFIT

    Orbital Energies [Eh]
    ---------------------

    Doubly Occupied:

       1A    -20.586650     2A    -20.581497     3A    -20.559779
       4A    -20.556592     5A    -20.519668     6A    -15.632912
       7A    -15.599622     8A    -15.551704     9A    -11.385908
      10A    -11.358011    11A    -11.339818    12A    -11.325068
      13A    -11.303440    14A    -11.299345    15A    -11.297964
      16A    -11.293671    17A    -11.246499    18A     -1.429285
      19A     -1.394052    20A     -1.383047    21A     -1.375632
      22A     -1.346727    23A     -1.303604    24A     -1.271278
      25A     -1.181143    26A     -1.079258    27A     -1.067841
      28A     -1.016809    29A     -0.936497    30A     -0.906577
      31A     -0.876654    32A     -0.829147    33A     -0.812196
      34A     -0.766385    35A     -0.750279    36A     -0.734714
      37A     -0.721624    38A     -0.707770    39A     -0.702776
      40A     -0.684918    41A     -0.674838    42A     -0.653287
      43A     -0.649046    44A     -0.632978    45A     -0.620281
      46A     -0.614958    47A     -0.607659    48A     -0.593090
      49A     -0.577043    50A     -0.565021    51A     -0.555866
      52A     -0.548028    53A     -0.536685    54A     -0.531044
      55A     -0.495644    56A     -0.480704    57A     -0.473408
      58A     -0.463353    59A     -0.457942    60A     -0.452550
      61A     -0.441919    62A     -0.430215    63A     -0.392227
      64A     -0.348189

  @DF-RHF Final Energy:  -886.37351723683128

   => Energetics <=

    Nuclear Repulsion Energy =           1334.4633295907385673
    One-Electron Energy =               -3866.6490181360254610
    Two-Electron Energy =                1645.8121713084558451
    Total Energy =                       -886.3735172368312760
  Basis Set: (AUG-CC-PVTZ AUX)
    Blend: AUG-CC-PVTZ-RI
    Molecular point group: c1

    Geometry (in Angstrom), charge = 0, multiplicity = 1:

       Center              X                  Y                   Z               Mass
    ------------   -----------------  -----------------  -----------------  -----------------
         O           -1.331960814725     0.682424899823    -1.083524734899    15.994914619570
         O           -1.586344814725    -2.435496100177     0.529292265101    15.994914619570
         O           -3.573446814725    -1.041354100177    -0.444294734899    15.994914619570
         O           -1.452712814725     3.154050899823     0.142229265101    15.994914619570
         O            1.093769185275    -2.354776100177     0.023313265101    15.994914619570
         N            0.755852185275    -0.129355100177    -0.354923734899    14.003074004430
         N            2.923593185275    -0.965283100177     0.161719265101    14.003074004430
         N            4.693104185275     0.471699899823     0.376837265101    14.003074004430
         C           -1.389644814725    -1.039455100177     0.570989265101    12.000000000000
         C           -2.750767814725    -0.346047100177     0.473559265101    12.000000000000
         C           -0.650532814725    -0.475705100177    -0.663303734899    12.000000000000
         C           -2.383527814725     0.994133899823    -0.142794734899    12.000000000000
         C           -1.911986814725     2.018163899823     0.872849265101    12.000000000000
         C            1.218185185275     1.147668899823    -0.428511734899    12.000000000000
         C            1.597664185275    -1.218470100177    -0.042864734899    12.000000000000
         C            2.534681185275     1.403957899823    -0.184150734899    12.000000000000
         C            3.367425185275     0.280892899823     0.096552265101    12.000000000000
         H           -0.847233314725    -0.734663000177     1.502188865101     1.007825032230
         H           -3.238523814725    -0.249290100177     1.455734265101     1.007825032230
         H           -0.635490814725    -1.214223100177    -1.472660734899     1.007825032230
         H           -3.206958814725     1.407161899823    -0.731495734899     1.007825032230
         H           -1.107996814725     1.598987899823     1.495911265101     1.007825032230
         H           -2.753836814725     2.275249899823     1.532312265101     1.007825032230
         H           -0.683838814725    -2.797485100177     0.369936265101     1.007825032230
         H           -3.319130814725    -1.981933100177    -0.347217734899     1.007825032230
         H            0.480145185275     1.906414899823    -0.668324734899     1.007825032230
         H           -1.222663814725     3.844069899823     0.787745265101     1.007825032230
         H            2.920700185275     2.416145899823    -0.223200734899     1.007825032230
         H            5.146181185275     1.299861899823     0.014871265101     1.007825032230
         H            5.250747185275    -0.374538100177     0.376381265101     1.007825032230

  Basis Set: AUG-CC-PVTZ
    Blend: AUG-CC-PVTZ
  Basis Set: (AUG-CC-PVTZ AUX)
    Blend: AUG-CC-PVTZ-JKFIT
	 Reference Energy          =    -886.3735172368312760 [Eh]
	 Singles Energy            =      -0.0000000000000000 [Eh]
	 Same-Spin Energy          =      -0.9018778949172176 [Eh]
	 Opposite-Spin Energy      =      -2.7161185754477204 [Eh]
	 Correlation Energy        =      -3.6179964703649379 [Eh]
	 Total Energy              =    -889.9915137071961908 [Eh]

	 ================> DF-SCS-MP2 Energies <==================
	-----------------------------------------------------------
	 SCS Same-Spin Scale       =       0.3333333333333333 [-]
	 SCS Opposite-Spin Scale   =       1.2000000000000000 [-]
	 SCS Same-Spin Energy      =      -0.3006259649724058 [Eh]
	 SCS Opposite-Spin Energy  =      -3.2593422905372642 [Eh]
	 SCS Correlation Energy    =      -3.5599682555096699 [Eh]
	 SCS Total Energy          =    -889.9334854923409921 [Eh]
	-----------------------------------------------------------

  Dipole Moment: [D]
     X:     2.7288      Y:     5.7899      Z:     1.9392     Total:     6.6881

*** Psi4 exiting successfully. Buy a developer a beer!
