                               Psi4 1.3.2 release

  ==> Input File <==

--------------------------------------------------------------------------
#psi4
#
memory 32 gb

molecule  {
0 1
  O       -1.2481010    -0.6526680     1.0325150
  O       -1.2449750     2.4828510    -0.6861630
  O       -3.2165300     1.5210990     0.7448870
  O       -2.3570290    -3.0668370     0.0949400
  O        1.3605300     2.2470340    -0.0765420
  N        0.8434040     0.0452230     0.2559430
  N        3.0572260     0.7205030    -0.2937270
  N        4.7164630    -0.8366550    -0.5722980
  C       -1.2894840     1.0784300    -0.5920770
  C       -2.7151710     0.6552070    -0.2573930
  C       -0.5254080     0.4815200     0.6000940
  C       -2.5292560    -0.7168860     0.3610560
  C       -2.5283440    -1.8503930    -0.6392900
  C        1.2197750    -1.2614080     0.3112740
  C        1.7555940     1.0674350    -0.0594030
  C        2.5111010    -1.6091400     0.0469950
  C        3.3851113    -0.4543672    -0.2615611
  H       -0.9376060     0.5914040    -1.5148910
  H       -3.3625820     0.6426650    -1.1464650
  H       -0.4402900     1.2218800     1.4039980
  H       -3.2819570    -0.9087340     1.1307830
  H       -1.7133080    -1.7003050    -1.3694640
  H       -3.4855610    -1.8340040    -1.1841350
  H       -0.2975250     2.7131790    -0.5250000
  H       -2.8475560     2.3997430     0.5086630
  H        0.4343110    -1.9634370     0.5690680
  H       -2.4338740    -3.7984320    -0.5432330
  H        2.8291120    -2.6453980     0.0739220
  H        5.1251800    -1.6708610    -0.1624140
  H        5.3198140    -0.0200540    -0.5682940
units angstrom
no_reorient  #important for SAPT in psi4, default
symmetry c1  #important for SAPT in psi4, default
}

set PROPERTIES_ORIGIN ["COM"]
properties('MP2/aug-cc-pvtz', properties = ['dipole'])
--------------------------------------------------------------------------

    Molecular point group: c1
  Charge       = 0
  Multiplicity = 1
  Basis Set: AUG-CC-PVTZ
    Blend: AUG-CC-PVTZ
  Basis Set: (AUG-CC-PVTZ AUX)
    Blend: AUG-CC-PVTZ-JKFIT

    Orbital Energies [Eh]
    ---------------------

    Doubly Occupied:

       1A    -20.581967     2A    -20.581854     3A    -20.559815
       4A    -20.558767     5A    -20.533569     6A    -15.636359
       7A    -15.588419     8A    -15.558562     9A    -11.400164
      10A    -11.352666    11A    -11.342817    12A    -11.319979
      13A    -11.301111    14A    -11.297957    15A    -11.297291
      16A    -11.293817    17A    -11.249797    18A     -1.431810
      19A     -1.405802    20A     -1.381466    21A     -1.372987
      22A     -1.348389    23A     -1.319602    24A     -1.275763
      25A     -1.188874    26A     -1.075932    27A     -1.068370
      28A     -1.019591    29A     -0.936424    30A     -0.906335
      31A     -0.886027    32A     -0.833450    33A     -0.811507
      34A     -0.763327    35A     -0.753029    36A     -0.737543
      37A     -0.716139    38A     -0.702047    39A     -0.699230
      40A     -0.684004    41A     -0.669594    42A     -0.659470
      43A     -0.653480    44A     -0.642765    45A     -0.621207
      46A     -0.617599    47A     -0.602783    48A     -0.594977
      49A     -0.576710    50A     -0.570218    51A     -0.555217
      52A     -0.546763    53A     -0.538228    54A     -0.530043
      55A     -0.501014    56A     -0.478360    57A     -0.475897
      58A     -0.470331    59A     -0.461640    60A     -0.454272
      61A     -0.440048    62A     -0.438065    63A     -0.408807
      64A     -0.347604

  @DF-RHF Final Energy:  -886.36120637220222

   => Energetics <=

    Nuclear Repulsion Energy =           1324.8125798878472779
    One-Electron Energy =               -3847.0922701513263746
    Two-Electron Energy =                1635.9184838912769919
    Total Energy =                       -886.3612063722021048
  Basis Set: (AUG-CC-PVTZ AUX)
    Blend: AUG-CC-PVTZ-RI
    Molecular point group: c1

    Geometry (in Angstrom), charge = 0, multiplicity = 1:

       Center              X                  Y                   Z               Mass
    ------------   -----------------  -----------------  -----------------  -----------------
         O           -1.246774503260    -0.657421171365     1.032645139460    15.994914619570
         O           -1.243648503260     2.478097828635    -0.686032860540    15.994914619570
         O           -3.215203503260     1.516345828635     0.745017139460    15.994914619570
         O           -2.355702503260    -3.071590171365     0.095070139460    15.994914619570
         O            1.361856496740     2.242280828635    -0.076411860540    15.994914619570
         N            0.844730496740     0.040469828635     0.256073139460    14.003074004430
         N            3.058552496740     0.715749828635    -0.293596860540    14.003074004430
         N            4.717789496740    -0.841408171365    -0.572167860540    14.003074004430
         C           -1.288157503260     1.073676828635    -0.591946860540    12.000000000000
         C           -2.713844503260     0.650453828635    -0.257262860540    12.000000000000
         C           -0.524081503260     0.476766828635     0.600224139460    12.000000000000
         C           -2.527929503260    -0.721639171365     0.361186139460    12.000000000000
         C           -2.527017503260    -1.855146171365    -0.639159860540    12.000000000000
         C            1.221101496740    -1.266161171365     0.311404139460    12.000000000000
         C            1.756920496740     1.062681828635    -0.059272860540    12.000000000000
         C            2.512427496740    -1.613893171365     0.047125139460    12.000000000000
         C            3.386437796740    -0.459120371365    -0.261430960540    12.000000000000
         H           -0.936279503260     0.586650828635    -1.514760860540     1.007825032230
         H           -3.361255503260     0.637911828635    -1.146334860540     1.007825032230
         H           -0.438963503260     1.217126828635     1.404128139460     1.007825032230
         H           -3.280630503260    -0.913487171365     1.130913139460     1.007825032230
         H           -1.711981503260    -1.705058171365    -1.369333860540     1.007825032230
         H           -3.484234503260    -1.838757171365    -1.184004860540     1.007825032230
         H           -0.296198503260     2.708425828635    -0.524869860540     1.007825032230
         H           -2.846229503260     2.394989828635     0.508793139460     1.007825032230
         H            0.435637496740    -1.968190171365     0.569198139460     1.007825032230
         H           -2.432547503260    -3.803185171365    -0.543102860540     1.007825032230
         H            2.830438496740    -2.650151171365     0.074052139460     1.007825032230
         H            5.126506496740    -1.675614171365    -0.162283860540     1.007825032230
         H            5.321140496740    -0.024807171365    -0.568163860540     1.007825032230

  Basis Set: AUG-CC-PVTZ
    Blend: AUG-CC-PVTZ
  Basis Set: (AUG-CC-PVTZ AUX)
    Blend: AUG-CC-PVTZ-JKFIT
	 Reference Energy          =    -886.3612063722022185 [Eh]
	 Singles Energy            =      -0.0000000000000000 [Eh]
	 Same-Spin Energy          =      -0.8998241445240367 [Eh]
	 Opposite-Spin Energy      =      -2.7138057903907651 [Eh]
	 Correlation Energy        =      -3.6136299349148020 [Eh]
	 Total Energy              =    -889.9748363071170161 [Eh]

	 ================> DF-SCS-MP2 Energies <==================
	-----------------------------------------------------------
	 SCS Same-Spin Scale       =       0.3333333333333333 [-]
	 SCS Opposite-Spin Scale   =       1.2000000000000000 [-]
	 SCS Same-Spin Energy      =      -0.2999413815080122 [Eh]
	 SCS Opposite-Spin Energy  =      -3.2565669484689179 [Eh]
	 SCS Correlation Energy    =      -3.5565083299769302 [Eh]
	 SCS Total Energy          =    -889.9177147021791825 [Eh]
	-----------------------------------------------------------

  Dipole Moment: [D]
     X:     1.3503      Y:    -5.4257      Z:    -1.7863     Total:     5.8696

*** Psi4 exiting successfully. Buy a developer a beer!
