                               Psi4 1.3.2 release

  ==> Input File <==

--------------------------------------------------------------------------
#psi4
#
memory 32 gb

molecule  {
0 1
  O       -1.2481010    -0.6526680     1.0325150
  O       -1.2449750     2.4828510    -0.6861630
  O       -3.2165300     1.5210990     0.7448870
  O       -2.3570290    -3.0668370     0.0949400
  O        1.3605300     2.2470340    -0.0765420
  N        0.8434040     0.0452230     0.2559430
  N        3.0572260     0.7205030    -0.2937270
  N        4.7164630    -0.8366550    -0.5722980
  C       -1.2894840     1.0784300    -0.5920770
  C       -2.7151710     0.6552070    -0.2573930
  C       -0.5254080     0.4815200     0.6000940
  C       -2.5292560    -0.7168860     0.3610560
  C       -2.5283440    -1.8503930    -0.6392900
  C        1.1751023    -1.2729335     0.3225829
  C        1.7192807     1.1001064    -0.0547209
  C        2.5111010    -1.6091400     0.0469950
  C        3.4119830    -0.5506530    -0.2589250
  H       -0.9376060     0.5914040    -1.5148910
  H       -3.3625820     0.6426650    -1.1464650
  H       -0.4402900     1.2218800     1.4039980
  H       -3.2819570    -0.9087340     1.1307830
  H       -1.7133080    -1.7003050    -1.3694640
  H       -3.4855610    -1.8340040    -1.1841350
  H       -0.2975250     2.7131790    -0.5250000
  H       -2.8475560     2.3997430     0.5086630
  H        0.4343110    -1.9634370     0.5690680
  H       -2.4338740    -3.7984320    -0.5432330
  H        2.8291120    -2.6453980     0.0739220
  H        5.1251800    -1.6708610    -0.1624140
  H        5.3198140    -0.0200540    -0.5682940
units angstrom
no_reorient  #important for SAPT in psi4, default
symmetry c1  #important for SAPT in psi4, default
}

set PROPERTIES_ORIGIN ["COM"]
properties('MP2/aug-cc-pvtz', properties = ['dipole'])
--------------------------------------------------------------------------

    Molecular point group: c1
  Charge       = 0
  Multiplicity = 1
  Basis Set: AUG-CC-PVTZ
    Blend: AUG-CC-PVTZ
  Basis Set: (AUG-CC-PVTZ AUX)
    Blend: AUG-CC-PVTZ-JKFIT

    Orbital Energies [Eh]
    ---------------------

    Doubly Occupied:

       1A    -20.582916     2A    -20.582477     3A    -20.561327
       4A    -20.559446     5A    -20.535267     6A    -15.637336
       7A    -15.593708     8A    -15.548670     9A    -11.391269
      10A    -11.350409    11A    -11.341316    12A    -11.330768
      13A    -11.302030    14A    -11.298663    15A    -11.298008
      16A    -11.294545    17A    -11.248695    18A     -1.436282
      19A     -1.415002    20A     -1.382436    21A     -1.374270
      22A     -1.349375    23A     -1.308500    24A     -1.271350
      25A     -1.169135    26A     -1.073151    27A     -1.069046
      28A     -1.020095    29A     -0.934560    30A     -0.914822
      31A     -0.871402    32A     -0.829329    33A     -0.812865
      34A     -0.761030    35A     -0.755043    36A     -0.738857
      37A     -0.721150    38A     -0.704320    39A     -0.700043
      40A     -0.688863    41A     -0.673882    42A     -0.658898
      43A     -0.654078    44A     -0.638484    45A     -0.621053
      46A     -0.620916    47A     -0.607650    48A     -0.594444
      49A     -0.576437    50A     -0.569761    51A     -0.554476
      52A     -0.546193    53A     -0.542316    54A     -0.534745
      55A     -0.502600    56A     -0.478864    57A     -0.476734
      58A     -0.472042    59A     -0.461999    60A     -0.455193
      61A     -0.440524    62A     -0.425384    63A     -0.390434
      64A     -0.342417

  @DF-RHF Final Energy:  -886.36539313119943

   => Energetics <=

    Nuclear Repulsion Energy =           1323.6919195328705428
    One-Electron Energy =               -3844.9200301880359802
    Two-Electron Energy =                1634.8627175239660119
    Total Energy =                       -886.3653931311994256
  Basis Set: (AUG-CC-PVTZ AUX)
    Blend: AUG-CC-PVTZ-RI
    Molecular point group: c1

    Geometry (in Angstrom), charge = 0, multiplicity = 1:

       Center              X                  Y                   Z               Mass
    ------------   -----------------  -----------------  -----------------  -----------------
         O           -1.244103132301    -0.653711864459     1.031725606287    15.994914619570
         O           -1.240977132301     2.481807135541    -0.686952393713    15.994914619570
         O           -3.212532132301     1.520055135541     0.744097606287    15.994914619570
         O           -2.353031132301    -3.067880864459     0.094150606287    15.994914619570
         O            1.364527867699     2.245990135541    -0.077331393713    15.994914619570
         N            0.847401867699     0.044179135541     0.255153606287    14.003074004430
         N            3.061223867699     0.719459135541    -0.294516393713    14.003074004430
         N            4.720460867699    -0.837698864459    -0.573087393713    14.003074004430
         C           -1.285486132301     1.077386135541    -0.592866393713    12.000000000000
         C           -2.711173132301     0.654163135541    -0.258182393713    12.000000000000
         C           -0.521410132301     0.480476135541     0.599304606287    12.000000000000
         C           -2.525258132301    -0.717929864459     0.360266606287    12.000000000000
         C           -2.524346132301    -1.851436864459    -0.640079393713    12.000000000000
         C            1.179100167699    -1.273977364459     0.321793506287    12.000000000000
         C            1.723278567699     1.099062535541    -0.055510293713    12.000000000000
         C            2.515098867699    -1.610183864459     0.046205606287    12.000000000000
         C            3.415980867699    -0.551696864459    -0.259714393713    12.000000000000
         H           -0.933608132301     0.590360135541    -1.515680393713     1.007825032230
         H           -3.358584132301     0.641621135541    -1.147254393713     1.007825032230
         H           -0.436292132301     1.220836135541     1.403208606287     1.007825032230
         H           -3.277959132301    -0.909777864459     1.129993606287     1.007825032230
         H           -1.709310132301    -1.701348864459    -1.370253393713     1.007825032230
         H           -3.481563132301    -1.835047864459    -1.184924393713     1.007825032230
         H           -0.293527132301     2.712135135541    -0.525789393713     1.007825032230
         H           -2.843558132301     2.398699135541     0.507873606287     1.007825032230
         H            0.438308867699    -1.964480864459     0.568278606287     1.007825032230
         H           -2.429876132301    -3.799475864459    -0.544022393713     1.007825032230
         H            2.833109867699    -2.646441864459     0.073132606287     1.007825032230
         H            5.129177867699    -1.671904864459    -0.163203393713     1.007825032230
         H            5.323811867699    -0.021097864459    -0.569083393713     1.007825032230

  Basis Set: AUG-CC-PVTZ
    Blend: AUG-CC-PVTZ
  Basis Set: (AUG-CC-PVTZ AUX)
    Blend: AUG-CC-PVTZ-JKFIT
	 Reference Energy          =    -886.3653931311994256 [Eh]
	 Singles Energy            =      -0.0000000000000000 [Eh]
	 Same-Spin Energy          =      -0.9012245822932415 [Eh]
	 Opposite-Spin Energy      =      -2.7155937928679359 [Eh]
	 Correlation Energy        =      -3.6168183751611775 [Eh]
	 Total Energy              =    -889.9822115063606134 [Eh]

	 ================> DF-SCS-MP2 Energies <==================
	-----------------------------------------------------------
	 SCS Same-Spin Scale       =       0.3333333333333333 [-]
	 SCS Opposite-Spin Scale   =       1.2000000000000000 [-]
	 SCS Same-Spin Energy      =      -0.3004081940977472 [Eh]
	 SCS Opposite-Spin Energy  =      -3.2587125514415232 [Eh]
	 SCS Correlation Energy    =      -3.5591207455392704 [Eh]
	 SCS Total Energy          =    -889.9245138767387289 [Eh]
	-----------------------------------------------------------

  Dipole Moment: [D]
     X:     1.3281      Y:    -5.5271      Z:    -1.7946     Total:     5.9610

*** Psi4 exiting successfully. Buy a developer a beer!
