                               Psi4 1.4a3.dev225

  ==> Input File <==

--------------------------------------------------------------------------
#psi4
#
memory 32 gb

molecule  {
0 1
  O       -1.3191770     0.6538360    -1.0992360
  O       -1.5735610    -2.4640850     0.5135810
  O       -3.5606630    -1.0699430    -0.4600060
  O       -1.4399290     3.1254620     0.1265180
  O        1.1065530    -2.3833650     0.0076020
  N        0.7686360    -0.1579440    -0.3706350
  N        2.9363770    -0.9938720     0.1460080
  N        4.7058880     0.4431110     0.3611260
  C       -1.3768610    -1.0680440     0.5552780
  C       -2.7379840    -0.3746360     0.4578480
  C       -0.6377490    -0.5042940    -0.6790150
  C       -2.3707440     0.9655450    -0.1585060
  C       -1.8992030     1.9895750     0.8571380
  C        1.2309690     1.1190800    -0.4442230
  C        1.6104480    -1.2470590    -0.0585760
  C        2.5474650     1.3753690    -0.1998620
  C        3.3802090     0.2523040     0.0808410
  H       -0.8441360    -0.7686950     1.4698480
  H       -3.2257400    -0.2778790     1.4400230
  H       -0.6227070    -1.2428120    -1.4883720
  H       -3.1941750     1.3785730    -0.7472070
  H       -1.0586728     1.5513480     1.5085173
  H       -2.7410530     2.2466610     1.5166010
  H       -0.6710550    -2.8260740     0.3542250
  H       -3.3063470    -2.0105220    -0.3629290
  H        0.4929290     1.8778260    -0.6840360
  H       -1.2098800     3.8154810     0.7720340
  H        2.9334840     2.3875570    -0.2389120
  H        5.1589650     1.2712730    -0.0008400
  H        5.2635310    -0.4031270     0.3606700
units angstrom
no_reorient  #important for SAPT in psi4, default
symmetry c1  #important for SAPT in psi4, default
}

set PROPERTIES_ORIGIN ["COM"]
properties('MP2/aug-cc-pvtz', properties = ['dipole'])
--------------------------------------------------------------------------

    Molecular point group: c1
  Charge       = 0
  Multiplicity = 1
  Basis Set: AUG-CC-PVTZ
    Blend: AUG-CC-PVTZ
  Basis Set: (AUG-CC-PVTZ AUX)
    Blend: AUG-CC-PVTZ-JKFIT

    Orbital Energies [Eh]
    ---------------------

    Doubly Occupied:

       1A    -20.587895     2A    -20.581482     3A    -20.559162
       4A    -20.556463     5A    -20.519568     6A    -15.632792
       7A    -15.599548     8A    -15.551607     9A    -11.385813
      10A    -11.357923    11A    -11.339492    12A    -11.324976
      13A    -11.309672    14A    -11.298589    15A    -11.296732
      16A    -11.293546    17A    -11.246390    18A     -1.429235
      19A     -1.394069    20A     -1.383448    21A     -1.375649
      22A     -1.346487    23A     -1.303513    24A     -1.271188
      25A     -1.181057    26A     -1.079183    27A     -1.067462
      28A     -1.016907    29A     -0.934655    30A     -0.906061
      31A     -0.876081    32A     -0.829787    33A     -0.811230
      34A     -0.766156    35A     -0.750128    36A     -0.734313
      37A     -0.721491    38A     -0.708471    39A     -0.703379
      40A     -0.684284    41A     -0.674267    42A     -0.650941
      43A     -0.648975    44A     -0.633273    45A     -0.620041
      46A     -0.614778    47A     -0.607737    48A     -0.593030
      49A     -0.577057    50A     -0.564932    51A     -0.555605
      52A     -0.548277    53A     -0.536546    54A     -0.530737
      55A     -0.495569    56A     -0.479413    57A     -0.472869
      58A     -0.463489    59A     -0.457828    60A     -0.452470
      61A     -0.441957    62A     -0.430139    63A     -0.392121
      64A     -0.348083

  @DF-RHF Final Energy:  -886.37191197010566

   => Energetics <=

    Nuclear Repulsion Energy =           1334.3892889653957354
    One-Electron Energy =               -3866.5103656179894642
    Two-Electron Energy =                1645.7491646824880718
    Total Energy =                       -886.3719119701056570
  Basis Set: (AUG-CC-PVTZ AUX)
    Blend: AUG-CC-PVTZ-RI
    Molecular point group: c1

    Geometry (in Angstrom), charge = 0, multiplicity = 1:

       Center              X                  Y                   Z               Mass
    ------------   -----------------  -----------------  -----------------  -----------------
         O           -1.332072149333     0.682526451602    -1.083573191741    15.994914619570
         O           -1.586456149333    -2.435394548398     0.529243808259    15.994914619570
         O           -3.573558149333    -1.041252548398    -0.444343191741    15.994914619570
         O           -1.452824149333     3.154152451602     0.142180808259    15.994914619570
         O            1.093657850667    -2.354674548398     0.023264808259    15.994914619570
         N            0.755740850667    -0.129253548398    -0.354972191741    14.003074004430
         N            2.923481850667    -0.965181548398     0.161670808259    14.003074004430
         N            4.692992850667     0.471801451602     0.376788808259    14.003074004430
         C           -1.389756149333    -1.039353548398     0.570940808259    12.000000000000
         C           -2.750879149333    -0.345945548398     0.473510808259    12.000000000000
         C           -0.650644149333    -0.475603548398    -0.663352191741    12.000000000000
         C           -2.383639149333     0.994235451602    -0.142843191741    12.000000000000
         C           -1.912098149333     2.018265451602     0.872800808259    12.000000000000
         C            1.218073850667     1.147770451602    -0.428560191741    12.000000000000
         C            1.597552850667    -1.218368548398    -0.042913191741    12.000000000000
         C            2.534569850667     1.404059451602    -0.184199191741    12.000000000000
         C            3.367313850667     0.280994451602     0.096503808259    12.000000000000
         H           -0.857031149333    -0.740004548398     1.485510808259     1.007825032230
         H           -3.238635149333    -0.249188548398     1.455685808259     1.007825032230
         H           -0.635602149333    -1.214121548398    -1.472709191741     1.007825032230
         H           -3.207070149333     1.407263451602    -0.731544191741     1.007825032230
         H           -1.071567949333     1.580038451602     1.524180108259     1.007825032230
         H           -2.753948149333     2.275351451602     1.532263808259     1.007825032230
         H           -0.683950149333    -2.797383548398     0.369887808259     1.007825032230
         H           -3.319242149333    -1.981831548398    -0.347266191741     1.007825032230
         H            0.480033850667     1.906516451602    -0.668373191741     1.007825032230
         H           -1.222775149333     3.844171451602     0.787696808259     1.007825032230
         H            2.920588850667     2.416247451602    -0.223249191741     1.007825032230
         H            5.146069850667     1.299963451602     0.014822808259     1.007825032230
         H            5.250635850667    -0.374436548398     0.376332808259     1.007825032230

  Basis Set: AUG-CC-PVTZ
    Blend: AUG-CC-PVTZ
  Basis Set: (AUG-CC-PVTZ AUX)
    Blend: AUG-CC-PVTZ-JKFIT
	 Reference Energy          =    -886.3719119701056570 [Eh]
	 Singles Energy            =      -0.0000000000000000 [Eh]
	 Same-Spin Energy          =      -0.9019321734181024 [Eh]
	 Opposite-Spin Energy      =      -2.7163730066875709 [Eh]
	 Correlation Energy        =      -3.6183051801056734 [Eh]
	 Total Energy              =    -889.9902171502113788 [Eh]

	 ================> DF-SCS-MP2 Energies <==================
	-----------------------------------------------------------
	 SCS Same-Spin Scale       =       0.3333333333333333 [-]
	 SCS Opposite-Spin Scale   =       1.2000000000000000 [-]
	 SCS Same-Spin Energy      =      -0.3006440578060341 [Eh]
	 SCS Opposite-Spin Energy  =      -3.2596476080250851 [Eh]
	 SCS Correlation Energy    =      -3.5602916658311194 [Eh]
	 SCS Total Energy          =    -889.9322036359367303 [Eh]
	-----------------------------------------------------------

  Dipole Moment: [D]
     X:     2.7132      Y:     5.8257      Z:     1.9237     Total:     6.7082

*** Psi4 exiting successfully. Buy a developer a beer!
