                               Psi4 1.3.2 release

  ==> Input File <==

--------------------------------------------------------------------------
#psi4
#
memory 32 gb

molecule  {
0 1
  O       -1.2481010    -0.6526680     1.0325150
  O       -1.2449750     2.4828510    -0.6861630
  O       -3.2165300     1.5210990     0.7448870
  O       -2.3570290    -3.0668370     0.0949400
  O        1.3605300     2.2470340    -0.0765420
  N        0.7773555     0.0249946     0.2733963
  N        3.0572260     0.7205030    -0.2937270
  N        4.7164630    -0.8366550    -0.5722980
  C       -1.2894840     1.0784300    -0.5920770
  C       -2.7151710     0.6552070    -0.2573930
  C       -0.5254080     0.4815200     0.6000940
  C       -2.5292560    -0.7168860     0.3610560
  C       -2.5283440    -1.8503930    -0.6392900
  C        1.2197750    -1.2614080     0.3112740
  C        1.7555940     1.0674350    -0.0594030
  C        2.5111010    -1.6091400     0.0469950
  C        3.4119830    -0.5506530    -0.2589250
  H       -0.9376060     0.5914040    -1.5148910
  H       -3.3625820     0.6426650    -1.1464650
  H       -0.4402900     1.2218800     1.4039980
  H       -3.2819570    -0.9087340     1.1307830
  H       -1.7133080    -1.7003050    -1.3694640
  H       -3.4855610    -1.8340040    -1.1841350
  H       -0.2975250     2.7131790    -0.5250000
  H       -2.8475560     2.3997430     0.5086630
  H        0.3983647    -1.9196257     0.5725991
  H       -2.4338740    -3.7984320    -0.5432330
  H        2.8291120    -2.6453980     0.0739220
  H        5.1251800    -1.6708610    -0.1624140
  H        5.3198140    -0.0200540    -0.5682940
units angstrom
no_reorient  #important for SAPT in psi4, default
symmetry c1  #important for SAPT in psi4, default
}

set PROPERTIES_ORIGIN ["COM"]
properties('MP2/aug-cc-pvtz', properties = ['dipole'])
--------------------------------------------------------------------------

    Molecular point group: c1
  Charge       = 0
  Multiplicity = 1
  Basis Set: AUG-CC-PVTZ
    Blend: AUG-CC-PVTZ
  Basis Set: (AUG-CC-PVTZ AUX)
    Blend: AUG-CC-PVTZ-JKFIT

    Orbital Energies [Eh]
    ---------------------

    Doubly Occupied:

       1A    -20.581240     2A    -20.578741     3A    -20.557294
       4A    -20.557090     5A    -20.528036     6A    -15.635707
       7A    -15.601844     8A    -15.556576     9A    -11.395226
      10A    -11.360508    11A    -11.336493    12A    -11.328722
      13A    -11.300160    14A    -11.295392    15A    -11.295255
      16A    -11.291984    17A    -11.248058    18A     -1.430440
      19A     -1.394680    20A     -1.379629    21A     -1.372395
      22A     -1.345957    23A     -1.306073    24A     -1.275873
      25A     -1.186049    26A     -1.083607    27A     -1.066697
      28A     -1.018569    29A     -0.939454    30A     -0.900242
      31A     -0.878237    32A     -0.833406    33A     -0.811471
      34A     -0.767738    35A     -0.751357    36A     -0.737230
      37A     -0.721043    38A     -0.702889    39A     -0.698018
      40A     -0.684513    41A     -0.672535    42A     -0.653912
      43A     -0.651551    44A     -0.636479    45A     -0.620462
      46A     -0.612100    47A     -0.607069    48A     -0.597873
      49A     -0.574829    50A     -0.569291    51A     -0.554962
      52A     -0.546024    53A     -0.537524    54A     -0.531003
      55A     -0.500258    56A     -0.476760    57A     -0.473965
      58A     -0.463606    59A     -0.459935    60A     -0.452301
      61A     -0.440469    62A     -0.433224    63A     -0.396905
      64A     -0.347719

  @DF-RHF Final Energy:  -886.36552216720986

   => Energetics <=

    Nuclear Repulsion Energy =           1324.1092589080826656
    One-Electron Energy =               -3845.8602585803846523
    Two-Electron Energy =                1635.3854775050922399
    Total Energy =                       -886.3655221672097468
  Basis Set: (AUG-CC-PVTZ AUX)
    Blend: AUG-CC-PVTZ-RI
    Molecular point group: c1

    Geometry (in Angstrom), charge = 0, multiplicity = 1:

       Center              X                  Y                   Z               Mass
    ------------   -----------------  -----------------  -----------------  -----------------
         O           -1.244147241821    -0.651684362137     1.031494960783    15.994914619570
         O           -1.241021241821     2.483834637863    -0.687183039217    15.994914619570
         O           -3.212576241821     1.522082637863     0.743866960783    15.994914619570
         O           -2.353075241821    -3.065853362137     0.093919960783    15.994914619570
         O            1.364483758179     2.248017637863    -0.077562039217    15.994914619570
         N            0.781309258179     0.025978237863     0.272376260783    14.003074004430
         N            3.061179758179     0.721486637863    -0.294747039217    14.003074004430
         N            4.720416758179    -0.835671362137    -0.573318039217    14.003074004430
         C           -1.285530241821     1.079413637863    -0.593097039217    12.000000000000
         C           -2.711217241821     0.656190637863    -0.258413039217    12.000000000000
         C           -0.521454241821     0.482503637863     0.599073960783    12.000000000000
         C           -2.525302241821    -0.715902362137     0.360035960783    12.000000000000
         C           -2.524390241821    -1.849409362137    -0.640310039217    12.000000000000
         C            1.223728758179    -1.260424362137     0.310253960783    12.000000000000
         C            1.759547758179     1.068418637863    -0.060423039217    12.000000000000
         C            2.515054758179    -1.608156362137     0.045974960783    12.000000000000
         C            3.415936758179    -0.549669362137    -0.259945039217    12.000000000000
         H           -0.933652241821     0.592387637863    -1.515911039217     1.007825032230
         H           -3.358628241821     0.643648637863    -1.147485039217     1.007825032230
         H           -0.436336241821     1.222863637863     1.402977960783     1.007825032230
         H           -3.278003241821    -0.907750362137     1.129762960783     1.007825032230
         H           -1.709354241821    -1.699321362137    -1.370484039217     1.007825032230
         H           -3.481607241821    -1.833020362137    -1.185155039217     1.007825032230
         H           -0.293571241821     2.714162637863    -0.526020039217     1.007825032230
         H           -2.843602241821     2.400726637863     0.507642960783     1.007825032230
         H            0.402318458179    -1.918642062137     0.571579060783     1.007825032230
         H           -2.429920241821    -3.797448362137    -0.544253039217     1.007825032230
         H            2.833065758179    -2.644414362137     0.072901960783     1.007825032230
         H            5.129133758179    -1.669877362137    -0.163434039217     1.007825032230
         H            5.323767758179    -0.019070362137    -0.569314039217     1.007825032230

  Basis Set: AUG-CC-PVTZ
    Blend: AUG-CC-PVTZ
  Basis Set: (AUG-CC-PVTZ AUX)
    Blend: AUG-CC-PVTZ-JKFIT
	 Reference Energy          =    -886.3655221672098605 [Eh]
	 Singles Energy            =      -0.0000000000000000 [Eh]
	 Same-Spin Energy          =      -0.9018866857285364 [Eh]
	 Opposite-Spin Energy      =      -2.7162010791512250 [Eh]
	 Correlation Energy        =      -3.6180877648797614 [Eh]
	 Total Energy              =    -889.9836099320896210 [Eh]

	 ================> DF-SCS-MP2 Energies <==================
	-----------------------------------------------------------
	 SCS Same-Spin Scale       =       0.3333333333333333 [-]
	 SCS Opposite-Spin Scale   =       1.2000000000000000 [-]
	 SCS Same-Spin Energy      =      -0.3006288952428454 [Eh]
	 SCS Opposite-Spin Energy  =      -3.2594412949814697 [Eh]
	 SCS Correlation Energy    =      -3.5600701902243150 [Eh]
	 SCS Total Energy          =    -889.9255923574341978 [Eh]
	-----------------------------------------------------------

  Dipole Moment: [D]
     X:     1.8756      Y:    -5.7310      Z:    -1.8726     Total:     6.3142

*** Psi4 exiting successfully. Buy a developer a beer!
