                               Psi4 1.3.2 release

  ==> Input File <==

--------------------------------------------------------------------------
#psi4
#
memory 32 gb

molecule  {
0 1
  O       -1.2481010    -0.6526680     1.0325150
  O       -1.2449750     2.4828510    -0.6861630
  O       -3.2165300     1.5210990     0.7448870
  O       -2.3570290    -3.0668370     0.0949400
  O        1.3605300     2.2470340    -0.0765420
  N        0.8434040     0.0452230     0.2559430
  N        3.0572260     0.7205030    -0.2937270
  N        4.7164630    -0.8366550    -0.5722980
  C       -1.2894840     1.0784300    -0.5920770
  C       -2.7151710     0.6552070    -0.2573930
  C       -0.5254080     0.4815200     0.6000940
  C       -2.5292560    -0.7168860     0.3610560
  C       -2.5283440    -1.8503930    -0.6392900
  C        1.2197750    -1.2614080     0.3112740
  C        1.7555940     1.0674350    -0.0594030
  C        2.5111010    -1.6091400     0.0469950
  C        3.4119830    -0.5506530    -0.2589250
  H       -0.9376060     0.5914040    -1.5148910
  H       -3.3625820     0.6426650    -1.1464650
  H       -0.4480549     1.1543408     1.3306620
  H       -3.2819570    -0.9087340     1.1307830
  H       -1.7133080    -1.7003050    -1.3694640
  H       -3.4855610    -1.8340040    -1.1841350
  H       -0.2975250     2.7131790    -0.5250000
  H       -2.8475560     2.3997430     0.5086630
  H        0.4343110    -1.9634370     0.5690680
  H       -2.4338740    -3.7984320    -0.5432330
  H        2.8291120    -2.6453980     0.0739220
  H        5.1251800    -1.6708610    -0.1624140
  H        5.3198140    -0.0200540    -0.5682940
units angstrom
no_reorient  #important for SAPT in psi4, default
symmetry c1  #important for SAPT in psi4, default
}

set PROPERTIES_ORIGIN ["COM"]
properties('MP2/aug-cc-pvtz', properties = ['dipole'])
--------------------------------------------------------------------------

    Molecular point group: c1
  Charge       = 0
  Multiplicity = 1
  Basis Set: AUG-CC-PVTZ
    Blend: AUG-CC-PVTZ
  Basis Set: (AUG-CC-PVTZ AUX)
    Blend: AUG-CC-PVTZ-JKFIT

    Orbital Energies [Eh]
    ---------------------

    Doubly Occupied:

       1A    -20.582072     2A    -20.580711     3A    -20.558122
       4A    -20.557531     5A    -20.522206     6A    -15.636293
       7A    -15.599848     8A    -15.553351     9A    -11.388441
      10A    -11.357864    11A    -11.330628    12A    -11.328409
      13A    -11.300948    14A    -11.296649    15A    -11.296031
      16A    -11.292865    17A    -11.248408    18A     -1.429575
      19A     -1.396446    20A     -1.380235    21A     -1.372703
      22A     -1.346617    23A     -1.306077    24A     -1.273805
      25A     -1.182400    26A     -1.083279    27A     -1.067544
      28A     -1.023918    29A     -0.938645    30A     -0.909343
      31A     -0.877336    32A     -0.839777    33A     -0.811690
      34A     -0.767727    35A     -0.752762    36A     -0.742073
      37A     -0.720198    38A     -0.702948    39A     -0.698504
      40A     -0.686345    41A     -0.673675    42A     -0.659059
      43A     -0.651561    44A     -0.638945    45A     -0.621234
      46A     -0.614333    47A     -0.607288    48A     -0.594142
      49A     -0.575733    50A     -0.572806    51A     -0.554656
      52A     -0.546002    53A     -0.537581    54A     -0.534129
      55A     -0.498454    56A     -0.477483    57A     -0.474343
      58A     -0.462714    59A     -0.460237    60A     -0.452785
      61A     -0.442046    62A     -0.433576    63A     -0.395905
      64A     -0.350179

  @DF-RHF Final Energy:  -886.36846349524387

   => Energetics <=

    Nuclear Repulsion Energy =           1324.3981392635523662
    One-Electron Energy =               -3846.3948363998742934
    Two-Electron Energy =                1635.6282336410779408
    Total Energy =                       -886.3684634952439865
  Basis Set: (AUG-CC-PVTZ AUX)
    Blend: AUG-CC-PVTZ-RI
    Molecular point group: c1

    Geometry (in Angstrom), charge = 0, multiplicity = 1:

       Center              X                  Y                   Z               Mass
    ------------   -----------------  -----------------  -----------------  -----------------
         O           -1.248068840902    -0.652387974432     1.032819056263    15.994914619570
         O           -1.244942840902     2.483131025568    -0.685858943737    15.994914619570
         O           -3.216497840902     1.521379025568     0.745191056263    15.994914619570
         O           -2.356996840902    -3.066556974432     0.095244056263    15.994914619570
         O            1.360562159098     2.247314025568    -0.076237943737    15.994914619570
         N            0.843436159098     0.045503025568     0.256247056263    14.003074004430
         N            3.057258159098     0.720783025568    -0.293422943737    14.003074004430
         N            4.716495159098    -0.836374974432    -0.571993943737    14.003074004430
         C           -1.289451840902     1.078710025568    -0.591772943737    12.000000000000
         C           -2.715138840902     0.655487025568    -0.257088943737    12.000000000000
         C           -0.525375840902     0.481800025568     0.600398056263    12.000000000000
         C           -2.529223840902    -0.716605974432     0.361360056263    12.000000000000
         C           -2.528311840902    -1.850112974432    -0.638985943737    12.000000000000
         C            1.219807159098    -1.261127974432     0.311578056263    12.000000000000
         C            1.755626159098     1.067715025568    -0.059098943737    12.000000000000
         C            2.511133159098    -1.608859974432     0.047299056263    12.000000000000
         C            3.412015159098    -0.550372974432    -0.258620943737    12.000000000000
         H           -0.937573840902     0.591684025568    -1.514586943737     1.007825032230
         H           -3.362549840902     0.642945025568    -1.146160943737     1.007825032230
         H           -0.448022740902     1.154620825568     1.330966056263     1.007825032230
         H           -3.281924840902    -0.908453974432     1.131087056263     1.007825032230
         H           -1.713275840902    -1.700024974432    -1.369159943737     1.007825032230
         H           -3.485528840902    -1.833723974432    -1.183830943737     1.007825032230
         H           -0.297492840902     2.713459025568    -0.524695943737     1.007825032230
         H           -2.847523840902     2.400023025568     0.508967056263     1.007825032230
         H            0.434343159098    -1.963156974432     0.569372056263     1.007825032230
         H           -2.433841840902    -3.798151974432    -0.542928943737     1.007825032230
         H            2.829144159098    -2.645117974432     0.074226056263     1.007825032230
         H            5.125212159098    -1.670580974432    -0.162109943737     1.007825032230
         H            5.319846159098    -0.019773974432    -0.567989943737     1.007825032230

  Basis Set: AUG-CC-PVTZ
    Blend: AUG-CC-PVTZ
  Basis Set: (AUG-CC-PVTZ AUX)
    Blend: AUG-CC-PVTZ-JKFIT
	 Reference Energy          =    -886.3684634952438728 [Eh]
	 Singles Energy            =      -0.0000000000000000 [Eh]
	 Same-Spin Energy          =      -0.9008293557006065 [Eh]
	 Opposite-Spin Energy      =      -2.7139651942411103 [Eh]
	 Correlation Energy        =      -3.6147945499417169 [Eh]
	 Total Energy              =    -889.9832580451856074 [Eh]

	 ================> DF-SCS-MP2 Energies <==================
	-----------------------------------------------------------
	 SCS Same-Spin Scale       =       0.3333333333333333 [-]
	 SCS Opposite-Spin Scale   =       1.2000000000000000 [-]
	 SCS Same-Spin Energy      =      -0.3002764519002021 [Eh]
	 SCS Opposite-Spin Energy  =      -3.2567582330893323 [Eh]
	 SCS Correlation Energy    =      -3.5570346849895342 [Eh]
	 SCS Total Energy          =    -889.9254981802333759 [Eh]
	-----------------------------------------------------------

  Dipole Moment: [D]
     X:     1.7177      Y:    -5.9350      Z:    -1.8209     Total:     6.4413

*** Psi4 exiting successfully. Buy a developer a beer!
