                               Psi4 1.4a3.dev225

  ==> Input File <==

--------------------------------------------------------------------------
#psi4
#
memory 32 gb

molecule  {
0 1
  O       -1.3191770     0.6538360    -1.0992360
  O       -1.5735610    -2.4640850     0.5135810
  O       -3.5606630    -1.0699430    -0.4600060
  O       -1.4399290     3.1254620     0.1265180
  O        1.1065530    -2.3833650     0.0076020
  N        0.7686360    -0.1579440    -0.3706350
  N        2.9363770    -0.9938720     0.1460080
  N        4.7058880     0.4431110     0.3611260
  C       -1.3768610    -1.0680440     0.5552780
  C       -2.7379840    -0.3746360     0.4578480
  C       -0.6377490    -0.5042940    -0.6790150
  C       -2.3707440     0.9655450    -0.1585060
  C       -1.8992030     1.9895750     0.8571380
  C        1.2309690     1.1190800    -0.4442230
  C        1.6104480    -1.2470590    -0.0585760
  C        2.5281515     1.3716091    -0.2034469
  C        3.3802090     0.2523040     0.0808410
  H       -0.8441360    -0.7686950     1.4698480
  H       -3.2257400    -0.2778790     1.4400230
  H       -0.6227070    -1.2428120    -1.4883720
  H       -3.1941750     1.3785730    -0.7472070
  H       -1.0952130     1.5703990     1.4802000
  H       -2.7410530     2.2466610     1.5166010
  H       -0.6710550    -2.8260740     0.3542250
  H       -3.3063470    -2.0105220    -0.3629290
  H        0.4929290     1.8778260    -0.6840360
  H       -1.2098800     3.8154810     0.7720340
  H        2.9334840     2.3875570    -0.2389120
  H        5.1589650     1.2712730    -0.0008400
  H        5.2635310    -0.4031270     0.3606700
units angstrom
no_reorient  #important for SAPT in psi4, default
symmetry c1  #important for SAPT in psi4, default
}

set PROPERTIES_ORIGIN ["COM"]
properties('MP2/aug-cc-pvtz', properties = ['dipole'])
--------------------------------------------------------------------------

    Molecular point group: c1
  Charge       = 0
  Multiplicity = 1
  Basis Set: AUG-CC-PVTZ
    Blend: AUG-CC-PVTZ
  Basis Set: (AUG-CC-PVTZ AUX)
    Blend: AUG-CC-PVTZ-JKFIT

    Orbital Energies [Eh]
    ---------------------

    Doubly Occupied:

       1A    -20.586277     2A    -20.580707     3A    -20.558900
       4A    -20.556006     5A    -20.519590     6A    -15.630754
       7A    -15.601538     8A    -15.552245     9A    -11.385783
      10A    -11.359781    11A    -11.338707    12A    -11.320787
      13A    -11.303106    14A    -11.297418    15A    -11.296330
      16A    -11.293002    17A    -11.246575    18A     -1.428549
      19A     -1.393782    20A     -1.382590    21A     -1.375004
      22A     -1.346102    23A     -1.303953    24A     -1.271185
      25A     -1.181825    26A     -1.081835    27A     -1.067526
      28A     -1.016600    29A     -0.935826    30A     -0.904925
      31A     -0.877366    32A     -0.829780    33A     -0.811983
      34A     -0.767247    35A     -0.749793    36A     -0.734543
      37A     -0.722277    38A     -0.707513    39A     -0.702969
      40A     -0.685286    41A     -0.674719    42A     -0.652987
      43A     -0.647265    44A     -0.632948    45A     -0.619256
      46A     -0.615839    47A     -0.608831    48A     -0.592154
      49A     -0.576768    50A     -0.564646    51A     -0.555470
      52A     -0.547840    53A     -0.536143    54A     -0.530859
      55A     -0.496213    56A     -0.480400    57A     -0.473362
      58A     -0.462784    59A     -0.457573    60A     -0.452387
      61A     -0.442057    62A     -0.429795    63A     -0.392507
      64A     -0.349876

  @DF-RHF Final Energy:  -886.37419511554981

   => Energetics <=

    Nuclear Repulsion Energy =           1334.8953848009739431
    One-Electron Energy =               -3867.5418744433636675
    Two-Electron Energy =                1646.2722945268396870
    Total Energy =                       -886.3741951155498100
  Basis Set: (AUG-CC-PVTZ AUX)
    Blend: AUG-CC-PVTZ-RI
    Molecular point group: c1

    Geometry (in Angstrom), charge = 0, multiplicity = 1:

       Center              X                  Y                   Z               Mass
    ------------   -----------------  -----------------  -----------------  -----------------
         O           -1.330967237252     0.682633075499    -1.083278819277    15.994914619570
         O           -1.585351237252    -2.435287924501     0.529538180723    15.994914619570
         O           -3.572453237252    -1.041145924501    -0.444048819277    15.994914619570
         O           -1.451719237252     3.154259075499     0.142475180723    15.994914619570
         O            1.094762762748    -2.354567924501     0.023559180723    15.994914619570
         N            0.756845762748    -0.129146924501    -0.354677819277    14.003074004430
         N            2.924586762748    -0.965074924501     0.161965180723    14.003074004430
         N            4.694097762748     0.471908075499     0.377083180723    14.003074004430
         C           -1.388651237252    -1.039246924501     0.571235180723    12.000000000000
         C           -2.749774237252    -0.345838924501     0.473805180723    12.000000000000
         C           -0.649539237252    -0.475496924501    -0.663057819277    12.000000000000
         C           -2.382534237252     0.994342075499    -0.142548819277    12.000000000000
         C           -1.910993237252     2.018372075499     0.873095180723    12.000000000000
         C            1.219178762748     1.147877075499    -0.428265819277    12.000000000000
         C            1.598657762748    -1.218261924501    -0.042618819277    12.000000000000
         C            2.516361262748     1.400406175499    -0.187489719277    12.000000000000
         C            3.368418762748     0.281101075499     0.096798180723    12.000000000000
         H           -0.855926237252    -0.739897924501     1.485805180723     1.007825032230
         H           -3.237530237252    -0.249081924501     1.455980180723     1.007825032230
         H           -0.634497237252    -1.214014924501    -1.472414819277     1.007825032230
         H           -3.205965237252     1.407370075499    -0.731249819277     1.007825032230
         H           -1.107003237252     1.599196075499     1.496157180723     1.007825032230
         H           -2.752843237252     2.275458075499     1.532558180723     1.007825032230
         H           -0.682845237252    -2.797276924501     0.370182180723     1.007825032230
         H           -3.318137237252    -1.981724924501    -0.346971819277     1.007825032230
         H            0.481138762748     1.906623075499    -0.668078819277     1.007825032230
         H           -1.221670237252     3.844278075499     0.787991180723     1.007825032230
         H            2.921693762748     2.416354075499    -0.222954819277     1.007825032230
         H            5.147174762748     1.300070075499     0.015117180723     1.007825032230
         H            5.251740762748    -0.374329924501     0.376627180723     1.007825032230

  Basis Set: AUG-CC-PVTZ
    Blend: AUG-CC-PVTZ
  Basis Set: (AUG-CC-PVTZ AUX)
    Blend: AUG-CC-PVTZ-JKFIT
	 Reference Energy          =    -886.3741951155498100 [Eh]
	 Singles Energy            =      -0.0000000000000000 [Eh]
	 Same-Spin Energy          =      -0.9015876125408189 [Eh]
	 Opposite-Spin Energy      =      -2.7156429580078276 [Eh]
	 Correlation Energy        =      -3.6172305705486467 [Eh]
	 Total Energy              =    -889.9914256860984096 [Eh]

	 ================> DF-SCS-MP2 Energies <==================
	-----------------------------------------------------------
	 SCS Same-Spin Scale       =       0.3333333333333333 [-]
	 SCS Opposite-Spin Scale   =       1.2000000000000000 [-]
	 SCS Same-Spin Energy      =      -0.3005292041802730 [Eh]
	 SCS Opposite-Spin Energy  =      -3.2587715496093930 [Eh]
	 SCS Correlation Energy    =      -3.5593007537896657 [Eh]
	 SCS Total Energy          =    -889.9334958693394810 [Eh]
	-----------------------------------------------------------

  Dipole Moment: [D]
     X:     2.8175      Y:     5.7972      Z:     1.9584     Total:     6.7365

*** Psi4 exiting successfully. Buy a developer a beer!
