                               Psi4 1.3.2 release

  ==> Input File <==

--------------------------------------------------------------------------
#psi4
#
memory 32 gb

molecule  {
0 1
  O       -1.2481010    -0.6526680     1.0325150
  O       -1.2449750     2.4828510    -0.6861630
  O       -3.2165300     1.5210990     0.7448870
  O       -2.3570290    -3.0668370     0.0949400
  O        1.3605300     2.2470340    -0.0765420
  N        0.8434040     0.0452230     0.2559430
  N        3.0572260     0.7205030    -0.2937270
  N        4.7164630    -0.8366550    -0.5722980
  C       -1.2411742     1.0783674    -0.5829982
  C       -2.7151710     0.6552070    -0.2573930
  C       -0.5254080     0.4815200     0.6000940
  C       -2.5292560    -0.7168860     0.3610560
  C       -2.5283440    -1.8503930    -0.6392900
  C        1.2197750    -1.2614080     0.3112740
  C        1.7555940     1.0674350    -0.0594030
  C        2.5111010    -1.6091400     0.0469950
  C        3.4119830    -0.5506530    -0.2589250
  H       -0.9376060     0.5914040    -1.5148910
  H       -3.3625820     0.6426650    -1.1464650
  H       -0.4402900     1.2218800     1.4039980
  H       -3.2819570    -0.9087340     1.1307830
  H       -1.7133080    -1.7003050    -1.3694640
  H       -3.4855610    -1.8340040    -1.1841350
  H       -0.2906244     2.6795890    -0.5212536
  H       -2.8475560     2.3997430     0.5086630
  H        0.4343110    -1.9634370     0.5690680
  H       -2.4338740    -3.7984320    -0.5432330
  H        2.8291120    -2.6453980     0.0739220
  H        5.1251800    -1.6708610    -0.1624140
  H        5.3198140    -0.0200540    -0.5682940
units angstrom
no_reorient  #important for SAPT in psi4, default
symmetry c1  #important for SAPT in psi4, default
}

set PROPERTIES_ORIGIN ["COM"]
properties('MP2/aug-cc-pvtz', properties = ['dipole'])
--------------------------------------------------------------------------

    Molecular point group: c1
  Charge       = 0
  Multiplicity = 1
  Basis Set: AUG-CC-PVTZ
    Blend: AUG-CC-PVTZ
  Basis Set: (AUG-CC-PVTZ AUX)
    Blend: AUG-CC-PVTZ-JKFIT

    Orbital Energies [Eh]
    ---------------------

    Doubly Occupied:

       1A    -20.582536     2A    -20.582083     3A    -20.558478
       4A    -20.557302     5A    -20.523415     6A    -15.637062
       7A    -15.600204     8A    -15.553942     9A    -11.389140
      10A    -11.358315    11A    -11.341888    12A    -11.328857
      13A    -11.300926    14A    -11.296069    15A    -11.295813
      16A    -11.293676    17A    -11.248910    18A     -1.430299
      19A     -1.397433    20A     -1.380100    21A     -1.372978
      22A     -1.347199    23A     -1.306837    24A     -1.274469
      25A     -1.182904    26A     -1.083502    27A     -1.064100
      28A     -1.022876    29A     -0.934065    30A     -0.909986
      31A     -0.877902    32A     -0.831242    33A     -0.813106
      34A     -0.767502    35A     -0.752641    36A     -0.735582
      37A     -0.720472    38A     -0.702911    39A     -0.697597
      40A     -0.686253    41A     -0.671428    42A     -0.655351
      43A     -0.651260    44A     -0.640294    45A     -0.620878
      46A     -0.614279    47A     -0.606470    48A     -0.595392
      49A     -0.573764    50A     -0.569854    51A     -0.557356
      52A     -0.546026    53A     -0.539751    54A     -0.531967
      55A     -0.498317    56A     -0.477746    57A     -0.469901
      58A     -0.462082    59A     -0.461063    60A     -0.452628
      61A     -0.440875    62A     -0.433934    63A     -0.395999
      64A     -0.350732

  @DF-RHF Final Energy:  -886.36986787796013

   => Energetics <=

    Nuclear Repulsion Energy =           1324.1231601662593675
    One-Electron Energy =               -3845.8702224215576280
    Two-Electron Energy =                1635.3771943773381281
    Total Energy =                       -886.3698678779601323
  Basis Set: (AUG-CC-PVTZ AUX)
    Blend: AUG-CC-PVTZ-RI
    Molecular point group: c1

    Geometry (in Angstrom), charge = 0, multiplicity = 1:

       Center              X                  Y                   Z               Mass
    ------------   -----------------  -----------------  -----------------  -----------------
         O           -1.250514473438    -0.652525636492     1.032051296950    15.994914619570
         O           -1.247388473438     2.482993363508    -0.686626703050    15.994914619570
         O           -3.218943473438     1.521241363508     0.744423296950    15.994914619570
         O           -2.359442473438    -3.066694636492     0.094476296950    15.994914619570
         O            1.358116526562     2.247176363508    -0.077005703050    15.994914619570
         N            0.840990526562     0.045365363508     0.255479296950    14.003074004430
         N            3.054812526562     0.720645363508    -0.294190703050    14.003074004430
         N            4.714049526562    -0.836512636492    -0.572761703050    14.003074004430
         C           -1.243587673438     1.078509763508    -0.583461903050    12.000000000000
         C           -2.717584473438     0.655349363508    -0.257856703050    12.000000000000
         C           -0.527821473438     0.481662363508     0.599630296950    12.000000000000
         C           -2.531669473438    -0.716743636492     0.360592296950    12.000000000000
         C           -2.530757473438    -1.850250636492    -0.639753703050    12.000000000000
         C            1.217361526562    -1.261265636492     0.310810296950    12.000000000000
         C            1.753180526562     1.067577363508    -0.059866703050    12.000000000000
         C            2.508687526562    -1.608997636492     0.046531296950    12.000000000000
         C            3.409569526562    -0.550510636492    -0.259388703050    12.000000000000
         H           -0.940019473438     0.591546363508    -1.515354703050     1.007825032230
         H           -3.364995473438     0.642807363508    -1.146928703050     1.007825032230
         H           -0.442703473438     1.222022363508     1.403534296950     1.007825032230
         H           -3.284370473438    -0.908591636492     1.130319296950     1.007825032230
         H           -1.715721473438    -1.700162636492    -1.369927703050     1.007825032230
         H           -3.487974473438    -1.833861636492    -1.184598703050     1.007825032230
         H           -0.293037873438     2.679731363508    -0.521717303050     1.007825032230
         H           -2.849969473438     2.399885363508     0.508199296950     1.007825032230
         H            0.431897526562    -1.963294636492     0.568604296950     1.007825032230
         H           -2.436287473438    -3.798289636492    -0.543696703050     1.007825032230
         H            2.826698526562    -2.645255636492     0.073458296950     1.007825032230
         H            5.122766526562    -1.670718636492    -0.162877703050     1.007825032230
         H            5.317400526562    -0.019911636492    -0.568757703050     1.007825032230

  Basis Set: AUG-CC-PVTZ
    Blend: AUG-CC-PVTZ
  Basis Set: (AUG-CC-PVTZ AUX)
    Blend: AUG-CC-PVTZ-JKFIT
	 Reference Energy          =    -886.3698678779601323 [Eh]
	 Singles Energy            =      -0.0000000000000000 [Eh]
	 Same-Spin Energy          =      -0.9017356776542572 [Eh]
	 Opposite-Spin Energy      =      -2.7158178425172004 [Eh]
	 Correlation Energy        =      -3.6175535201714575 [Eh]
	 Total Energy              =    -889.9874213981315734 [Eh]

	 ================> DF-SCS-MP2 Energies <==================
	-----------------------------------------------------------
	 SCS Same-Spin Scale       =       0.3333333333333333 [-]
	 SCS Opposite-Spin Scale   =       1.2000000000000000 [-]
	 SCS Same-Spin Energy      =      -0.3005785592180857 [Eh]
	 SCS Opposite-Spin Energy  =      -3.2589814110206405 [Eh]
	 SCS Correlation Energy    =      -3.5595599702387264 [Eh]
	 SCS Total Energy          =    -889.9294278481988840 [Eh]
	-----------------------------------------------------------

  Dipole Moment: [D]
     X:     1.7629      Y:    -5.9806      Z:    -1.8082     Total:     6.4919

*** Psi4 exiting successfully. Buy a developer a beer!
