                               Psi4 1.3.2 release

  ==> Input File <==

--------------------------------------------------------------------------
#psi4
#
memory 32 gb

molecule  {
0 1
  O       -1.2481010    -0.6526680     1.0325150
  O       -1.2449750     2.4828510    -0.6861630
  O       -3.2165300     1.5210990     0.7448870
  O       -2.3570290    -3.0668370     0.0949400
  O        1.3605300     2.2470340    -0.0765420
  N        0.8434040     0.0452230     0.2559430
  N        3.0572260     0.7205030    -0.2937270
  N        4.7164630    -0.8366550    -0.5722980
  C       -1.2926445     0.9787035    -0.5853960
  C       -2.7151710     0.6552070    -0.2573930
  C       -0.5254080     0.4815200     0.6000940
  C       -2.5292560    -0.7168860     0.3610560
  C       -2.5283440    -1.8503930    -0.6392900
  C        1.2197750    -1.2614080     0.3112740
  C        1.7555940     1.0674350    -0.0594030
  C        2.5111010    -1.6091400     0.0469950
  C        3.4119830    -0.5506530    -0.2589250
  H       -0.9376060     0.5914040    -1.5148910
  H       -3.3625820     0.6426650    -1.1464650
  H       -0.4402900     1.2218800     1.4039980
  H       -3.2819570    -0.9087340     1.1307830
  H       -1.7133080    -1.7003050    -1.3694640
  H       -3.4855610    -1.8340040    -1.1841350
  H       -0.2975250     2.7131790    -0.5250000
  H       -2.8475560     2.3997430     0.5086630
  H        0.4343110    -1.9634370     0.5690680
  H       -2.4338740    -3.7984320    -0.5432330
  H        2.8291120    -2.6453980     0.0739220
  H        5.1251800    -1.6708610    -0.1624140
  H        5.3198140    -0.0200540    -0.5682940
units angstrom
no_reorient  #important for SAPT in psi4, default
symmetry c1  #important for SAPT in psi4, default
}

set PROPERTIES_ORIGIN ["COM"]
properties('MP2/aug-cc-pvtz', properties = ['dipole'])
--------------------------------------------------------------------------

    Molecular point group: c1
  Charge       = 0
  Multiplicity = 1
  Basis Set: AUG-CC-PVTZ
    Blend: AUG-CC-PVTZ
  Basis Set: (AUG-CC-PVTZ AUX)
    Blend: AUG-CC-PVTZ-JKFIT

    Orbital Energies [Eh]
    ---------------------

    Doubly Occupied:

       1A    -20.583289     2A    -20.581947     3A    -20.559301
       4A    -20.547791     5A    -20.520925     6A    -15.637669
       7A    -15.600317     8A    -15.553599     9A    -11.388127
      10A    -11.358383    11A    -11.343659    12A    -11.329500
      13A    -11.302670    14A    -11.297626    15A    -11.295601
      16A    -11.294598    17A    -11.249427    18A     -1.431731
      19A     -1.396589    20A     -1.376667    21A     -1.367497
      22A     -1.321497    23A     -1.305836    24A     -1.274720
      25A     -1.182730    26A     -1.084521    27A     -1.075491
      28A     -1.028872    29A     -0.938400    30A     -0.910651
      31A     -0.878281    32A     -0.833687    33A     -0.814969
      34A     -0.768218    35A     -0.754640    36A     -0.731614
      37A     -0.722154    38A     -0.701839    39A     -0.698574
      40A     -0.686189    41A     -0.670580    42A     -0.655979
      43A     -0.650417    44A     -0.640043    45A     -0.619460
      46A     -0.611519    47A     -0.604715    48A     -0.591255
      49A     -0.578050    50A     -0.569257    51A     -0.548929
      52A     -0.544897    53A     -0.533476    54A     -0.520113
      55A     -0.497092    56A     -0.480886    57A     -0.476335
      58A     -0.464455    59A     -0.459815    60A     -0.457071
      61A     -0.446422    62A     -0.433495    63A     -0.396511
      64A     -0.351175

  @DF-RHF Final Energy:  -886.36210899347452

   => Energetics <=

    Nuclear Repulsion Energy =           1324.2771844980150036
    One-Electron Energy =               -3846.2150922981350050
    Two-Electron Energy =                1635.5757988066457074
    Total Energy =                       -886.3621089934745214
  Basis Set: (AUG-CC-PVTZ AUX)
    Blend: AUG-CC-PVTZ-RI
    Molecular point group: c1

    Geometry (in Angstrom), charge = 0, multiplicity = 1:

       Center              X                  Y                   Z               Mass
    ------------   -----------------  -----------------  -----------------  -----------------
         O           -1.247945014771    -0.647744957023     1.032185197627    15.994914619570
         O           -1.244819014771     2.487774042977    -0.686492802373    15.994914619570
         O           -3.216374014771     1.526022042977     0.744557197627    15.994914619570
         O           -2.356873014771    -3.061913957023     0.094610197627    15.994914619570
         O            1.360685985229     2.251957042977    -0.076871802373    15.994914619570
         N            0.843559985229     0.050146042977     0.255613197627    14.003074004430
         N            3.057381985229     0.725426042977    -0.294056802373    14.003074004430
         N            4.716618985229    -0.831731957023    -0.572627802373    14.003074004430
         C           -1.292488514771     0.983626542977    -0.585725802373    12.000000000000
         C           -2.715015014771     0.660130042977    -0.257722802373    12.000000000000
         C           -0.525252014771     0.486443042977     0.599764197627    12.000000000000
         C           -2.529100014771    -0.711962957023     0.360726197627    12.000000000000
         C           -2.528188014771    -1.845469957023    -0.639619802373    12.000000000000
         C            1.219930985229    -1.256484957023     0.310944197627    12.000000000000
         C            1.755749985229     1.072358042977    -0.059732802373    12.000000000000
         C            2.511256985229    -1.604216957023     0.046665197627    12.000000000000
         C            3.412138985229    -0.545729957023    -0.259254802373    12.000000000000
         H           -0.937450014771     0.596327042977    -1.515220802373     1.007825032230
         H           -3.362426014771     0.647588042977    -1.146794802373     1.007825032230
         H           -0.440134014771     1.226803042977     1.403668197627     1.007825032230
         H           -3.281801014771    -0.903810957023     1.130453197627     1.007825032230
         H           -1.713152014771    -1.695381957023    -1.369793802373     1.007825032230
         H           -3.485405014771    -1.829080957023    -1.184464802373     1.007825032230
         H           -0.297369014771     2.718102042977    -0.525329802373     1.007825032230
         H           -2.847400014771     2.404666042977     0.508333197627     1.007825032230
         H            0.434466985229    -1.958513957023     0.568738197627     1.007825032230
         H           -2.433718014771    -3.793508957023    -0.543562802373     1.007825032230
         H            2.829267985229    -2.640474957023     0.073592197627     1.007825032230
         H            5.125335985229    -1.665937957023    -0.162743802373     1.007825032230
         H            5.319969985229    -0.015130957023    -0.568623802373     1.007825032230

  Basis Set: AUG-CC-PVTZ
    Blend: AUG-CC-PVTZ
  Basis Set: (AUG-CC-PVTZ AUX)
    Blend: AUG-CC-PVTZ-JKFIT
	 Reference Energy          =    -886.3621089934745214 [Eh]
	 Singles Energy            =      -0.0000000000000000 [Eh]
	 Same-Spin Energy          =      -0.9019573724357741 [Eh]
	 Opposite-Spin Energy      =      -2.7172984287997939 [Eh]
	 Correlation Energy        =      -3.6192558012355680 [Eh]
	 Total Energy              =    -889.9813647947100890 [Eh]

	 ================> DF-SCS-MP2 Energies <==================
	-----------------------------------------------------------
	 SCS Same-Spin Scale       =       0.3333333333333333 [-]
	 SCS Opposite-Spin Scale   =       1.2000000000000000 [-]
	 SCS Same-Spin Energy      =      -0.3006524574785914 [Eh]
	 SCS Opposite-Spin Energy  =      -3.2607581145597524 [Eh]
	 SCS Correlation Energy    =      -3.5614105720383438 [Eh]
	 SCS Total Energy          =    -889.9235195655128337 [Eh]
	-----------------------------------------------------------

  Dipole Moment: [D]
     X:     1.7091      Y:    -6.2135      Z:    -1.7937     Total:     6.6892

*** Psi4 exiting successfully. Buy a developer a beer!
