                               Psi4 1.3.2 release

  ==> Input File <==

--------------------------------------------------------------------------
#psi4
#
memory 32 gb

molecule  {
0 1
  O       -1.2481010    -0.6526680     1.0325150
  O       -1.2449750     2.4828510    -0.6861630
  O       -3.2165300     1.5210990     0.7448870
  O       -2.3570290    -3.0668370     0.0949400
  O        1.3605300     2.2470340    -0.0765420
  N        0.8434040     0.0452230     0.2559430
  N        3.0572260     0.7205030    -0.2937270
  N        4.7164630    -0.8366550    -0.5722980
  C       -1.2894840     1.0784300    -0.5920770
  C       -2.7151710     0.6552070    -0.2573930
  C       -0.5254080     0.4815200     0.6000940
  C       -2.5292560    -0.7168860     0.3610560
  C       -2.5283440    -1.8503930    -0.6392900
  C        1.2197750    -1.2614080     0.3112740
  C        1.7555940     1.0674350    -0.0594030
  C        2.5111010    -1.6091400     0.0469950
  C        3.4119830    -0.5506530    -0.2589250
  H       -0.9376060     0.5914040    -1.5148910
  H       -3.3625820     0.6426650    -1.1464650
  H       -0.4402900     1.2218800     1.4039980
  H       -3.2819570    -0.9087340     1.1307830
  H       -1.7133080    -1.7003050    -1.3694640
  H       -3.4855610    -1.8340040    -1.1841350
  H       -0.2975250     2.7131790    -0.5250000
  H       -2.8475560     2.3997430     0.5086630
  H        0.4343110    -1.9634370     0.5690680
  H       -2.4417648    -3.8735553    -0.6087633
  H        2.8291120    -2.6453980     0.0739220
  H        5.1251800    -1.6708610    -0.1624140
  H        5.3198140    -0.0200540    -0.5682940
units angstrom
no_reorient  #important for SAPT in psi4, default
symmetry c1  #important for SAPT in psi4, default
}

set PROPERTIES_ORIGIN ["COM"]
properties('MP2/aug-cc-pvtz', properties = ['dipole'])
--------------------------------------------------------------------------

    Molecular point group: c1
  Charge       = 0
  Multiplicity = 1
  Basis Set: AUG-CC-PVTZ
    Blend: AUG-CC-PVTZ
  Basis Set: (AUG-CC-PVTZ AUX)
    Blend: AUG-CC-PVTZ-JKFIT

    Orbital Energies [Eh]
    ---------------------

    Doubly Occupied:

       1A    -20.590379     2A    -20.581270     3A    -20.557563
       4A    -20.557024     5A    -20.521817     6A    -15.636723
       7A    -15.599724     8A    -15.553183     9A    -11.388085
      10A    -11.357698    11A    -11.341309    12A    -11.328312
      13A    -11.300099    14A    -11.296524    15A    -11.296387
      16A    -11.292752    17A    -11.248363    18A     -1.428897
      19A     -1.395794    20A     -1.378459    21A     -1.356270
      22A     -1.346081    23A     -1.305859    24A     -1.273572
      25A     -1.182083    26A     -1.081663    27A     -1.065937
      28A     -1.019832    29A     -0.932391    30A     -0.908676
      31A     -0.876198    32A     -0.831790    33A     -0.811402
      34A     -0.766723    35A     -0.751862    36A     -0.734323
      37A     -0.718224    38A     -0.698369    39A     -0.688587
      40A     -0.683111    41A     -0.672171    42A     -0.653719
      43A     -0.651072    44A     -0.637380    45A     -0.620183
      46A     -0.613701    47A     -0.605847    48A     -0.593477
      49A     -0.574842    50A     -0.568852    51A     -0.553136
      52A     -0.543673    53A     -0.536986    54A     -0.528420
      55A     -0.497797    56A     -0.475901    57A     -0.473571
      58A     -0.461329    59A     -0.459713    60A     -0.452392
      61A     -0.440198    62A     -0.432879    63A     -0.395039
      64A     -0.349821

  @DF-RHF Final Energy:  -886.35984807667933

   => Energetics <=

    Nuclear Repulsion Energy =           1323.0716650729216326
    One-Electron Energy =               -3843.9121859634160501
    Two-Electron Energy =                1634.4806728138148628
    Total Energy =                       -886.3598480766793273
  Basis Set: (AUG-CC-PVTZ AUX)
    Blend: AUG-CC-PVTZ-RI
    Molecular point group: c1

    Geometry (in Angstrom), charge = 0, multiplicity = 1:

       Center              X                  Y                   Z               Mass
    ------------   -----------------  -----------------  -----------------  -----------------
         O           -1.248068318924    -0.652356530988     1.032786694073    15.994914619570
         O           -1.244942318924     2.483162469012    -0.685891305927    15.994914619570
         O           -3.216497318924     1.521410469012     0.745158694073    15.994914619570
         O           -2.356996318924    -3.066525530988     0.095211694073    15.994914619570
         O            1.360562681076     2.247345469012    -0.076270305927    15.994914619570
         N            0.843436681076     0.045534469012     0.256214694073    14.003074004430
         N            3.057258681076     0.720814469012    -0.293455305927    14.003074004430
         N            4.716495681076    -0.836343530988    -0.572026305927    14.003074004430
         C           -1.289451318924     1.078741469012    -0.591805305927    12.000000000000
         C           -2.715138318924     0.655518469012    -0.257121305927    12.000000000000
         C           -0.525375318924     0.481831469012     0.600365694073    12.000000000000
         C           -2.529223318924    -0.716574530988     0.361327694073    12.000000000000
         C           -2.528311318924    -1.850081530988    -0.639018305927    12.000000000000
         C            1.219807681076    -1.261096530988     0.311545694073    12.000000000000
         C            1.755626681076     1.067746469012    -0.059131305927    12.000000000000
         C            2.511133681076    -1.608828530988     0.047266694073    12.000000000000
         C            3.412015681076    -0.550341530988    -0.258653305927    12.000000000000
         H           -0.937573318924     0.591715469012    -1.514619305927     1.007825032230
         H           -3.362549318924     0.642976469012    -1.146193305927     1.007825032230
         H           -0.440257318924     1.222191469012     1.404269694073     1.007825032230
         H           -3.281924318924    -0.908422530988     1.131054694073     1.007825032230
         H           -1.713275318924    -1.699993530988    -1.369192305927     1.007825032230
         H           -3.485528318924    -1.833692530988    -1.183863305927     1.007825032230
         H           -0.297492318924     2.713490469012    -0.524728305927     1.007825032230
         H           -2.847523318924     2.400054469012     0.508934694073     1.007825032230
         H            0.434343681076    -1.963125530988     0.569339694073     1.007825032230
         H           -2.441732118924    -3.873243830988    -0.608491605927     1.007825032230
         H            2.829144681076    -2.645086530988     0.074193694073     1.007825032230
         H            5.125212681076    -1.670549530988    -0.162142305927     1.007825032230
         H            5.319846681076    -0.019742530988    -0.568022305927     1.007825032230

  Basis Set: AUG-CC-PVTZ
    Blend: AUG-CC-PVTZ
  Basis Set: (AUG-CC-PVTZ AUX)
    Blend: AUG-CC-PVTZ-JKFIT
	 Reference Energy          =    -886.3598480766793273 [Eh]
	 Singles Energy            =      -0.0000000000000000 [Eh]
	 Same-Spin Energy          =      -0.9023434811622414 [Eh]
	 Opposite-Spin Energy      =      -2.7182074255609123 [Eh]
	 Correlation Energy        =      -3.6205509067231536 [Eh]
	 Total Energy              =    -889.9803989834024378 [Eh]

	 ================> DF-SCS-MP2 Energies <==================
	-----------------------------------------------------------
	 SCS Same-Spin Scale       =       0.3333333333333333 [-]
	 SCS Opposite-Spin Scale   =       1.2000000000000000 [-]
	 SCS Same-Spin Energy      =      -0.3007811603874138 [Eh]
	 SCS Opposite-Spin Energy  =      -3.2618489106730948 [Eh]
	 SCS Correlation Energy    =      -3.5626300710605086 [Eh]
	 SCS Total Energy          =    -889.9224781477398665 [Eh]
	-----------------------------------------------------------

  Dipole Moment: [D]
     X:     1.6974      Y:    -6.0265      Z:    -1.8626     Total:     6.5322

*** Psi4 exiting successfully. Buy a developer a beer!
