                               Psi4 1.3.2 release

  ==> Input File <==

--------------------------------------------------------------------------
#psi4
#
memory 32 gb

molecule  {
0 1
  O       -1.2481010    -0.6526680     1.0325150
  O       -1.2449750     2.4828510    -0.6861630
  O       -3.2165300     1.5210990     0.7448870
  O       -2.3570290    -3.0668370     0.0949400
  O        1.3605300     2.2470340    -0.0765420
  N        0.8434040     0.0452230     0.2559430
  N        3.0572260     0.7205030    -0.2937270
  N        4.7164630    -0.8366550    -0.5722980
  C       -1.2894840     1.0784300    -0.5920770
  C       -2.7151710     0.6552070    -0.2573930
  C       -0.5254080     0.4815200     0.6000940
  C       -2.5292560    -0.7168860     0.3610560
  C       -2.5283440    -1.8503930    -0.6392900
  C        1.2197750    -1.2614080     0.3112740
  C        1.8204787     1.1401456    -0.0818338
  C        2.5111010    -1.6091400     0.0469950
  C        3.4119830    -0.5506530    -0.2589250
  H       -0.9376060     0.5914040    -1.5148910
  H       -3.3625820     0.6426650    -1.1464650
  H       -0.4402900     1.2218800     1.4039980
  H       -3.2819570    -0.9087340     1.1307830
  H       -1.7133080    -1.7003050    -1.3694640
  H       -3.4855610    -1.8340040    -1.1841350
  H       -0.2975250     2.7131790    -0.5250000
  H       -2.8475560     2.3997430     0.5086630
  H        0.4343110    -1.9634370     0.5690680
  H       -2.4338740    -3.7984320    -0.5432330
  H        2.8291120    -2.6453980     0.0739220
  H        5.1251800    -1.6708610    -0.1624140
  H        5.3198140    -0.0200540    -0.5682940
units angstrom
no_reorient  #important for SAPT in psi4, default
symmetry c1  #important for SAPT in psi4, default
}

set PROPERTIES_ORIGIN ["COM"]
properties('MP2/aug-cc-pvtz', properties = ['dipole'])
--------------------------------------------------------------------------

    Molecular point group: c1
  Charge       = 0
  Multiplicity = 1
  Basis Set: AUG-CC-PVTZ
    Blend: AUG-CC-PVTZ
  Basis Set: (AUG-CC-PVTZ AUX)
    Blend: AUG-CC-PVTZ-JKFIT

    Orbital Energies [Eh]
    ---------------------

    Doubly Occupied:

       1A    -20.580138     2A    -20.577385     3A    -20.558865
       4A    -20.556477     5A    -20.534143     6A    -15.622971
       7A    -15.601177     8A    -15.549761     9A    -11.392170
      10A    -11.362424    11A    -11.335711    12A    -11.323725
      13A    -11.298902    14A    -11.294264    15A    -11.294166
      16A    -11.290990    17A    -11.240120    18A     -1.430620
      19A     -1.413255    20A     -1.379193    21A     -1.370871
      22A     -1.346561    23A     -1.310600    24A     -1.261069
      25A     -1.190736    26A     -1.076257    27A     -1.064953
      28A     -1.015010    29A     -0.933185    30A     -0.890790
      31A     -0.881469    32A     -0.830112    33A     -0.809285
      34A     -0.763490    35A     -0.746711    36A     -0.733274
      37A     -0.720907    38A     -0.700620    39A     -0.696516
      40A     -0.685646    41A     -0.670159    42A     -0.664537
      43A     -0.649392    44A     -0.634960    45A     -0.619449
      46A     -0.615584    47A     -0.605654    48A     -0.597305
      49A     -0.573920    50A     -0.567472    51A     -0.552093
      52A     -0.544569    53A     -0.542337    54A     -0.531687
      55A     -0.501384    56A     -0.476811    57A     -0.474234
      58A     -0.470525    59A     -0.458506    60A     -0.451752
      61A     -0.437987    62A     -0.423988    63A     -0.399719
      64A     -0.343131

  @DF-RHF Final Energy:  -886.36768877220163

   => Energetics <=

    Nuclear Repulsion Energy =           1322.5080710475353953
    One-Electron Energy =               -3842.8081727320713981
    Two-Electron Energy =                1633.9324129123342573
    Total Energy =                       -886.3676887722017455
  Basis Set: (AUG-CC-PVTZ AUX)
    Blend: AUG-CC-PVTZ-RI
    Molecular point group: c1

    Geometry (in Angstrom), charge = 0, multiplicity = 1:

       Center              X                  Y                   Z               Mass
    ------------   -----------------  -----------------  -----------------  -----------------
         O           -1.251304089381    -0.656257373540     1.033622311607    15.994914619570
         O           -1.248178089381     2.479261626460    -0.685055688393    15.994914619570
         O           -3.219733089381     1.517509626460     0.745994311607    15.994914619570
         O           -2.360232089381    -3.070426373540     0.096047311607    15.994914619570
         O            1.357326910619     2.243444626460    -0.075434688393    15.994914619570
         N            0.840200910619     0.041633626460     0.257050311607    14.003074004430
         N            3.054022910619     0.716913626460    -0.292619688393    14.003074004430
         N            4.713259910619    -0.840244373540    -0.571190688393    14.003074004430
         C           -1.292687089381     1.074840626460    -0.590969688393    12.000000000000
         C           -2.718374089381     0.651617626460    -0.256285688393    12.000000000000
         C           -0.528611089381     0.477930626460     0.601201311607    12.000000000000
         C           -2.532459089381    -0.720475373540     0.362163311607    12.000000000000
         C           -2.531547089381    -1.853982373540    -0.638182688393    12.000000000000
         C            1.216571910619    -1.264997373540     0.312381311607    12.000000000000
         C            1.817275610619     1.136556226460    -0.080726488393    12.000000000000
         C            2.507897910619    -1.612729373540     0.048102311607    12.000000000000
         C            3.408779910619    -0.554242373540    -0.257817688393    12.000000000000
         H           -0.940809089381     0.587814626460    -1.513783688393     1.007825032230
         H           -3.365785089381     0.639075626460    -1.145357688393     1.007825032230
         H           -0.443493089381     1.218290626460     1.405105311607     1.007825032230
         H           -3.285160089381    -0.912323373540     1.131890311607     1.007825032230
         H           -1.716511089381    -1.703894373540    -1.368356688393     1.007825032230
         H           -3.488764089381    -1.837593373540    -1.183027688393     1.007825032230
         H           -0.300728089381     2.709589626460    -0.523892688393     1.007825032230
         H           -2.850759089381     2.396153626460     0.509770311607     1.007825032230
         H            0.431107910619    -1.967026373540     0.570175311607     1.007825032230
         H           -2.437077089381    -3.802021373540    -0.542125688393     1.007825032230
         H            2.825908910619    -2.648987373540     0.075029311607     1.007825032230
         H            5.121976910619    -1.674450373540    -0.161306688393     1.007825032230
         H            5.316610910619    -0.023643373540    -0.567186688393     1.007825032230

  Basis Set: AUG-CC-PVTZ
    Blend: AUG-CC-PVTZ
  Basis Set: (AUG-CC-PVTZ AUX)
    Blend: AUG-CC-PVTZ-JKFIT
	 Reference Energy          =    -886.3676887722016318 [Eh]
	 Singles Energy            =      -0.0000000000000000 [Eh]
	 Same-Spin Energy          =      -0.9009771695762190 [Eh]
	 Opposite-Spin Energy      =      -2.7138803502172273 [Eh]
	 Correlation Energy        =      -3.6148575197934463 [Eh]
	 Total Energy              =    -889.9825462919950496 [Eh]

	 ================> DF-SCS-MP2 Energies <==================
	-----------------------------------------------------------
	 SCS Same-Spin Scale       =       0.3333333333333333 [-]
	 SCS Opposite-Spin Scale   =       1.2000000000000000 [-]
	 SCS Same-Spin Energy      =      -0.3003257231920730 [Eh]
	 SCS Opposite-Spin Energy  =      -3.2566564202606725 [Eh]
	 SCS Correlation Energy    =      -3.5569821434527453 [Eh]
	 SCS Total Energy          =    -889.9246709156543602 [Eh]
	-----------------------------------------------------------

  Dipole Moment: [D]
     X:     1.9343      Y:    -5.3826      Z:    -1.9232     Total:     6.0343

*** Psi4 exiting successfully. Buy a developer a beer!
