                               Psi4 1.3.2 release

  ==> Input File <==

--------------------------------------------------------------------------
#psi4
#
memory 32 gb

molecule  {
0 1
  O       -1.2481010    -0.6526680     1.0325150
  O       -1.2449750     2.4828510    -0.6861630
  O       -3.2165300     1.5210990     0.7448870
  O       -2.3570290    -3.0668370     0.0949400
  O        1.3605300     2.2470340    -0.0765420
  N        0.8434040     0.0452230     0.2559430
  N        3.0572260     0.7205030    -0.2937270
  N        4.7164630    -0.8366550    -0.5722980
  C       -1.2894840     1.0784300    -0.5920770
  C       -2.7151710     0.6552070    -0.2573930
  C       -0.5529479     0.5139372     0.6327691
  C       -2.5292560    -0.7168860     0.3610560
  C       -2.5283440    -1.8503930    -0.6392900
  C        1.2197750    -1.2614080     0.3112740
  C        1.7555940     1.0674350    -0.0594030
  C        2.5111010    -1.6091400     0.0469950
  C        3.4119830    -0.5506530    -0.2589250
  H       -0.9621258     0.6131844    -1.5349350
  H       -3.3625820     0.6426650    -1.1464650
  H       -0.4402900     1.2218800     1.4039980
  H       -3.2819570    -0.9087340     1.1307830
  H       -1.7133080    -1.7003050    -1.3694640
  H       -3.4855610    -1.8340040    -1.1841350
  H       -0.2975250     2.7131790    -0.5250000
  H       -2.8475560     2.3997430     0.5086630
  H        0.4343110    -1.9634370     0.5690680
  H       -2.4338740    -3.7984320    -0.5432330
  H        2.8291120    -2.6453980     0.0739220
  H        5.1251800    -1.6708610    -0.1624140
  H        5.3198140    -0.0200540    -0.5682940
units angstrom
no_reorient  #important for SAPT in psi4, default
symmetry c1  #important for SAPT in psi4, default
}

set PROPERTIES_ORIGIN ["COM"]
properties('MP2/aug-cc-pvtz', properties = ['dipole'])
--------------------------------------------------------------------------

    Molecular point group: c1
  Charge       = 0
  Multiplicity = 1
  Basis Set: AUG-CC-PVTZ
    Blend: AUG-CC-PVTZ
  Basis Set: (AUG-CC-PVTZ AUX)
    Blend: AUG-CC-PVTZ-JKFIT

    Orbital Energies [Eh]
    ---------------------

    Doubly Occupied:

       1A    -20.583342     2A    -20.582537     3A    -20.559195
       4A    -20.556691     5A    -20.520207     6A    -15.633666
       7A    -15.598384     8A    -15.551355     9A    -11.385698
      10A    -11.356026    11A    -11.344339    12A    -11.326551
      13A    -11.301657    14A    -11.297988    15A    -11.297586
      16A    -11.293618    17A    -11.246548    18A     -1.428624
      19A     -1.394562    20A     -1.380764    21A     -1.373080
      22A     -1.347202    23A     -1.303400    24A     -1.268313
      25A     -1.179398    26A     -1.078817    27A     -1.068466
      28A     -1.022627    29A     -0.934864    30A     -0.906228
      31A     -0.875102    32A     -0.836510    33A     -0.811318
      34A     -0.763762    35A     -0.749274    36A     -0.738091
      37A     -0.719286    38A     -0.702771    39A     -0.698973
      40A     -0.684861    41A     -0.671625    42A     -0.658142
      43A     -0.650710    44A     -0.638004    45A     -0.620741
      46A     -0.612457    47A     -0.607471    48A     -0.591023
      49A     -0.576147    50A     -0.572992    51A     -0.552878
      52A     -0.545036    53A     -0.536903    54A     -0.533840
      55A     -0.497134    56A     -0.477870    57A     -0.474017
      58A     -0.463074    59A     -0.459310    60A     -0.454579
      61A     -0.442928    62A     -0.430678    63A     -0.394791
      64A     -0.348603

  @DF-RHF Final Energy:  -886.37045007082270

   => Energetics <=

    Nuclear Repulsion Energy =           1322.9911820881684434
    One-Electron Energy =               -3843.6979884046754705
    Two-Electron Energy =                1634.3363562456843283
    Total Energy =                       -886.3704500708226988
  Basis Set: (AUG-CC-PVTZ AUX)
    Blend: AUG-CC-PVTZ-RI
    Molecular point group: c1

    Geometry (in Angstrom), charge = 0, multiplicity = 1:

       Center              X                  Y                   Z               Mass
    ------------   -----------------  -----------------  -----------------  -----------------
         O           -1.246639859007    -0.654358576908     1.030985091778    15.994914619570
         O           -1.243513859007     2.481160423092    -0.687692908222    15.994914619570
         O           -3.215068859007     1.519408423092     0.743357091778    15.994914619570
         O           -2.355567859007    -3.068527576908     0.093410091778    15.994914619570
         O            1.361991140993     2.245343423092    -0.078071908222    15.994914619570
         N            0.844865140993     0.043532423092     0.254413091778    14.003074004430
         N            3.058687140993     0.718812423092    -0.295256908222    14.003074004430
         N            4.717924140993    -0.838345576908    -0.573827908222    14.003074004430
         C           -1.288022859007     1.076739423092    -0.593606908222    12.000000000000
         C           -2.713709859007     0.653516423092    -0.258922908222    12.000000000000
         C           -0.551486759007     0.512246623092     0.631239191778    12.000000000000
         C           -2.527794859007    -0.718576576908     0.359526091778    12.000000000000
         C           -2.526882859007    -1.852083576908    -0.640819908222    12.000000000000
         C            1.221236140993    -1.263098576908     0.309744091778    12.000000000000
         C            1.757055140993     1.065744423092    -0.060932908222    12.000000000000
         C            2.512562140993    -1.610830576908     0.045465091778    12.000000000000
         C            3.413444140993    -0.552343576908    -0.260454908222    12.000000000000
         H           -0.960664659007     0.611493823092    -1.536464908222     1.007825032230
         H           -3.361120859007     0.640974423092    -1.147994908222     1.007825032230
         H           -0.438828859007     1.220189423092     1.402468091778     1.007825032230
         H           -3.280495859007    -0.910424576908     1.129253091778     1.007825032230
         H           -1.711846859007    -1.701995576908    -1.370993908222     1.007825032230
         H           -3.484099859007    -1.835694576908    -1.185664908222     1.007825032230
         H           -0.296063859007     2.711488423092    -0.526529908222     1.007825032230
         H           -2.846094859007     2.398052423092     0.507133091778     1.007825032230
         H            0.435772140993    -1.965127576908     0.567538091778     1.007825032230
         H           -2.432412859007    -3.800122576908    -0.544762908222     1.007825032230
         H            2.830573140993    -2.647088576908     0.072392091778     1.007825032230
         H            5.126641140993    -1.672551576908    -0.163943908222     1.007825032230
         H            5.321275140993    -0.021744576908    -0.569823908222     1.007825032230

  Basis Set: AUG-CC-PVTZ
    Blend: AUG-CC-PVTZ
  Basis Set: (AUG-CC-PVTZ AUX)
    Blend: AUG-CC-PVTZ-JKFIT
	 Reference Energy          =    -886.3704500708226988 [Eh]
	 Singles Energy            =      -0.0000000000000000 [Eh]
	 Same-Spin Energy          =      -0.9010415059160153 [Eh]
	 Opposite-Spin Energy      =      -2.7149202493464979 [Eh]
	 Correlation Energy        =      -3.6159617552625134 [Eh]
	 Total Energy              =    -889.9864118260852592 [Eh]

	 ================> DF-SCS-MP2 Energies <==================
	-----------------------------------------------------------
	 SCS Same-Spin Scale       =       0.3333333333333333 [-]
	 SCS Opposite-Spin Scale   =       1.2000000000000000 [-]
	 SCS Same-Spin Energy      =      -0.3003471686386717 [Eh]
	 SCS Opposite-Spin Energy  =      -3.2579042992157974 [Eh]
	 SCS Correlation Energy    =      -3.5582514678544692 [Eh]
	 SCS Total Energy          =    -889.9287015386771600 [Eh]
	-----------------------------------------------------------

  Dipole Moment: [D]
     X:     1.5233      Y:    -5.8940      Z:    -1.7668     Total:     6.3389

*** Psi4 exiting successfully. Buy a developer a beer!
