                               Psi4 1.3.2 release

  ==> Input File <==

--------------------------------------------------------------------------
#psi4
#
memory 32 gb

molecule  {
0 1
  O       -1.2481010    -0.6526680     1.0325150
  O       -1.2449750     2.4828510    -0.6861630
  O       -3.2165300     1.5210990     0.7448870
  O       -2.3570290    -3.0668370     0.0949400
  O        1.3605300     2.2470340    -0.0765420
  N        0.8434040     0.0452230     0.2559430
  N        3.0572260     0.7205030    -0.2937270
  N        4.7164630    -0.8366550    -0.5722980
  C       -1.2894840     1.0784300    -0.5920770
  C       -2.7151710     0.6552070    -0.2573930
  C       -0.5254080     0.4815200     0.6000940
  C       -2.7062265    -0.7257567     0.2683050
  C       -2.5283440    -1.8503930    -0.6392900
  C        1.2197750    -1.2614080     0.3112740
  C        1.7555940     1.0674350    -0.0594030
  C        2.5111010    -1.6091400     0.0469950
  C        3.4119830    -0.5506530    -0.2589250
  H       -0.9376060     0.5914040    -1.5148910
  H       -3.3625820     0.6426650    -1.1464650
  H       -0.4402900     1.2218800     1.4039980
  H       -3.2819570    -0.9087340     1.1307830
  H       -1.7133080    -1.7003050    -1.3694640
  H       -3.4855610    -1.8340040    -1.1841350
  H       -0.2975250     2.7131790    -0.5250000
  H       -2.8475560     2.3997430     0.5086630
  H        0.4343110    -1.9634370     0.5690680
  H       -2.4338740    -3.7984320    -0.5432330
  H        2.8291120    -2.6453980     0.0739220
  H        5.1251800    -1.6708610    -0.1624140
  H        5.3198140    -0.0200540    -0.5682940
units angstrom
no_reorient  #important for SAPT in psi4, default
symmetry c1  #important for SAPT in psi4, default
}

set PROPERTIES_ORIGIN ["COM"]
properties('MP2/aug-cc-pvtz', properties = ['dipole'])
--------------------------------------------------------------------------

    Molecular point group: c1
  Charge       = 0
  Multiplicity = 1
  Basis Set: AUG-CC-PVTZ
    Blend: AUG-CC-PVTZ
  Basis Set: (AUG-CC-PVTZ AUX)
    Blend: AUG-CC-PVTZ-JKFIT

    Orbital Energies [Eh]
    ---------------------

    Doubly Occupied:

       1A    -20.590126     2A    -20.561932     3A    -20.556913
       4A    -20.555167     5A    -20.517766     6A    -15.630439
       7A    -15.596573     8A    -15.549246     9A    -11.383430
      10A    -11.353814    11A    -11.329519    12A    -11.323136
      13A    -11.311457    14A    -11.310352    15A    -11.300455
      16A    -11.297580    17A    -11.243904    18A     -1.409145
      19A     -1.389299    20A     -1.384062    21A     -1.353997
      22A     -1.346287    23A     -1.299849    24A     -1.264226
      25A     -1.177454    26A     -1.091019    27A     -1.074706
      28A     -1.018298    29A     -0.939621    30A     -0.903519
      31A     -0.880193    32A     -0.832318    33A     -0.808485
      34A     -0.763582    35A     -0.745041    36A     -0.734964
      37A     -0.717362    38A     -0.710941    39A     -0.697879
      40A     -0.680297    41A     -0.674509    42A     -0.654113
      43A     -0.644301    44A     -0.631082    45A     -0.617933
      46A     -0.614506    47A     -0.599258    48A     -0.591216
      49A     -0.576762    50A     -0.569374    51A     -0.549701
      52A     -0.545215    53A     -0.534205    54A     -0.520000
      55A     -0.498925    56A     -0.485477    57A     -0.480582
      58A     -0.460845    59A     -0.456989    60A     -0.445198
      61A     -0.433929    62A     -0.427972    63A     -0.391180
      64A     -0.345426

  @DF-RHF Final Energy:  -886.34231524705604

   => Energetics <=

    Nuclear Repulsion Energy =           1320.5745111469482254
    One-Electron Energy =               -3839.0675547754549370
    Two-Electron Energy =                1632.1507283814507900
    Total Energy =                       -886.3423152470559216
  Basis Set: (AUG-CC-PVTZ AUX)
    Blend: AUG-CC-PVTZ-RI
    Molecular point group: c1

    Geometry (in Angstrom), charge = 0, multiplicity = 1:

       Center              X                  Y                   Z               Mass
    ------------   -----------------  -----------------  -----------------  -----------------
         O           -1.239364824575    -0.652230084717     1.037093692371    15.994914619570
         O           -1.236238824575     2.483288915283    -0.681584307629    15.994914619570
         O           -3.207793824575     1.521536915283     0.749465692371    15.994914619570
         O           -2.348292824575    -3.066399084717     0.099518692371    15.994914619570
         O            1.369266175425     2.247471915283    -0.071963307629    15.994914619570
         N            0.852140175425     0.045660915283     0.260521692371    14.003074004430
         N            3.065962175425     0.720940915283    -0.289148307629    14.003074004430
         N            4.725199175425    -0.836217084717    -0.567719307629    14.003074004430
         C           -1.280747824575     1.078867915283    -0.587498307629    12.000000000000
         C           -2.706434824575     0.655644915283    -0.252814307629    12.000000000000
         C           -0.516671824575     0.481957915283     0.604672692371    12.000000000000
         C           -2.697490324575    -0.725318784717     0.272883692371    12.000000000000
         C           -2.519607824575    -1.849955084717    -0.634711307629    12.000000000000
         C            1.228511175425    -1.260970084717     0.315852692371    12.000000000000
         C            1.764330175425     1.067872915283    -0.054824307629    12.000000000000
         C            2.519837175425    -1.608702084717     0.051573692371    12.000000000000
         C            3.420719175425    -0.550215084717    -0.254346307629    12.000000000000
         H           -0.928869824575     0.591841915283    -1.510312307629     1.007825032230
         H           -3.353845824575     0.643102915283    -1.141886307629     1.007825032230
         H           -0.431553824575     1.222317915283     1.408576692371     1.007825032230
         H           -3.273220824575    -0.908296084717     1.135361692371     1.007825032230
         H           -1.704571824575    -1.699867084717    -1.364885307629     1.007825032230
         H           -3.476824824575    -1.833566084717    -1.179556307629     1.007825032230
         H           -0.288788824575     2.713616915283    -0.520421307629     1.007825032230
         H           -2.838819824575     2.400180915283     0.513241692371     1.007825032230
         H            0.443047175425    -1.962999084717     0.573646692371     1.007825032230
         H           -2.425137824575    -3.797994084717    -0.538654307629     1.007825032230
         H            2.837848175425    -2.644960084717     0.078500692371     1.007825032230
         H            5.133916175425    -1.670423084717    -0.157835307629     1.007825032230
         H            5.328550175425    -0.019616084717    -0.563715307629     1.007825032230

  Basis Set: AUG-CC-PVTZ
    Blend: AUG-CC-PVTZ
  Basis Set: (AUG-CC-PVTZ AUX)
    Blend: AUG-CC-PVTZ-JKFIT
	 Reference Energy          =    -886.3423152470560353 [Eh]
	 Singles Energy            =      -0.0000000000000000 [Eh]
	 Same-Spin Energy          =      -0.9032296313381173 [Eh]
	 Opposite-Spin Energy      =      -2.7191515462958664 [Eh]
	 Correlation Energy        =      -3.6223811776339838 [Eh]
	 Total Energy              =    -889.9646964246900325 [Eh]

	 ================> DF-SCS-MP2 Energies <==================
	-----------------------------------------------------------
	 SCS Same-Spin Scale       =       0.3333333333333333 [-]
	 SCS Opposite-Spin Scale   =       1.2000000000000000 [-]
	 SCS Same-Spin Energy      =      -0.3010765437793724 [Eh]
	 SCS Opposite-Spin Energy  =      -3.2629818555550396 [Eh]
	 SCS Correlation Energy    =      -3.5640583993344119 [Eh]
	 SCS Total Energy          =    -889.9063736463904206 [Eh]
	-----------------------------------------------------------

  Dipole Moment: [D]
     X:     1.0292      Y:    -6.1494      Z:    -2.0500     Total:     6.5633

*** Psi4 exiting successfully. Buy a developer a beer!
