                               Psi4 1.3.2 release

  ==> Input File <==

--------------------------------------------------------------------------
#psi4
#
memory 32 gb

molecule  {
0 1
  O       -1.2481010    -0.6526680     1.0325150
  O       -1.2449750     2.4828510    -0.6861630
  O       -3.2165300     1.5210990     0.7448870
  O       -2.3570290    -3.0668370     0.0949400
  O        1.3605300     2.2470340    -0.0765420
  N        0.8434040     0.0452230     0.2559430
  N        3.0572260     0.7205030    -0.2937270
  N        4.7164630    -0.8366550    -0.5722980
  C       -1.2894840     1.0784300    -0.5920770
  C       -2.7179275     0.6323328    -0.3050478
  C       -0.5254080     0.4815200     0.6000940
  C       -2.5292560    -0.7168860     0.3610560
  C       -2.5354173    -1.8151092    -0.6778852
  C        1.2197750    -1.2614080     0.3112740
  C        1.7555940     1.0674350    -0.0594030
  C        2.5111010    -1.6091400     0.0469950
  C        3.4119830    -0.5506530    -0.2589250
  H       -0.9376060     0.5914040    -1.5148910
  H       -3.3625820     0.6426650    -1.1464650
  H       -0.4402900     1.2218800     1.4039980
  H       -3.2819570    -0.9087340     1.1307830
  H       -1.7133080    -1.7003050    -1.3694640
  H       -3.4855610    -1.8340040    -1.1841350
  H       -0.2975250     2.7131790    -0.5250000
  H       -2.8475560     2.3997430     0.5086630
  H        0.4343110    -1.9634370     0.5690680
  H       -2.4338740    -3.7984320    -0.5432330
  H        2.8291120    -2.6453980     0.0739220
  H        5.1251800    -1.6708610    -0.1624140
  H        5.3198140    -0.0200540    -0.5682940
units angstrom
no_reorient  #important for SAPT in psi4, default
symmetry c1  #important for SAPT in psi4, default
}

set PROPERTIES_ORIGIN ["COM"]
properties('MP2/aug-cc-pvtz', properties = ['dipole'])
--------------------------------------------------------------------------

    Molecular point group: c1
  Charge       = 0
  Multiplicity = 1
  Basis Set: AUG-CC-PVTZ
    Blend: AUG-CC-PVTZ
  Basis Set: (AUG-CC-PVTZ AUX)
    Blend: AUG-CC-PVTZ-JKFIT

    Orbital Energies [Eh]
    ---------------------

    Doubly Occupied:

       1A    -20.584046     2A    -20.577422     3A    -20.557739
       4A    -20.553361     5A    -20.522500     6A    -15.637677
       7A    -15.600229     8A    -15.553808     9A    -11.388814
      10A    -11.358319    11A    -11.343079    12A    -11.328989
      13A    -11.300429    14A    -11.299739    15A    -11.298889
      16A    -11.292454    17A    -11.249046    18A     -1.429067
      19A     -1.396099    20A     -1.373903    21A     -1.356512
      22A     -1.334712    23A     -1.306558    24A     -1.274341
      25A     -1.182720    26A     -1.082538    27A     -1.073735
      28A     -1.022155    29A     -0.938137    30A     -0.910560
      31A     -0.878140    32A     -0.832532    33A     -0.818108
      34A     -0.767738    35A     -0.753495    36A     -0.734969
      37A     -0.720207    38A     -0.696600    39A     -0.691054
      40A     -0.685464    41A     -0.669970    42A     -0.656536
      43A     -0.651616    44A     -0.639437    45A     -0.621308
      46A     -0.614058    47A     -0.604731    48A     -0.594304
      49A     -0.572998    50A     -0.568905    51A     -0.549153
      52A     -0.540824    53A     -0.534060    54A     -0.532353
      55A     -0.498670    56A     -0.482460    57A     -0.476579
      58A     -0.464843    59A     -0.461422    60A     -0.453188
      61A     -0.444343    62A     -0.433901    63A     -0.395942
      64A     -0.350735

  @DF-RHF Final Energy:  -886.36615867626710

   => Energetics <=

    Nuclear Repulsion Energy =           1322.8304435528509657
    One-Electron Energy =               -3843.3567644393815499
    Two-Electron Energy =                1634.1601622102637066
    Total Energy =                       -886.3661586762671050
  Basis Set: (AUG-CC-PVTZ AUX)
    Blend: AUG-CC-PVTZ-RI
    Molecular point group: c1

    Geometry (in Angstrom), charge = 0, multiplicity = 1:

       Center              X                  Y                   Z               Mass
    ------------   -----------------  -----------------  -----------------  -----------------
         O           -1.247615782492    -0.653280594017     1.036772768279    15.994914619570
         O           -1.244489782492     2.482238405983    -0.681905231721    15.994914619570
         O           -3.216044782492     1.520486405983     0.749144768279    15.994914619570
         O           -2.356543782492    -3.067449594017     0.099197768279    15.994914619570
         O            1.361015217508     2.246421405983    -0.072284231721    15.994914619570
         N            0.843889217508     0.044610405983     0.260200768279    14.003074004430
         N            3.057711217508     0.719890405983    -0.289469231721    14.003074004430
         N            4.716948217508    -0.837267594017    -0.568040231721    14.003074004430
         C           -1.288998782492     1.077817405983    -0.587819231721    12.000000000000
         C           -2.717442282492     0.631720205983    -0.300790031721    12.000000000000
         C           -0.524922782492     0.480907405983     0.604351768279    12.000000000000
         C           -2.528770782492    -0.717498594017     0.365313768279    12.000000000000
         C           -2.534932082492    -1.815721794017    -0.673627431721    12.000000000000
         C            1.220260217508    -1.262020594017     0.315531768279    12.000000000000
         C            1.756079217508     1.066822405983    -0.055145231721    12.000000000000
         C            2.511586217508    -1.609752594017     0.051252768279    12.000000000000
         C            3.412468217508    -0.551265594017    -0.254667231721    12.000000000000
         H           -0.937120782492     0.590791405983    -1.510633231721     1.007825032230
         H           -3.362096782492     0.642052405983    -1.142207231721     1.007825032230
         H           -0.439804782492     1.221267405983     1.408255768279     1.007825032230
         H           -3.281471782492    -0.909346594017     1.135040768279     1.007825032230
         H           -1.712822782492    -1.700917594017    -1.365206231721     1.007825032230
         H           -3.485075782492    -1.834616594017    -1.179877231721     1.007825032230
         H           -0.297039782492     2.712566405983    -0.520742231721     1.007825032230
         H           -2.847070782492     2.399130405983     0.512920768279     1.007825032230
         H            0.434796217508    -1.964049594017     0.573325768279     1.007825032230
         H           -2.433388782492    -3.799044594017    -0.538975231721     1.007825032230
         H            2.829597217508    -2.646010594017     0.078179768279     1.007825032230
         H            5.125665217508    -1.671473594017    -0.158156231721     1.007825032230
         H            5.320299217508    -0.020666594017    -0.564036231721     1.007825032230

  Basis Set: AUG-CC-PVTZ
    Blend: AUG-CC-PVTZ
  Basis Set: (AUG-CC-PVTZ AUX)
    Blend: AUG-CC-PVTZ-JKFIT
	 Reference Energy          =    -886.3661586762671050 [Eh]
	 Singles Energy            =      -0.0000000000000000 [Eh]
	 Same-Spin Energy          =      -0.9014668414269973 [Eh]
	 Opposite-Spin Energy      =      -2.7168512378764422 [Eh]
	 Correlation Energy        =      -3.6183180793034397 [Eh]
	 Total Energy              =    -889.9844767555705403 [Eh]

	 ================> DF-SCS-MP2 Energies <==================
	-----------------------------------------------------------
	 SCS Same-Spin Scale       =       0.3333333333333333 [-]
	 SCS Opposite-Spin Scale   =       1.2000000000000000 [-]
	 SCS Same-Spin Energy      =      -0.3004889471423324 [Eh]
	 SCS Opposite-Spin Energy  =      -3.2602214854517304 [Eh]
	 SCS Correlation Energy    =      -3.5607104325940631 [Eh]
	 SCS Total Energy          =    -889.9268691088611831 [Eh]
	-----------------------------------------------------------

  Dipole Moment: [D]
     X:     1.7531      Y:    -5.8854      Z:    -2.0012     Total:     6.4588

*** Psi4 exiting successfully. Buy a developer a beer!
