                               Psi4 1.3.2 release

  ==> Input File <==

--------------------------------------------------------------------------
#psi4
#
memory 32 gb

molecule  {
0 1
  O       -1.2481010    -0.6526680     1.0325150
  O       -1.2449750     2.4828510    -0.6861630
  O       -3.2165300     1.5210990     0.7448870
  O       -2.3570290    -3.0668370     0.0949400
  O        1.3605300     2.2470340    -0.0765420
  N        0.8434040     0.0452230     0.2559430
  N        3.0572260     0.7205030    -0.2937270
  N        4.7164630    -0.8366550    -0.5722980
  C       -1.2894840     1.0784300    -0.5920770
  C       -2.7151710     0.6552070    -0.2573930
  C       -0.5254080     0.4815200     0.6000940
  C       -2.5604630    -0.7370794     0.3233710
  C       -2.5283440    -1.8503930    -0.6392900
  C        1.2197750    -1.2614080     0.3112740
  C        1.7555940     1.0674350    -0.0594030
  C        2.5111010    -1.6091400     0.0469950
  C        3.4119830    -0.5506530    -0.2589250
  H       -0.9376060     0.5914040    -1.5148910
  H       -3.3666865     0.6047427    -1.1421123
  H       -0.4402900     1.2218800     1.4039980
  H       -3.2819570    -0.9087340     1.1307830
  H       -1.7133080    -1.7003050    -1.3694640
  H       -3.4855610    -1.8340040    -1.1841350
  H       -0.2975250     2.7131790    -0.5250000
  H       -2.8475560     2.3997430     0.5086630
  H        0.4343110    -1.9634370     0.5690680
  H       -2.4338740    -3.7984320    -0.5432330
  H        2.8291120    -2.6453980     0.0739220
  H        5.1251800    -1.6708610    -0.1624140
  H        5.3198140    -0.0200540    -0.5682940
units angstrom
no_reorient  #important for SAPT in psi4, default
symmetry c1  #important for SAPT in psi4, default
}

set PROPERTIES_ORIGIN ["COM"]
properties('MP2/aug-cc-pvtz', properties = ['dipole'])
--------------------------------------------------------------------------

    Molecular point group: c1
  Charge       = 0
  Multiplicity = 1
  Basis Set: AUG-CC-PVTZ
    Blend: AUG-CC-PVTZ
  Basis Set: (AUG-CC-PVTZ AUX)
    Blend: AUG-CC-PVTZ-JKFIT

    Orbital Energies [Eh]
    ---------------------

    Doubly Occupied:

       1A    -20.584606     2A    -20.575848     3A    -20.559746
       4A    -20.556940     5A    -20.520998     6A    -15.635346
       7A    -15.599101     8A    -15.552390     9A    -11.387115
      10A    -11.356926    11A    -11.338755    12A    -11.327280
      13A    -11.302972    14A    -11.298665    15A    -11.296920
      16A    -11.295200    17A    -11.247499    18A     -1.421337
      19A     -1.393492    20A     -1.380943    21A     -1.371144
      22A     -1.346641    23A     -1.304624    24A     -1.271685
      25A     -1.181129    26A     -1.080959    27A     -1.074431
      28A     -1.021428    29A     -0.937811    30A     -0.907780
      31A     -0.877528    32A     -0.831203    33A     -0.809497
      34A     -0.766120    35A     -0.750130    36A     -0.736119
      37A     -0.719221    38A     -0.705322    39A     -0.698089
      40A     -0.684438    41A     -0.673963    42A     -0.654795
      43A     -0.649870    44A     -0.636031    45A     -0.619727
      46A     -0.613637    47A     -0.605205    48A     -0.593561
      49A     -0.576154    50A     -0.564732    51A     -0.553582
      52A     -0.548104    53A     -0.534852    54A     -0.531865
      55A     -0.497785    56A     -0.479391    57A     -0.475342
      58A     -0.465009    59A     -0.459310    60A     -0.451422
      61A     -0.441278    62A     -0.432328    63A     -0.394373
      64A     -0.348984

  @DF-RHF Final Energy:  -886.36919278415769

   => Energetics <=

    Nuclear Repulsion Energy =           1323.1247693247996722
    One-Electron Energy =               -3843.9705600895426869
    Two-Electron Energy =                1634.4765979805852112
    Total Energy =                       -886.3691927841578035
  Basis Set: (AUG-CC-PVTZ AUX)
    Blend: AUG-CC-PVTZ-RI
    Molecular point group: c1

    Geometry (in Angstrom), charge = 0, multiplicity = 1:

       Center              X                  Y                   Z               Mass
    ------------   -----------------  -----------------  -----------------  -----------------
         O           -1.246543472560    -0.651513911072     1.034357294257    15.994914619570
         O           -1.243417472560     2.484005088928    -0.684320705743    15.994914619570
         O           -3.214972472560     1.522253088928     0.746729294257    15.994914619570
         O           -2.355471472560    -3.065682911072     0.096782294257    15.994914619570
         O            1.362087527440     2.248188088928    -0.074699705743    15.994914619570
         N            0.844961527440     0.046377088928     0.257785294257    14.003074004430
         N            3.058783527440     0.721657088928    -0.291884705743    14.003074004430
         N            4.718020527440    -0.835500911072    -0.570455705743    14.003074004430
         C           -1.287926472560     1.079584088928    -0.590234705743    12.000000000000
         C           -2.713613472560     0.656361088928    -0.255550705743    12.000000000000
         C           -0.523850472560     0.482674088928     0.601936294257    12.000000000000
         C           -2.558905472560    -0.735925311072     0.325213294257    12.000000000000
         C           -2.526786472560    -1.849238911072    -0.637447705743    12.000000000000
         C            1.221332527440    -1.260253911072     0.313116294257    12.000000000000
         C            1.757151527440     1.068589088928    -0.057560705743    12.000000000000
         C            2.512658527440    -1.607985911072     0.048837294257    12.000000000000
         C            3.413540527440    -0.549498911072    -0.257082705743    12.000000000000
         H           -0.936048472560     0.592558088928    -1.513048705743     1.007825032230
         H           -3.365128972560     0.605896788928    -1.140270005743     1.007825032230
         H           -0.438732472560     1.223034088928     1.405840294257     1.007825032230
         H           -3.280399472560    -0.907579911072     1.132625294257     1.007825032230
         H           -1.711750472560    -1.699150911072    -1.367621705743     1.007825032230
         H           -3.484003472560    -1.832849911072    -1.182292705743     1.007825032230
         H           -0.295967472560     2.714333088928    -0.523157705743     1.007825032230
         H           -2.845998472560     2.400897088928     0.510505294257     1.007825032230
         H            0.435868527440    -1.962282911072     0.570910294257     1.007825032230
         H           -2.432316472560    -3.797277911072    -0.541390705743     1.007825032230
         H            2.830669527440    -2.644243911072     0.075764294257     1.007825032230
         H            5.126737527440    -1.669706911072    -0.160571705743     1.007825032230
         H            5.321371527440    -0.018899911072    -0.566451705743     1.007825032230

  Basis Set: AUG-CC-PVTZ
    Blend: AUG-CC-PVTZ
  Basis Set: (AUG-CC-PVTZ AUX)
    Blend: AUG-CC-PVTZ-JKFIT
	 Reference Energy          =    -886.3691927841576899 [Eh]
	 Singles Energy            =      -0.0000000000000000 [Eh]
	 Same-Spin Energy          =      -0.9017482752876330 [Eh]
	 Opposite-Spin Energy      =      -2.7159358361593688 [Eh]
	 Correlation Energy        =      -3.6176841114470020 [Eh]
	 Total Energy              =    -889.9868768956047234 [Eh]

	 ================> DF-SCS-MP2 Energies <==================
	-----------------------------------------------------------
	 SCS Same-Spin Scale       =       0.3333333333333333 [-]
	 SCS Opposite-Spin Scale   =       1.2000000000000000 [-]
	 SCS Same-Spin Energy      =      -0.3005827584292110 [Eh]
	 SCS Opposite-Spin Energy  =      -3.2591230033912426 [Eh]
	 SCS Correlation Energy    =      -3.5597057618204535 [Eh]
	 SCS Total Energy          =    -889.9288985459781998 [Eh]
	-----------------------------------------------------------

  Dipole Moment: [D]
     X:     1.5344      Y:    -6.0297      Z:    -1.8895     Total:     6.5025

*** Psi4 exiting successfully. Buy a developer a beer!
