                               Psi4 1.3.2 release

  ==> Input File <==

--------------------------------------------------------------------------
#psi4
#
memory 32 gb

molecule  {
0 1
  O       -1.2481010    -0.6526680     1.0325150
  O       -1.2449750     2.4828510    -0.6861630
  O       -3.2165300     1.5210990     0.7448870
  O       -2.3570290    -3.0668370     0.0949400
  O        1.3605300     2.2470340    -0.0765420
  N        0.8434040     0.0452230     0.2559430
  N        3.0572260     0.7205030    -0.2937270
  N        4.7164630    -0.8366550    -0.5722980
  C       -1.2894840     1.0784300    -0.5920770
  C       -2.7151710     0.6552070    -0.2573930
  C       -0.5254080     0.4815200     0.6000940
  C       -2.5292560    -0.7168860     0.3610560
  C       -2.5283440    -1.8503930    -0.6392900
  C        1.2197750    -1.2614080     0.3112740
  C        1.7528537     1.0559219    -0.0578830
  C        2.5111010    -1.6091400     0.0469950
  C        3.4011088    -0.5535687    -0.2564798
  H       -0.9376060     0.5914040    -1.5148910
  H       -3.3625820     0.6426650    -1.1464650
  H       -0.4402900     1.2218800     1.4039980
  H       -3.2819570    -0.9087340     1.1307830
  H       -1.7133080    -1.7003050    -1.3694640
  H       -3.4855610    -1.8340040    -1.1841350
  H       -0.2975250     2.7131790    -0.5250000
  H       -2.8475560     2.3997430     0.5086630
  H        0.4343110    -1.9634370     0.5690680
  H       -2.4338740    -3.7984320    -0.5432330
  H        2.8291120    -2.6453980     0.0739220
  H        5.1251800    -1.6708610    -0.1624140
  H        5.3198140    -0.0200540    -0.5682940
units angstrom
no_reorient  #important for SAPT in psi4, default
symmetry c1  #important for SAPT in psi4, default
}

set PROPERTIES_ORIGIN ["COM"]
properties('MP2/aug-cc-pvtz', properties = ['dipole'])
--------------------------------------------------------------------------

    Molecular point group: c1
  Charge       = 0
  Multiplicity = 1
  Basis Set: AUG-CC-PVTZ
    Blend: AUG-CC-PVTZ
  Basis Set: (AUG-CC-PVTZ AUX)
    Blend: AUG-CC-PVTZ-JKFIT

    Orbital Energies [Eh]
    ---------------------

    Doubly Occupied:

       1A    -20.582784     2A    -20.582501     3A    -20.558077
       4A    -20.556954     5A    -20.519455     6A    -15.639644
       7A    -15.598418     8A    -15.555038     9A    -11.387718
      10A    -11.357616    11A    -11.342730    12A    -11.330520
      13A    -11.301736    14A    -11.297517    15A    -11.297158
      16A    -11.293388    17A    -11.249778    18A     -1.430051
      19A     -1.393693    20A     -1.380369    21A     -1.373159
      22A     -1.346285    23A     -1.304140    24A     -1.273612
      25A     -1.181289    26A     -1.084730    27A     -1.068310
      28A     -1.022885    29A     -0.936494    30A     -0.913192
      31A     -0.876934    32A     -0.832859    33A     -0.812431
      34A     -0.767444    35A     -0.753863    36A     -0.736637
      37A     -0.718475    38A     -0.703077    39A     -0.698782
      40A     -0.684854    41A     -0.673041    42A     -0.654804
      43A     -0.651094    44A     -0.639799    45A     -0.621837
      46A     -0.614444    47A     -0.607088    48A     -0.592000
      49A     -0.576199    50A     -0.570093    51A     -0.554270
      52A     -0.545645    53A     -0.537266    54A     -0.530717
      55A     -0.496923    56A     -0.477976    57A     -0.474773
      58A     -0.462466    59A     -0.458772    60A     -0.453086
      61A     -0.441718    62A     -0.435094    63A     -0.395365
      64A     -0.351712

  @DF-RHF Final Energy:  -886.37225900050930

   => Energetics <=

    Nuclear Repulsion Energy =           1323.9607781115262242
    One-Electron Energy =               -3845.5445223212391284
    Two-Electron Energy =                1635.2114852092033743
    Total Energy =                       -886.3722590005093025
  Basis Set: (AUG-CC-PVTZ AUX)
    Blend: AUG-CC-PVTZ-RI
    Molecular point group: c1

    Geometry (in Angstrom), charge = 0, multiplicity = 1:

       Center              X                  Y                   Z               Mass
    ------------   -----------------  -----------------  -----------------  -----------------
         O           -1.247428949480    -0.651955707206     1.032319264024    15.994914619570
         O           -1.244302949480     2.483563292794    -0.686358735976    15.994914619570
         O           -3.215857949480     1.521811292794     0.744691264024    15.994914619570
         O           -2.356356949480    -3.066124707206     0.094744264024    15.994914619570
         O            1.361202050520     2.247746292794    -0.076737735976    15.994914619570
         N            0.844076050520     0.045935292794     0.255747264024    14.003074004430
         N            3.057898050520     0.721215292794    -0.293922735976    14.003074004430
         N            4.717135050520    -0.835942707206    -0.572493735976    14.003074004430
         C           -1.288811949480     1.079142292794    -0.592272735976    12.000000000000
         C           -2.714498949480     0.655919292794    -0.257588735976    12.000000000000
         C           -0.524735949480     0.482232292794     0.599898264024    12.000000000000
         C           -2.528583949480    -0.716173707206     0.360860264024    12.000000000000
         C           -2.527671949480    -1.849680707206    -0.639485735976    12.000000000000
         C            1.220447050520    -1.260695707206     0.311078264024    12.000000000000
         C            1.753525750520     1.056634192794    -0.058078735976    12.000000000000
         C            2.511773050520    -1.608427707206     0.046799264024    12.000000000000
         C            3.401780850520    -0.552856407206    -0.256675535976    12.000000000000
         H           -0.936933949480     0.592116292794    -1.515086735976     1.007825032230
         H           -3.361909949480     0.643377292794    -1.146660735976     1.007825032230
         H           -0.439617949480     1.222592292794     1.403802264024     1.007825032230
         H           -3.281284949480    -0.908021707206     1.130587264024     1.007825032230
         H           -1.712635949480    -1.699592707206    -1.369659735976     1.007825032230
         H           -3.484888949480    -1.833291707206    -1.184330735976     1.007825032230
         H           -0.296852949480     2.713891292794    -0.525195735976     1.007825032230
         H           -2.846883949480     2.400455292794     0.508467264024     1.007825032230
         H            0.434983050520    -1.962724707206     0.568872264024     1.007825032230
         H           -2.433201949480    -3.797719707206    -0.543428735976     1.007825032230
         H            2.829784050520    -2.644685707206     0.073726264024     1.007825032230
         H            5.125852050520    -1.670148707206    -0.162609735976     1.007825032230
         H            5.320486050520    -0.019341707206    -0.568489735976     1.007825032230

  Basis Set: AUG-CC-PVTZ
    Blend: AUG-CC-PVTZ
  Basis Set: (AUG-CC-PVTZ AUX)
    Blend: AUG-CC-PVTZ-JKFIT
	 Reference Energy          =    -886.3722590005093025 [Eh]
	 Singles Energy            =      -0.0000000000000000 [Eh]
	 Same-Spin Energy          =      -0.9014913611608527 [Eh]
	 Opposite-Spin Energy      =      -2.7153632821535192 [Eh]
	 Correlation Energy        =      -3.6168546433143720 [Eh]
	 Total Energy              =    -889.9891136438236572 [Eh]

	 ================> DF-SCS-MP2 Energies <==================
	-----------------------------------------------------------
	 SCS Same-Spin Scale       =       0.3333333333333333 [-]
	 SCS Opposite-Spin Scale   =       1.2000000000000000 [-]
	 SCS Same-Spin Energy      =      -0.3004971203869509 [Eh]
	 SCS Opposite-Spin Energy  =      -3.2584359385842228 [Eh]
	 SCS Correlation Energy    =      -3.5589330589711734 [Eh]
	 SCS Total Energy          =    -889.9311920594805088 [Eh]
	-----------------------------------------------------------

  Dipole Moment: [D]
     X:     1.6109      Y:    -6.0471      Z:    -1.7924     Total:     6.5096

*** Psi4 exiting successfully. Buy a developer a beer!
