                               Psi4 1.3.2 release

  ==> Input File <==

--------------------------------------------------------------------------
#psi4
#
memory 32 gb

molecule  {
0 1
  O       -1.2481010    -0.6526680     1.0325150
  O       -1.2449750     2.4828510    -0.6861630
  O       -3.2165300     1.5210990     0.7448870
  O       -2.3570290    -3.0668370     0.0949400
  O        1.3605300     2.2470340    -0.0765420
  N        0.8434040     0.0452230     0.2559430
  N        3.0572260     0.7205030    -0.2937270
  N        4.7164630    -0.8366550    -0.5722980
  C       -1.2894840     1.0784300    -0.5920770
  C       -2.7390285     0.6177240    -0.2357256
  C       -0.5254080     0.4815200     0.6000940
  C       -2.5292560    -0.7168860     0.3610560
  C       -2.5283440    -1.8503930    -0.6392900
  C        1.2197750    -1.2614080     0.3112740
  C        1.7555940     1.0674350    -0.0594030
  C        2.5111010    -1.6091400     0.0469950
  C        3.4119830    -0.5506530    -0.2589250
  H       -0.9376060     0.5914040    -1.5148910
  H       -3.3625820     0.6426650    -1.1464650
  H       -0.4402900     1.2218800     1.4039980
  H       -3.2819570    -0.9087340     1.1307830
  H       -1.7133080    -1.7003050    -1.3694640
  H       -3.4855610    -1.8340040    -1.1841350
  H       -0.2975250     2.7131790    -0.5250000
  H       -2.8635262     2.4130995     0.5358842
  H        0.4343110    -1.9634370     0.5690680
  H       -2.4338740    -3.7984320    -0.5432330
  H        2.8291120    -2.6453980     0.0739220
  H        5.1251800    -1.6708610    -0.1624140
  H        5.3198140    -0.0200540    -0.5682940
units angstrom
no_reorient  #important for SAPT in psi4, default
symmetry c1  #important for SAPT in psi4, default
}

set PROPERTIES_ORIGIN ["COM"]
properties('MP2/aug-cc-pvtz', properties = ['dipole'])
--------------------------------------------------------------------------

    Molecular point group: c1
  Charge       = 0
  Multiplicity = 1
  Basis Set: AUG-CC-PVTZ
    Blend: AUG-CC-PVTZ
  Basis Set: (AUG-CC-PVTZ AUX)
    Blend: AUG-CC-PVTZ-JKFIT

    Orbital Energies [Eh]
    ---------------------

    Doubly Occupied:

       1A    -20.582813     2A    -20.582028     3A    -20.556346
       4A    -20.556256     5A    -20.521485     6A    -15.636489
       7A    -15.599579     8A    -15.553014     9A    -11.387820
      10A    -11.357528    11A    -11.340713    12A    -11.328223
      13A    -11.302326    14A    -11.297132    15A    -11.296394
      16A    -11.294058    17A    -11.248252    18A     -1.429415
      19A     -1.396197    20A     -1.378243    21A     -1.372410
      22A     -1.344893    23A     -1.305704    24A     -1.273510
      25A     -1.181949    26A     -1.081759    27A     -1.071859
      28A     -1.018221    29A     -0.934926    30A     -0.909512
      31A     -0.878955    32A     -0.833087    33A     -0.811343
      34A     -0.766709    35A     -0.751704    36A     -0.733833
      37A     -0.720295    38A     -0.704797    39A     -0.699277
      40A     -0.685419    41A     -0.674284    42A     -0.654279
      43A     -0.650713    44A     -0.638298    45A     -0.620214
      46A     -0.614404    47A     -0.607216    48A     -0.593405
      49A     -0.574037    50A     -0.569063    51A     -0.557007
      52A     -0.546087    53A     -0.535618    54A     -0.531504
      55A     -0.497297    56A     -0.477705    57A     -0.474963
      58A     -0.462228    59A     -0.459492    60A     -0.449543
      61A     -0.438420    62A     -0.432908    63A     -0.394648
      64A     -0.349404

  @DF-RHF Final Energy:  -886.37111623196597

   => Energetics <=

    Nuclear Repulsion Energy =           1323.4719194107738076
    One-Electron Energy =               -3844.6316501591272754
    Two-Electron Energy =                1634.7886145163874971
    Total Energy =                       -886.3711162319659707
  Basis Set: (AUG-CC-PVTZ AUX)
    Blend: AUG-CC-PVTZ-RI
    Molecular point group: c1

    Geometry (in Angstrom), charge = 0, multiplicity = 1:

       Center              X                  Y                   Z               Mass
    ------------   -----------------  -----------------  -----------------  -----------------
         O           -1.246857088321    -0.650873004360     1.031332530605    15.994914619570
         O           -1.243731088321     2.484645995640    -0.687345469395    15.994914619570
         O           -3.215286088321     1.522893995640     0.743704530605    15.994914619570
         O           -2.355785088321    -3.065042004360     0.093757530605    15.994914619570
         O            1.361773911679     2.248828995640    -0.077724469395    15.994914619570
         N            0.844647911679     0.047017995640     0.254760530605    14.003074004430
         N            3.058469911679     0.722297995640    -0.294909469395    14.003074004430
         N            4.717706911679    -0.834860004360    -0.573480469395    14.003074004430
         C           -1.288240088321     1.080224995640    -0.593259469395    12.000000000000
         C           -2.737784588321     0.619518995640    -0.236908069395    12.000000000000
         C           -0.524164088321     0.483314995640     0.598911530605    12.000000000000
         C           -2.528012088321    -0.715091004360     0.359873530605    12.000000000000
         C           -2.527100088321    -1.848598004360    -0.640472469395    12.000000000000
         C            1.221018911679    -1.259613004360     0.310091530605    12.000000000000
         C            1.756837911679     1.069229995640    -0.060585469395    12.000000000000
         C            2.512344911679    -1.607345004360     0.045812530605    12.000000000000
         C            3.413226911679    -0.548858004360    -0.260107469395    12.000000000000
         H           -0.936362088321     0.593198995640    -1.516073469395     1.007825032230
         H           -3.361338088321     0.644459995640    -1.147647469395     1.007825032230
         H           -0.439046088321     1.223674995640     1.402815530605     1.007825032230
         H           -3.280713088321    -0.906939004360     1.129600530605     1.007825032230
         H           -1.712064088321    -1.698510004360    -1.370646469395     1.007825032230
         H           -3.484317088321    -1.832209004360    -1.185317469395     1.007825032230
         H           -0.296281088321     2.714973995640    -0.526182469395     1.007825032230
         H           -2.862282288321     2.414894495640     0.534701730605     1.007825032230
         H            0.435554911679    -1.961642004360     0.567885530605     1.007825032230
         H           -2.432630088321    -3.796637004360    -0.544415469395     1.007825032230
         H            2.830355911679    -2.643603004360     0.072739530605     1.007825032230
         H            5.126423911679    -1.669066004360    -0.163596469395     1.007825032230
         H            5.321057911679    -0.018259004360    -0.569476469395     1.007825032230

  Basis Set: AUG-CC-PVTZ
    Blend: AUG-CC-PVTZ
  Basis Set: (AUG-CC-PVTZ AUX)
    Blend: AUG-CC-PVTZ-JKFIT
	 Reference Energy          =    -886.3711162319659707 [Eh]
	 Singles Energy            =      -0.0000000000000000 [Eh]
	 Same-Spin Energy          =      -0.9013318290991719 [Eh]
	 Opposite-Spin Energy      =      -2.7149192678581024 [Eh]
	 Correlation Energy        =      -3.6162510969572743 [Eh]
	 Total Energy              =    -889.9873673289232556 [Eh]

	 ================> DF-SCS-MP2 Energies <==================
	-----------------------------------------------------------
	 SCS Same-Spin Scale       =       0.3333333333333333 [-]
	 SCS Opposite-Spin Scale   =       1.2000000000000000 [-]
	 SCS Same-Spin Energy      =      -0.3004439430330573 [Eh]
	 SCS Opposite-Spin Energy  =      -3.2579031214297229 [Eh]
	 SCS Correlation Energy    =      -3.5583470644627804 [Eh]
	 SCS Total Energy          =    -889.9294632964287075 [Eh]
	-----------------------------------------------------------

  Dipole Moment: [D]
     X:     1.6397      Y:    -5.9537      Z:    -1.7907     Total:     6.4298

*** Psi4 exiting successfully. Buy a developer a beer!
