                               Psi4 1.3.2 release

  ==> Input File <==

--------------------------------------------------------------------------
#psi4
#
memory 32 gb

molecule  {
0 1
  O       -1.2280643    -0.6665620     1.0288567
  O       -1.2449750     2.4828510    -0.6861630
  O       -3.2165300     1.5210990     0.7448870
  O       -2.3570290    -3.0668370     0.0949400
  O        1.3605300     2.2470340    -0.0765420
  N        0.8370702     0.0210634     0.2623454
  N        3.0572260     0.7205030    -0.2937270
  N        4.7164630    -0.8366550    -0.5722980
  C       -1.2894840     1.0784300    -0.5920770
  C       -2.7151710     0.6552070    -0.2573930
  C       -0.5254080     0.4815200     0.6000940
  C       -2.5292560    -0.7168860     0.3610560
  C       -2.5283440    -1.8503930    -0.6392900
  C        1.2197750    -1.2614080     0.3112740
  C        1.7555940     1.0674350    -0.0594030
  C        2.5111010    -1.6091400     0.0469950
  C        3.4119830    -0.5506530    -0.2589250
  H       -0.9376060     0.5914040    -1.5148910
  H       -3.3625820     0.6426650    -1.1464650
  H       -0.4402900     1.2218800     1.4039980
  H       -3.2819570    -0.9087340     1.1307830
  H       -1.7133080    -1.7003050    -1.3694640
  H       -3.4855610    -1.8340040    -1.1841350
  H       -0.2975250     2.7131790    -0.5250000
  H       -2.8475560     2.3997430     0.5086630
  H        0.4343110    -1.9634370     0.5690680
  H       -2.4338740    -3.7984320    -0.5432330
  H        2.8291120    -2.6453980     0.0739220
  H        5.1251800    -1.6708610    -0.1624140
  H        5.3198140    -0.0200540    -0.5682940
units angstrom
no_reorient  #important for SAPT in psi4, default
symmetry c1  #important for SAPT in psi4, default
}

set PROPERTIES_ORIGIN ["COM"]
properties('MP2/aug-cc-pvtz', properties = ['dipole'])
--------------------------------------------------------------------------

    Molecular point group: c1
  Charge       = 0
  Multiplicity = 1
  Basis Set: AUG-CC-PVTZ
    Blend: AUG-CC-PVTZ
  Basis Set: (AUG-CC-PVTZ AUX)
    Blend: AUG-CC-PVTZ-JKFIT

    Orbital Energies [Eh]
    ---------------------

    Doubly Occupied:

       1A    -20.582345     2A    -20.581510     3A    -20.558910
       4A    -20.558485     5A    -20.525299     6A    -15.636731
       7A    -15.598587     8A    -15.552700     9A    -11.390839
      10A    -11.356483    11A    -11.341965    12A    -11.325322
      13A    -11.301781    14A    -11.298571    15A    -11.297993
      16A    -11.294592    17A    -11.244721    18A     -1.427715
      19A     -1.395189    20A     -1.380978    21A     -1.372907
      22A     -1.347471    23A     -1.306961    24A     -1.274485
      25A     -1.181735    26A     -1.080199    27A     -1.069311
      28A     -1.020158    29A     -0.935781    30A     -0.906357
      31A     -0.877483    32A     -0.833027    33A     -0.811757
      34A     -0.765507    35A     -0.753218    36A     -0.737084
      37A     -0.719322    38A     -0.702944    39A     -0.698600
      40A     -0.684540    41A     -0.672182    42A     -0.654529
      43A     -0.651057    44A     -0.637585    45A     -0.620338
      46A     -0.612238    47A     -0.605740    48A     -0.596303
      49A     -0.575759    50A     -0.569140    51A     -0.554949
      52A     -0.545800    53A     -0.537657    54A     -0.531257
      55A     -0.501502    56A     -0.478805    57A     -0.475766
      58A     -0.464187    59A     -0.460958    60A     -0.454079
      61A     -0.440897    62A     -0.431853    63A     -0.395154
      64A     -0.347110

  @DF-RHF Final Energy:  -886.37127041673625

   => Energetics <=

    Nuclear Repulsion Energy =           1323.5363164416382915
    One-Electron Energy =               -3844.7263589303843219
    Two-Electron Energy =                1634.8187720720100060
    Total Energy =                       -886.3712704167362517
  Basis Set: (AUG-CC-PVTZ AUX)
    Blend: AUG-CC-PVTZ-RI
    Molecular point group: c1

    Geometry (in Angstrom), charge = 0, multiplicity = 1:

       Center              X                  Y                   Z               Mass
    ------------   -----------------  -----------------  -----------------  -----------------
         O           -1.229017877509    -0.664256044163     1.028728608181    15.994914619570
         O           -1.245928577509     2.485156955837    -0.686291091819    15.994914619570
         O           -3.217483577509     1.523404955837     0.744758908181    15.994914619570
         O           -2.357982577509    -3.064531044163     0.094811908181    15.994914619570
         O            1.359576422491     2.249339955837    -0.076670091819    15.994914619570
         N            0.836116622491     0.023369355837     0.262217308181    14.003074004430
         N            3.056272422491     0.722808955837    -0.293855091819    14.003074004430
         N            4.715509422491    -0.834349044163    -0.572426091819    14.003074004430
         C           -1.290437577509     1.080735955837    -0.592205091819    12.000000000000
         C           -2.716124577509     0.657512955837    -0.257521091819    12.000000000000
         C           -0.526361577509     0.483825955837     0.599965908181    12.000000000000
         C           -2.530209577509    -0.714580044163     0.360927908181    12.000000000000
         C           -2.529297577509    -1.848087044163    -0.639418091819    12.000000000000
         C            1.218821422491    -1.259102044163     0.311145908181    12.000000000000
         C            1.754640422491     1.069740955837    -0.059531091819    12.000000000000
         C            2.510147422491    -1.606834044163     0.046866908181    12.000000000000
         C            3.411029422491    -0.548347044163    -0.259053091819    12.000000000000
         H           -0.938559577509     0.593709955837    -1.515019091819     1.007825032230
         H           -3.363535577509     0.644970955837    -1.146593091819     1.007825032230
         H           -0.441243577509     1.224185955837     1.403869908181     1.007825032230
         H           -3.282910577509    -0.906428044163     1.130654908181     1.007825032230
         H           -1.714261577509    -1.697999044163    -1.369592091819     1.007825032230
         H           -3.486514577509    -1.831698044163    -1.184263091819     1.007825032230
         H           -0.298478577509     2.715484955837    -0.525128091819     1.007825032230
         H           -2.848509577509     2.402048955837     0.508534908181     1.007825032230
         H            0.433357422491    -1.961131044163     0.568939908181     1.007825032230
         H           -2.434827577509    -3.796126044163    -0.543361091819     1.007825032230
         H            2.828158422491    -2.643092044163     0.073793908181     1.007825032230
         H            5.124226422491    -1.668555044163    -0.162542091819     1.007825032230
         H            5.318860422491    -0.017748044163    -0.568422091819     1.007825032230

  Basis Set: AUG-CC-PVTZ
    Blend: AUG-CC-PVTZ
  Basis Set: (AUG-CC-PVTZ AUX)
    Blend: AUG-CC-PVTZ-JKFIT
	 Reference Energy          =    -886.3712704167362517 [Eh]
	 Singles Energy            =      -0.0000000000000000 [Eh]
	 Same-Spin Energy          =      -0.9016023297243415 [Eh]
	 Opposite-Spin Energy      =      -2.7155683696842932 [Eh]
	 Correlation Energy        =      -3.6171706994086348 [Eh]
	 Total Energy              =    -889.9884411161449407 [Eh]

	 ================> DF-SCS-MP2 Energies <==================
	-----------------------------------------------------------
	 SCS Same-Spin Scale       =       0.3333333333333333 [-]
	 SCS Opposite-Spin Scale   =       1.2000000000000000 [-]
	 SCS Same-Spin Energy      =      -0.3005341099081138 [Eh]
	 SCS Opposite-Spin Energy  =      -3.2586820436211519 [Eh]
	 SCS Correlation Energy    =      -3.5592161535292659 [Eh]
	 SCS Total Energy          =    -889.9304865702655434 [Eh]
	-----------------------------------------------------------

  Dipole Moment: [D]
     X:     1.5646      Y:    -5.8048      Z:    -1.8317     Total:     6.2848

*** Psi4 exiting successfully. Buy a developer a beer!
