                               Psi4 1.4a3.dev225

  ==> Input File <==

--------------------------------------------------------------------------
#psi4
#
memory 32 gb

molecule  {
0 1
  O       -1.3191770     0.6538360    -1.0992360
  O       -1.5735610    -2.4640850     0.5135810
  O       -3.5606630    -1.0699430    -0.4600060
  O       -1.4399290     3.1254620     0.1265180
  O        1.1065530    -2.3833650     0.0076020
  N        0.7686360    -0.1579440    -0.3706350
  N        2.9363770    -0.9938720     0.1460080
  N        4.7058880     0.4431110     0.3611260
  C       -1.3768610    -1.0680440     0.5552780
  C       -2.7379840    -0.3746360     0.4578480
  C       -0.6138323    -0.4860518    -0.7189551
  C       -2.3707440     0.9655450    -0.1585060
  C       -1.8992030     1.9895750     0.8571380
  C        1.2309690     1.1190800    -0.4442230
  C        1.6104480    -1.2470590    -0.0585760
  C        2.5474650     1.3753690    -0.1998620
  C        3.3802090     0.2523040     0.0808410
  H       -0.8441360    -0.7686950     1.4698480
  H       -3.2257400    -0.2778790     1.4400230
  H       -0.6227070    -1.2428120    -1.4883720
  H       -3.1941750     1.3785730    -0.7472070
  H       -1.0952130     1.5703990     1.4802000
  H       -2.7410530     2.2466610     1.5166010
  H       -0.6710550    -2.8260740     0.3542250
  H       -3.3063470    -2.0105220    -0.3629290
  H        0.4929290     1.8778260    -0.6840360
  H       -1.2098800     3.8154810     0.7720340
  H        2.9334840     2.3875570    -0.2389120
  H        5.1589650     1.2712730    -0.0008400
  H        5.2635310    -0.4031270     0.3606700
units angstrom
no_reorient  #important for SAPT in psi4, default
symmetry c1  #important for SAPT in psi4, default
}

set PROPERTIES_ORIGIN ["COM"]
properties('MP2/aug-cc-pvtz', properties = ['dipole'])
--------------------------------------------------------------------------

    Molecular point group: c1
  Charge       = 0
  Multiplicity = 1
  Basis Set: AUG-CC-PVTZ
    Blend: AUG-CC-PVTZ
  Basis Set: (AUG-CC-PVTZ AUX)
    Blend: AUG-CC-PVTZ-JKFIT

    Orbital Energies [Eh]
    ---------------------

    Doubly Occupied:

       1A    -20.586705     2A    -20.580773     3A    -20.557897
       4A    -20.555291     5A    -20.520231     6A    -15.633807
       7A    -15.600176     8A    -15.552497     9A    -11.386946
      10A    -11.358667    11A    -11.337946    12A    -11.325518
      13A    -11.303498    14A    -11.298556    15A    -11.296558
      16A    -11.292033    17A    -11.247176    18A     -1.430997
      19A     -1.394883    20A     -1.382497    21A     -1.375335
      22A     -1.345022    23A     -1.304649    24A     -1.273614
      25A     -1.182239    26A     -1.079896    27A     -1.067372
      28A     -1.011032    29A     -0.937344    30A     -0.907984
      31A     -0.877078    32A     -0.831293    33A     -0.810258
      34A     -0.768201    35A     -0.749998    36A     -0.734634
      37A     -0.721786    38A     -0.707368    39A     -0.702607
      40A     -0.686143    41A     -0.676485    42A     -0.655319
      43A     -0.649675    44A     -0.633014    45A     -0.621563
      46A     -0.615048    47A     -0.608051    48A     -0.592823
      49A     -0.577280    50A     -0.566697    51A     -0.555452
      52A     -0.548523    53A     -0.534089    54A     -0.531887
      55A     -0.496035    56A     -0.480595    57A     -0.471502
      58A     -0.463798    59A     -0.458191    60A     -0.450519
      61A     -0.436408    62A     -0.431417    63A     -0.391727
      64A     -0.347973

  @DF-RHF Final Energy:  -886.37272898352387

   => Energetics <=

    Nuclear Repulsion Energy =           1334.2362736477025464
    One-Electron Energy =               -3866.1968518725402646
    Two-Electron Energy =                1645.5878492413139611
    Total Energy =                       -886.3727289835237571
  Basis Set: (AUG-CC-PVTZ AUX)
    Blend: AUG-CC-PVTZ-RI
    Molecular point group: c1

    Geometry (in Angstrom), charge = 0, multiplicity = 1:

       Center              X                  Y                   Z               Mass
    ------------   -----------------  -----------------  -----------------  -----------------
         O           -1.333101310886     0.681546934294    -1.081484132374    15.994914619570
         O           -1.587485310886    -2.436374065706     0.531332867626    15.994914619570
         O           -3.574587310886    -1.042232065706    -0.442254132374    15.994914619570
         O           -1.453853310886     3.153172934294     0.144269867626    15.994914619570
         O            1.092628689114    -2.355654065706     0.025353867626    15.994914619570
         N            0.754711689114    -0.130233065706    -0.352883132374    14.003074004430
         N            2.922452689114    -0.966161065706     0.163759867626    14.003074004430
         N            4.691963689114     0.470821934294     0.378877867626    14.003074004430
         C           -1.390785310886    -1.040333065706     0.573029867626    12.000000000000
         C           -2.751908310886    -0.346925065706     0.475599867626    12.000000000000
         C           -0.627756610886    -0.458340865706    -0.701203232374    12.000000000000
         C           -2.384668310886     0.993255934294    -0.140754132374    12.000000000000
         C           -1.913127310886     2.017285934294     0.874889867626    12.000000000000
         C            1.217044689114     1.146790934294    -0.426471132374    12.000000000000
         C            1.596523689114    -1.219348065706    -0.040824132374    12.000000000000
         C            2.533540689114     1.403079934294    -0.182110132374    12.000000000000
         C            3.366284689114     0.280014934294     0.098592867626    12.000000000000
         H           -0.858060310886    -0.740984065706     1.487599867626     1.007825032230
         H           -3.239664310886    -0.250168065706     1.457774867626     1.007825032230
         H           -0.636631310886    -1.215101065706    -1.470620132374     1.007825032230
         H           -3.208099310886     1.406283934294    -0.729455132374     1.007825032230
         H           -1.109137310886     1.598109934294     1.497951867626     1.007825032230
         H           -2.754977310886     2.274371934294     1.534352867626     1.007825032230
         H           -0.684979310886    -2.798363065706     0.371976867626     1.007825032230
         H           -3.320271310886    -1.982811065706    -0.345177132374     1.007825032230
         H            0.479004689114     1.905536934294    -0.666284132374     1.007825032230
         H           -1.223804310886     3.843191934294     0.789785867626     1.007825032230
         H            2.919559689114     2.415267934294    -0.221160132374     1.007825032230
         H            5.145040689114     1.298983934294     0.016911867626     1.007825032230
         H            5.249606689114    -0.375416065706     0.378421867626     1.007825032230

  Basis Set: AUG-CC-PVTZ
    Blend: AUG-CC-PVTZ
  Basis Set: (AUG-CC-PVTZ AUX)
    Blend: AUG-CC-PVTZ-JKFIT
	 Reference Energy          =    -886.3727289835238707 [Eh]
	 Singles Energy            =      -0.0000000000000000 [Eh]
	 Same-Spin Energy          =      -0.9016869501979681 [Eh]
	 Opposite-Spin Energy      =      -2.7155622219077227 [Eh]
	 Correlation Energy        =      -3.6172491721056907 [Eh]
	 Total Energy              =    -889.9899781556296148 [Eh]

	 ================> DF-SCS-MP2 Energies <==================
	-----------------------------------------------------------
	 SCS Same-Spin Scale       =       0.3333333333333333 [-]
	 SCS Opposite-Spin Scale   =       1.2000000000000000 [-]
	 SCS Same-Spin Energy      =      -0.3005623167326560 [Eh]
	 SCS Opposite-Spin Energy  =      -3.2586746662892669 [Eh]
	 SCS Correlation Energy    =      -3.5592369830219228 [Eh]
	 SCS Total Energy          =    -889.9319659665458175 [Eh]
	-----------------------------------------------------------

  Dipole Moment: [D]
     X:     2.8096      Y:     5.8313      Z:     1.9095     Total:     6.7487

*** Psi4 exiting successfully. Buy a developer a beer!
