                               Psi4 1.3.2 release

  ==> Input File <==

--------------------------------------------------------------------------
#psi4
#
memory 32 gb

molecule  {
0 1
  O       -1.2481010    -0.6526680     1.0325150
  O       -1.2537679     2.4844485    -0.6632666
  O       -3.2165300     1.5210990     0.7448870
  O       -2.3570290    -3.0668370     0.0949400
  O        1.3605300     2.2470340    -0.0765420
  N        0.8434040     0.0452230     0.2559430
  N        3.0572260     0.7205030    -0.2937270
  N        4.7164630    -0.8366550    -0.5722980
  C       -1.2894840     1.0784300    -0.5920770
  C       -2.7151710     0.6552070    -0.2573930
  C       -0.5254080     0.4815200     0.6000940
  C       -2.5292560    -0.7168860     0.3610560
  C       -2.5283440    -1.8503930    -0.6392900
  C        1.2197750    -1.2614080     0.3112740
  C        1.7555940     1.0674350    -0.0594030
  C        2.5111010    -1.6091400     0.0469950
  C        3.4119830    -0.5506530    -0.2589250
  H       -0.9407988     0.5742421    -1.5068509
  H       -3.3625820     0.6426650    -1.1464650
  H       -0.4402900     1.2218800     1.4039980
  H       -3.2819570    -0.9087340     1.1307830
  H       -1.7133080    -1.7003050    -1.3694640
  H       -3.4855610    -1.8340040    -1.1841350
  H       -0.2975250     2.7131790    -0.5250000
  H       -2.8475560     2.3997430     0.5086630
  H        0.4343110    -1.9634370     0.5690680
  H       -2.4338740    -3.7984320    -0.5432330
  H        2.8291120    -2.6453980     0.0739220
  H        5.1251800    -1.6708610    -0.1624140
  H        5.3198140    -0.0200540    -0.5682940
units angstrom
no_reorient  #important for SAPT in psi4, default
symmetry c1  #important for SAPT in psi4, default
}

set PROPERTIES_ORIGIN ["COM"]
properties('MP2/aug-cc-pvtz', properties = ['dipole'])
--------------------------------------------------------------------------

    Molecular point group: c1
  Charge       = 0
  Multiplicity = 1
  Basis Set: AUG-CC-PVTZ
    Blend: AUG-CC-PVTZ
  Basis Set: (AUG-CC-PVTZ AUX)
    Blend: AUG-CC-PVTZ-JKFIT

    Orbital Energies [Eh]
    ---------------------

    Doubly Occupied:

       1A    -20.582190     2A    -20.581229     3A    -20.558465
       4A    -20.556800     5A    -20.522226     6A    -15.636898
       7A    -15.599916     8A    -15.553445     9A    -11.388397
      10A    -11.357933    11A    -11.340926    12A    -11.328541
      13A    -11.301135    14A    -11.296826    15A    -11.296602
      16A    -11.292475    17A    -11.248604    18A     -1.429202
      19A     -1.396422    20A     -1.380175    21A     -1.372736
      22A     -1.345378    23A     -1.306157    24A     -1.273821
      25A     -1.182320    26A     -1.081971    27A     -1.067602
      28A     -1.021299    29A     -0.935329    30A     -0.909496
      31A     -0.877227    32A     -0.831937    33A     -0.811660
      34A     -0.766974    35A     -0.752031    36A     -0.736912
      37A     -0.720209    38A     -0.702802    39A     -0.697838
      40A     -0.685624    41A     -0.672783    42A     -0.654622
      43A     -0.651164    44A     -0.638394    45A     -0.620226
      46A     -0.614516    47A     -0.606790    48A     -0.594029
      49A     -0.575465    50A     -0.569247    51A     -0.554194
      52A     -0.545486    53A     -0.537474    54A     -0.531664
      55A     -0.497836    56A     -0.477201    57A     -0.474890
      58A     -0.461930    59A     -0.459917    60A     -0.453235
      61A     -0.440296    62A     -0.433184    63A     -0.395237
      64A     -0.350090

  @DF-RHF Final Energy:  -886.37269738586133

   => Energetics <=

    Nuclear Repulsion Energy =           1323.9012095917973966
    One-Electron Energy =               -3845.4726085100091950
    Two-Electron Energy =                1635.1987015323504693
    Total Energy =                       -886.3726973858613292
  Basis Set: (AUG-CC-PVTZ AUX)
    Blend: AUG-CC-PVTZ-RI
    Molecular point group: c1

    Geometry (in Angstrom), charge = 0, multiplicity = 1:

       Center              X                  Y                   Z               Mass
    ------------   -----------------  -----------------  -----------------  -----------------
         O           -1.247509227941    -0.652701951916     1.030975100964    15.994914619570
         O           -1.253176127941     2.484414548084    -0.664806499036    15.994914619570
         O           -3.215938227941     1.521065048084     0.743347100964    15.994914619570
         O           -2.356437227941    -3.066870951916     0.093400100964    15.994914619570
         O            1.361121772059     2.247000048084    -0.078081899036    15.994914619570
         N            0.843995772059     0.045189048084     0.254403100964    14.003074004430
         N            3.057817772059     0.720469048084    -0.295266899036    14.003074004430
         N            4.717054772059    -0.836688951916    -0.573837899036    14.003074004430
         C           -1.288892227941     1.078396048084    -0.593616899036    12.000000000000
         C           -2.714579227941     0.655173048084    -0.258932899036    12.000000000000
         C           -0.524816227941     0.481486048084     0.598554100964    12.000000000000
         C           -2.528664227941    -0.716919951916     0.359516100964    12.000000000000
         C           -2.527752227941    -1.850426951916    -0.640829899036    12.000000000000
         C            1.220366772059    -1.261441951916     0.309734100964    12.000000000000
         C            1.756185772059     1.067401048084    -0.060942899036    12.000000000000
         C            2.511692772059    -1.609173951916     0.045455100964    12.000000000000
         C            3.412574772059    -0.550686951916    -0.260464899036    12.000000000000
         H           -0.940207027941     0.574208148084    -1.508390799036     1.007825032230
         H           -3.361990227941     0.642631048084    -1.148004899036     1.007825032230
         H           -0.439698227941     1.221846048084     1.402458100964     1.007825032230
         H           -3.281365227941    -0.908767951916     1.129243100964     1.007825032230
         H           -1.712716227941    -1.700338951916    -1.371003899036     1.007825032230
         H           -3.484969227941    -1.834037951916    -1.185674899036     1.007825032230
         H           -0.296933227941     2.713145048084    -0.526539899036     1.007825032230
         H           -2.846964227941     2.399709048084     0.507123100964     1.007825032230
         H            0.434902772059    -1.963470951916     0.567528100964     1.007825032230
         H           -2.433282227941    -3.798465951916    -0.544772899036     1.007825032230
         H            2.829703772059    -2.645431951916     0.072382100964     1.007825032230
         H            5.125771772059    -1.670894951916    -0.163953899036     1.007825032230
         H            5.320405772059    -0.020087951916    -0.569833899036     1.007825032230

  Basis Set: AUG-CC-PVTZ
    Blend: AUG-CC-PVTZ
  Basis Set: (AUG-CC-PVTZ AUX)
    Blend: AUG-CC-PVTZ-JKFIT
	 Reference Energy          =    -886.3726973858613292 [Eh]
	 Singles Energy            =      -0.0000000000000000 [Eh]
	 Same-Spin Energy          =      -0.9014397363036813 [Eh]
	 Opposite-Spin Energy      =      -2.7152046899623650 [Eh]
	 Correlation Energy        =      -3.6166444262660464 [Eh]
	 Total Energy              =    -889.9893418121273498 [Eh]

	 ================> DF-SCS-MP2 Energies <==================
	-----------------------------------------------------------
	 SCS Same-Spin Scale       =       0.3333333333333333 [-]
	 SCS Opposite-Spin Scale   =       1.2000000000000000 [-]
	 SCS Same-Spin Energy      =      -0.3004799121012271 [Eh]
	 SCS Opposite-Spin Energy  =      -3.2582456279548380 [Eh]
	 SCS Correlation Energy    =      -3.5587255400560651 [Eh]
	 SCS Total Energy          =    -889.9314229259174454 [Eh]
	-----------------------------------------------------------

  Dipole Moment: [D]
     X:     1.7380      Y:    -5.9436      Z:    -1.8680     Total:     6.4681

*** Psi4 exiting successfully. Buy a developer a beer!
