                               Psi4 1.4a3.dev225

  ==> Input File <==

--------------------------------------------------------------------------
#psi4
#
memory 32 gb

molecule  {
0 1
  O       -1.3191770     0.6538360    -1.0992360
  O       -1.5735610    -2.4640850     0.5135810
  O       -3.5606630    -1.0699430    -0.4600060
  O       -1.4399290     3.1254620     0.1265180
  O        1.1065530    -2.3833650     0.0076020
  N        0.7686360    -0.1579440    -0.3706350
  N        2.9363770    -0.9938720     0.1460080
  N        4.7058880     0.4431110     0.3611260
  C       -1.3768610    -1.0680440     0.5552780
  C       -2.7379840    -0.3746360     0.4578480
  C       -0.6377490    -0.5042940    -0.6790150
  C       -2.3707440     0.9655450    -0.1585060
  C       -1.8992030     1.9895750     0.8571380
  C        1.2309690     1.1190800    -0.4442230
  C        1.6298713    -1.2433501    -0.0555791
  C        2.5474650     1.3753690    -0.1998620
  C        3.3802090     0.2523040     0.0808410
  H       -0.8441360    -0.7686950     1.4698480
  H       -3.2257400    -0.2778790     1.4400230
  H       -0.6227070    -1.2428120    -1.4883720
  H       -3.1941750     1.3785730    -0.7472070
  H       -1.0952130     1.5703990     1.4802000
  H       -2.7410530     2.2466610     1.5166010
  H       -0.6710550    -2.8260740     0.3542250
  H       -3.3063470    -2.0105220    -0.3629290
  H        0.4929290     1.8778260    -0.6840360
  H       -1.2098800     3.8154810     0.7720340
  H        2.9334840     2.3875570    -0.2389120
  H        5.1589650     1.2712730    -0.0008400
  H        5.2635310    -0.4031270     0.3606700
units angstrom
no_reorient  #important for SAPT in psi4, default
symmetry c1  #important for SAPT in psi4, default
}

set PROPERTIES_ORIGIN ["COM"]
properties('MP2/aug-cc-pvtz', properties = ['dipole'])
--------------------------------------------------------------------------

    Molecular point group: c1
  Charge       = 0
  Multiplicity = 1
  Basis Set: AUG-CC-PVTZ
    Blend: AUG-CC-PVTZ
  Basis Set: (AUG-CC-PVTZ AUX)
    Blend: AUG-CC-PVTZ-JKFIT

    Orbital Energies [Eh]
    ---------------------

    Doubly Occupied:

       1A    -20.586615     2A    -20.581049     3A    -20.558242
       4A    -20.555877     5A    -20.516206     6A    -15.632811
       7A    -15.601588     8A    -15.552865     9A    -11.385602
      10A    -11.360795    11A    -11.339071    12A    -11.325670
      13A    -11.303332    14A    -11.297568    15A    -11.296156
      16A    -11.292922    17A    -11.246866    18A     -1.428247
      19A     -1.389971    20A     -1.382152    21A     -1.374772
      22A     -1.345700    23A     -1.302690    24A     -1.270416
      25A     -1.186773    26A     -1.079522    27A     -1.067561
      28A     -1.016687    29A     -0.936736    30A     -0.904968
      31A     -0.879395    32A     -0.830403    33A     -0.811949
      34A     -0.767995    35A     -0.749751    36A     -0.734227
      37A     -0.722367    38A     -0.707641    39A     -0.702999
      40A     -0.685826    41A     -0.674767    42A     -0.653261
      43A     -0.647394    44A     -0.633330    45A     -0.619446
      46A     -0.615075    47A     -0.607844    48A     -0.591816
      49A     -0.576763    50A     -0.565050    51A     -0.555403
      52A     -0.547753    53A     -0.535828    54A     -0.529861
      55A     -0.494424    56A     -0.480520    57A     -0.473122
      58A     -0.462596    59A     -0.455801    60A     -0.452342
      61A     -0.441575    62A     -0.431655    63A     -0.393967
      64A     -0.348282

  @DF-RHF Final Energy:  -886.37335348815668

   => Energetics <=

    Nuclear Repulsion Energy =           1334.4038641772478968
    One-Electron Energy =               -3866.5547174384278151
    Two-Electron Energy =                1645.7774997730230098
    Total Energy =                       -886.3733534881566811
  Basis Set: (AUG-CC-PVTZ AUX)
    Blend: AUG-CC-PVTZ-RI
    Molecular point group: c1

    Geometry (in Angstrom), charge = 0, multiplicity = 1:

       Center              X                  Y                   Z               Mass
    ------------   -----------------  -----------------  -----------------  -----------------
         O           -1.332879492655     0.682264375628    -1.083603732089    15.994914619570
         O           -1.587263492655    -2.435656624372     0.529213267911    15.994914619570
         O           -3.574365492655    -1.041514624372    -0.444373732089    15.994914619570
         O           -1.453631492655     3.153890375628     0.142150267911    15.994914619570
         O            1.092850507345    -2.354936624372     0.023234267911    15.994914619570
         N            0.754933507345    -0.129515624372    -0.355002732089    14.003074004430
         N            2.922674507345    -0.965443624372     0.161640267911    14.003074004430
         N            4.692185507345     0.471539375628     0.376758267911    14.003074004430
         C           -1.390563492655    -1.039615624372     0.570910267911    12.000000000000
         C           -2.751686492655    -0.346207624372     0.473480267911    12.000000000000
         C           -0.651451492655    -0.475865624372    -0.663382732089    12.000000000000
         C           -2.384446492655     0.993973375628    -0.142873732089    12.000000000000
         C           -1.912905492655     2.018003375628     0.872770267911    12.000000000000
         C            1.217266507345     1.147508375628    -0.428590732089    12.000000000000
         C            1.616168807345    -1.214921724372    -0.039946832089    12.000000000000
         C            2.533762507345     1.403797375628    -0.184229732089    12.000000000000
         C            3.366506507345     0.280732375628     0.096473267911    12.000000000000
         H           -0.857838492655    -0.740266624372     1.485480267911     1.007825032230
         H           -3.239442492655    -0.249450624372     1.455655267911     1.007825032230
         H           -0.636409492655    -1.214383624372    -1.472739732089     1.007825032230
         H           -3.207877492655     1.407001375628    -0.731574732089     1.007825032230
         H           -1.108915492655     1.598827375628     1.495832267911     1.007825032230
         H           -2.754755492655     2.275089375628     1.532233267911     1.007825032230
         H           -0.684757492655    -2.797645624372     0.369857267911     1.007825032230
         H           -3.320049492655    -1.982093624372    -0.347296732089     1.007825032230
         H            0.479226507345     1.906254375628    -0.668403732089     1.007825032230
         H           -1.223582492655     3.843909375628     0.787666267911     1.007825032230
         H            2.919781507345     2.415985375628    -0.223279732089     1.007825032230
         H            5.145262507345     1.299701375628     0.014792267911     1.007825032230
         H            5.249828507345    -0.374698624372     0.376302267911     1.007825032230

  Basis Set: AUG-CC-PVTZ
    Blend: AUG-CC-PVTZ
  Basis Set: (AUG-CC-PVTZ AUX)
    Blend: AUG-CC-PVTZ-JKFIT
	 Reference Energy          =    -886.3733534881566811 [Eh]
	 Singles Energy            =      -0.0000000000000000 [Eh]
	 Same-Spin Energy          =      -0.9019889096057779 [Eh]
	 Opposite-Spin Energy      =      -2.7159896028002000 [Eh]
	 Correlation Energy        =      -3.6179785124059780 [Eh]
	 Total Energy              =    -889.9913320005626929 [Eh]

	 ================> DF-SCS-MP2 Energies <==================
	-----------------------------------------------------------
	 SCS Same-Spin Scale       =       0.3333333333333333 [-]
	 SCS Opposite-Spin Scale   =       1.2000000000000000 [-]
	 SCS Same-Spin Energy      =      -0.3006629698685926 [Eh]
	 SCS Opposite-Spin Energy  =      -3.2591875233602399 [Eh]
	 SCS Correlation Energy    =      -3.5598504932288324 [Eh]
	 SCS Total Energy          =    -889.9332039813855317 [Eh]
	-----------------------------------------------------------

  Dipole Moment: [D]
     X:     2.8729      Y:     5.8864      Z:     1.9559     Total:     6.8358

*** Psi4 exiting successfully. Buy a developer a beer!
