                               Psi4 1.4a3.dev225

  ==> Input File <==

--------------------------------------------------------------------------
#psi4
#
memory 32 gb

molecule  {
0 1
  O       -1.3191770     0.6538360    -1.0992360
  O       -1.5735610    -2.4640850     0.5135810
  O       -3.5606630    -1.0699430    -0.4600060
  O       -1.4399290     3.1254620     0.1265180
  O        1.1065530    -2.3833650     0.0076020
  N        0.7686360    -0.1579440    -0.3706350
  N        2.9363770    -0.9938720     0.1460080
  N        4.7058880     0.4431110     0.3611260
  C       -1.3768610    -1.0680440     0.5552780
  C       -2.7496106    -0.3844625     0.4448764
  C       -0.6377490    -0.5042940    -0.6790150
  C       -2.3707440     0.9655450    -0.1585060
  C       -1.8992030     1.9895750     0.8571380
  C        1.2309690     1.1190800    -0.4442230
  C        1.6104480    -1.2470590    -0.0585760
  C        2.5474650     1.3753690    -0.1998620
  C        3.3802090     0.2523040     0.0808410
  H       -0.8441360    -0.7686950     1.4698480
  H       -3.2257400    -0.2778790     1.4400230
  H       -0.6227070    -1.2428120    -1.4883720
  H       -3.1941750     1.3785730    -0.7472070
  H       -1.0952130     1.5703990     1.4802000
  H       -2.7410530     2.2466610     1.5166010
  H       -0.6710550    -2.8260740     0.3542250
  H       -3.3063470    -2.0105220    -0.3629290
  H        0.4929290     1.8778260    -0.6840360
  H       -1.2098800     3.8154810     0.7720340
  H        2.9334840     2.3875570    -0.2389120
  H        5.1589650     1.2712730    -0.0008400
  H        5.2635310    -0.4031270     0.3606700
units angstrom
no_reorient  #important for SAPT in psi4, default
symmetry c1  #important for SAPT in psi4, default
}

set PROPERTIES_ORIGIN ["COM"]
properties('MP2/aug-cc-pvtz', properties = ['dipole'])
--------------------------------------------------------------------------

    Molecular point group: c1
  Charge       = 0
  Multiplicity = 1
  Basis Set: AUG-CC-PVTZ
    Blend: AUG-CC-PVTZ
  Basis Set: (AUG-CC-PVTZ AUX)
    Blend: AUG-CC-PVTZ-JKFIT

    Orbital Energies [Eh]
    ---------------------

    Doubly Occupied:

       1A    -20.586527     2A    -20.580972     3A    -20.559168
       4A    -20.558429     5A    -20.519577     6A    -15.632769
       7A    -15.599541     8A    -15.551612     9A    -11.385805
      10A    -11.357915    11A    -11.339186    12A    -11.324932
      13A    -11.303340    14A    -11.297346    15A    -11.296553
      16A    -11.293805    17A    -11.246383    18A     -1.429326
      19A     -1.394059    20A     -1.384828    21A     -1.376764
      22A     -1.350849    23A     -1.303500    24A     -1.271152
      25A     -1.181043    26A     -1.079105    27A     -1.065569
      28A     -1.016346    29A     -0.935989    30A     -0.906455
      31A     -0.876677    32A     -0.829848    33A     -0.811701
      34A     -0.766335    35A     -0.749920    36A     -0.735137
      37A     -0.721794    38A     -0.708369    39A     -0.704757
      40A     -0.684967    41A     -0.676430    42A     -0.653192
      43A     -0.649118    44A     -0.633410    45A     -0.620061
      46A     -0.615166    47A     -0.608448    48A     -0.593012
      49A     -0.578331    50A     -0.565468    51A     -0.555855
      52A     -0.551004    53A     -0.536507    54A     -0.530900
      55A     -0.495333    56A     -0.480509    57A     -0.471347
      58A     -0.462951    59A     -0.457666    60A     -0.452401
      61A     -0.440813    62A     -0.430073    63A     -0.392041
      64A     -0.348018

  @DF-RHF Final Energy:  -886.37414581400026

   => Energetics <=

    Nuclear Repulsion Energy =           1334.5488706842254487
    One-Electron Energy =               -3866.8132243339246088
    Two-Electron Energy =                1645.8902078356986749
    Total Energy =                       -886.3741458140002578
  Basis Set: (AUG-CC-PVTZ AUX)
    Blend: AUG-CC-PVTZ-RI
    Molecular point group: c1

    Geometry (in Angstrom), charge = 0, multiplicity = 1:

       Center              X                  Y                   Z               Mass
    ------------   -----------------  -----------------  -----------------  -----------------
         O           -1.331346703704     0.682932555286    -1.082815441615    15.994914619570
         O           -1.585730703704    -2.434988444714     0.530001558385    15.994914619570
         O           -3.572832703704    -1.040846444714    -0.443585441615    15.994914619570
         O           -1.452098703704     3.154558555286     0.142938558385    15.994914619570
         O            1.094383296296    -2.354268444714     0.024022558385    15.994914619570
         N            0.756466296296    -0.128847444714    -0.354214441615    14.003074004430
         N            2.924207296296    -0.964775444714     0.162428558385    14.003074004430
         N            4.693718296296     0.472207555286     0.377546558385    14.003074004430
         C           -1.389030703704    -1.038947444714     0.571698558385    12.000000000000
         C           -2.761780303704    -0.355365944714     0.461296958385    12.000000000000
         C           -0.649918703704    -0.475197444714    -0.662594441615    12.000000000000
         C           -2.382913703704     0.994641555286    -0.142085441615    12.000000000000
         C           -1.911372703704     2.018671555286     0.873558558385    12.000000000000
         C            1.218799296296     1.148176555286    -0.427802441615    12.000000000000
         C            1.598278296296    -1.217962444714    -0.042155441615    12.000000000000
         C            2.535295296296     1.404465555286    -0.183441441615    12.000000000000
         C            3.368039296296     0.281400555286     0.097261558385    12.000000000000
         H           -0.856305703704    -0.739598444714     1.486268558385     1.007825032230
         H           -3.237909703704    -0.248782444714     1.456443558385     1.007825032230
         H           -0.634876703704    -1.213715444714    -1.471951441615     1.007825032230
         H           -3.206344703704     1.407669555286    -0.730786441615     1.007825032230
         H           -1.107382703704     1.599495555286     1.496620558385     1.007825032230
         H           -2.753222703704     2.275757555286     1.533021558385     1.007825032230
         H           -0.683224703704    -2.796977444714     0.370645558385     1.007825032230
         H           -3.318516703704    -1.981425444714    -0.346508441615     1.007825032230
         H            0.480759296296     1.906922555286    -0.667615441615     1.007825032230
         H           -1.222049703704     3.844577555286     0.788454558385     1.007825032230
         H            2.921314296296     2.416653555286    -0.222491441615     1.007825032230
         H            5.146795296296     1.300369555286     0.015580558385     1.007825032230
         H            5.251361296296    -0.374030444714     0.377090558385     1.007825032230

  Basis Set: AUG-CC-PVTZ
    Blend: AUG-CC-PVTZ
  Basis Set: (AUG-CC-PVTZ AUX)
    Blend: AUG-CC-PVTZ-JKFIT
	 Reference Energy          =    -886.3741458140002578 [Eh]
	 Singles Energy            =      -0.0000000000000000 [Eh]
	 Same-Spin Energy          =      -0.9017955842688317 [Eh]
	 Opposite-Spin Energy      =      -2.7156360415543643 [Eh]
	 Correlation Energy        =      -3.6174316258231958 [Eh]
	 Total Energy              =    -889.9915774398234589 [Eh]

	 ================> DF-SCS-MP2 Energies <==================
	-----------------------------------------------------------
	 SCS Same-Spin Scale       =       0.3333333333333333 [-]
	 SCS Opposite-Spin Scale   =       1.2000000000000000 [-]
	 SCS Same-Spin Energy      =      -0.3005985280896105 [Eh]
	 SCS Opposite-Spin Energy  =      -3.2587632498652370 [Eh]
	 SCS Correlation Energy    =      -3.5593617779548476 [Eh]
	 SCS Total Energy          =    -889.9335075919550491 [Eh]
	-----------------------------------------------------------

  Dipole Moment: [D]
     X:     2.6932      Y:     5.7586      Z:     1.9081     Total:     6.6375

*** Psi4 exiting successfully. Buy a developer a beer!
