                               Psi4 1.4a3.dev225

  ==> Input File <==

--------------------------------------------------------------------------
#psi4
#
memory 32 gb

molecule  {
0 1
  O       -1.3191770     0.6538360    -1.0992360
  O       -1.5735610    -2.4640850     0.5135810
  O       -3.5606630    -1.0699430    -0.4600060
  O       -1.4399290     3.1254620     0.1265180
  O        1.1065530    -2.3833650     0.0076020
  N        0.7686360    -0.1579440    -0.3706350
  N        2.9363770    -0.9938720     0.1460080
  N        4.7058880     0.4431110     0.3611260
  C       -1.3768610    -1.0680440     0.5552780
  C       -2.7379840    -0.3746360     0.4578480
  C       -0.6377490    -0.5042940    -0.6790150
  C       -2.3707440     0.9655450    -0.1585060
  C       -1.8992030     1.9895750     0.8571380
  C        1.2309690     1.1190800    -0.4442230
  C        1.6104480    -1.2470590    -0.0585760
  C        2.5474650     1.3753690    -0.1998620
  C        3.3802090     0.2523040     0.0808410
  H       -0.8441360    -0.7686950     1.4698480
  H       -3.2257400    -0.2778790     1.4400230
  H       -0.6227070    -1.2428120    -1.4883720
  H       -3.1941750     1.3785730    -0.7472070
  H       -1.0952130     1.5703990     1.4802000
  H       -2.7410530     2.2466610     1.5166010
  H       -0.6710550    -2.8260740     0.3542250
  H       -3.3063470    -2.0105220    -0.3629290
  H        0.4929290     1.8778260    -0.6840360
  H       -1.2098800     3.8154810     0.7720340
  H        2.9334840     2.3875570    -0.2389120
  H        5.1500022     1.2548902     0.0063205
  H        5.2635310    -0.4031270     0.3606700
units angstrom
no_reorient  #important for SAPT in psi4, default
symmetry c1  #important for SAPT in psi4, default
}

set PROPERTIES_ORIGIN ["COM"]
properties('MP2/aug-cc-pvtz', properties = ['dipole'])
--------------------------------------------------------------------------

    Molecular point group: c1
  Charge       = 0
  Multiplicity = 1
  Basis Set: AUG-CC-PVTZ
    Blend: AUG-CC-PVTZ
  Basis Set: (AUG-CC-PVTZ AUX)
    Blend: AUG-CC-PVTZ-JKFIT

    Orbital Energies [Eh]
    ---------------------

    Doubly Occupied:

       1A    -20.586754     2A    -20.581446     3A    -20.559379
       4A    -20.556454     5A    -20.519756     6A    -15.633044
       7A    -15.597741     8A    -15.551790     9A    -11.385988
      10A    -11.358105    11A    -11.339628    12A    -11.325208
      13A    -11.303587    14A    -11.297963    15A    -11.297008
      16A    -11.293530    17A    -11.246637    18A     -1.429270
      19A     -1.394140    20A     -1.383054    21A     -1.375540
      22A     -1.346564    23A     -1.304200    24A     -1.272141
      25A     -1.182780    26A     -1.079468    27A     -1.068089
      28A     -1.017424    29A     -0.936825    30A     -0.906732
      31A     -0.877892    32A     -0.830340    33A     -0.812414
      34A     -0.767239    35A     -0.750721    36A     -0.735190
      37A     -0.723063    38A     -0.708059    39A     -0.703397
      40A     -0.687509    41A     -0.675143    42A     -0.653806
      43A     -0.649156    44A     -0.633515    45A     -0.620314
      46A     -0.615343    47A     -0.607876    48A     -0.593245
      49A     -0.577118    50A     -0.565049    51A     -0.555869
      52A     -0.548268    53A     -0.536722    54A     -0.531168
      55A     -0.495709    56A     -0.480831    57A     -0.473749
      58A     -0.463430    59A     -0.457998    60A     -0.453031
      61A     -0.442124    62A     -0.430315    63A     -0.392485
      64A     -0.348298

  @DF-RHF Final Energy:  -886.37454878993617

   => Energetics <=

    Nuclear Repulsion Energy =           1334.6919065373172089
    One-Electron Energy =               -3867.0796511125777215
    Two-Electron Energy =                1646.0131957853243421
    Total Energy =                       -886.3745487899361706
  Basis Set: (AUG-CC-PVTZ AUX)
    Blend: AUG-CC-PVTZ-RI
    Molecular point group: c1

    Geometry (in Angstrom), charge = 0, multiplicity = 1:

       Center              X                  Y                   Z               Mass
    ------------   -----------------  -----------------  -----------------  -----------------
         O           -1.331883495306     0.682515389328    -1.083485476304    15.994914619570
         O           -1.586267495306    -2.435405610672     0.529331523696    15.994914619570
         O           -3.573369495306    -1.041263610672    -0.444255476304    15.994914619570
         O           -1.452635495306     3.154141389328     0.142268523696    15.994914619570
         O            1.093846504694    -2.354685610672     0.023352523696    15.994914619570
         N            0.755929504694    -0.129264610672    -0.354884476304    14.003074004430
         N            2.923670504694    -0.965192610672     0.161758523696    14.003074004430
         N            4.693181504694     0.471790389328     0.376876523696    14.003074004430
         C           -1.389567495306    -1.039364610672     0.571028523696    12.000000000000
         C           -2.750690495306    -0.345956610672     0.473598523696    12.000000000000
         C           -0.650455495306    -0.475614610672    -0.663264476304    12.000000000000
         C           -2.383450495306     0.994224389328    -0.142755476304    12.000000000000
         C           -1.911909495306     2.018254389328     0.872888523696    12.000000000000
         C            1.218262504694     1.147759389328    -0.428472476304    12.000000000000
         C            1.597741504694    -1.218379610672    -0.042825476304    12.000000000000
         C            2.534758504694     1.404048389328    -0.184111476304    12.000000000000
         C            3.367502504694     0.280983389328     0.096591523696    12.000000000000
         H           -0.856842495306    -0.740015610672     1.485598523696     1.007825032230
         H           -3.238446495306    -0.249199610672     1.455773523696     1.007825032230
         H           -0.635413495306    -1.214132610672    -1.472621476304     1.007825032230
         H           -3.206881495306     1.407252389328    -0.731456476304     1.007825032230
         H           -1.107919495306     1.599078389328     1.495950523696     1.007825032230
         H           -2.753759495306     2.275340389328     1.532351523696     1.007825032230
         H           -0.683761495306    -2.797394610672     0.369975523696     1.007825032230
         H           -3.319053495306    -1.981842610672    -0.347178476304     1.007825032230
         H            0.480222504694     1.906505389328    -0.668285476304     1.007825032230
         H           -1.222586495306     3.844160389328     0.787784523696     1.007825032230
         H            2.920777504694     2.416236389328    -0.223161476304     1.007825032230
         H            5.137295704694     1.283569589328     0.022071023696     1.007825032230
         H            5.250824504694    -0.374447610672     0.376420523696     1.007825032230

  Basis Set: AUG-CC-PVTZ
    Blend: AUG-CC-PVTZ
  Basis Set: (AUG-CC-PVTZ AUX)
    Blend: AUG-CC-PVTZ-JKFIT
	 Reference Energy          =    -886.3745487899361706 [Eh]
	 Singles Energy            =      -0.0000000000000000 [Eh]
	 Same-Spin Energy          =      -0.9016987827537101 [Eh]
	 Opposite-Spin Energy      =      -2.7155875590705696 [Eh]
	 Correlation Energy        =      -3.6172863418242795 [Eh]
	 Total Energy              =    -889.9918351317604674 [Eh]

	 ================> DF-SCS-MP2 Energies <==================
	-----------------------------------------------------------
	 SCS Same-Spin Scale       =       0.3333333333333333 [-]
	 SCS Opposite-Spin Scale   =       1.2000000000000000 [-]
	 SCS Same-Spin Energy      =      -0.3005662609179033 [Eh]
	 SCS Opposite-Spin Energy  =      -3.2587050708846834 [Eh]
	 SCS Correlation Energy    =      -3.5592713318025866 [Eh]
	 SCS Total Energy          =    -889.9338201217387905 [Eh]
	-----------------------------------------------------------

  Dipole Moment: [D]
     X:     2.7214      Y:     5.7859      Z:     1.9517     Total:     6.6851

*** Psi4 exiting successfully. Buy a developer a beer!
