                               Psi4 1.3.2 release

  ==> Input File <==

--------------------------------------------------------------------------
#psi4
#
memory 32 gb

molecule  {
0 1
  O       -1.2481010    -0.6526680     1.0325150
  O       -1.2449750     2.4828510    -0.6861630
  O       -3.2165300     1.5210990     0.7448870
  O       -2.3570290    -3.0668370     0.0949400
  O        1.3605300     2.2470340    -0.0765420
  N        0.8434040     0.0452230     0.2559430
  N        3.0572260     0.7205030    -0.2937270
  N        4.7164630    -0.8366550    -0.5722980
  C       -1.2894840     1.0784300    -0.5920770
  C       -2.7151710     0.6552070    -0.2573930
  C       -0.5254080     0.4815200     0.6000940
  C       -2.5292560    -0.7168860     0.3610560
  C       -2.5283440    -1.8503930    -0.6392900
  C        1.2197750    -1.2614080     0.3112740
  C        1.7555940     1.0674350    -0.0594030
  C        2.5111010    -1.6091400     0.0469950
  C        3.4119830    -0.5506530    -0.2589250
  H       -0.9376060     0.5914040    -1.5148910
  H       -3.3625820     0.6426650    -1.1464650
  H       -0.4247603     1.3569584     1.5506699
  H       -3.2819570    -0.9087340     1.1307830
  H       -1.7133080    -1.7003050    -1.3694640
  H       -3.4855610    -1.8340040    -1.1841350
  H       -0.2975250     2.7131790    -0.5250000
  H       -2.8475560     2.3997430     0.5086630
  H        0.4343110    -1.9634370     0.5690680
  H       -2.4338740    -3.7984320    -0.5432330
  H        2.8291120    -2.6453980     0.0739220
  H        5.1251800    -1.6708610    -0.1624140
  H        5.3198140    -0.0200540    -0.5682940
units angstrom
no_reorient  #important for SAPT in psi4, default
symmetry c1  #important for SAPT in psi4, default
}

set PROPERTIES_ORIGIN ["COM"]
properties('MP2/aug-cc-pvtz', properties = ['dipole'])
--------------------------------------------------------------------------

    Molecular point group: c1
  Charge       = 0
  Multiplicity = 1
  Basis Set: AUG-CC-PVTZ
    Blend: AUG-CC-PVTZ
  Basis Set: (AUG-CC-PVTZ AUX)
    Blend: AUG-CC-PVTZ-JKFIT

    Orbital Energies [Eh]
    ---------------------

    Doubly Occupied:

       1A    -20.584457     2A    -20.582843     3A    -20.557038
       4A    -20.556734     5A    -20.521621     6A    -15.638843
       7A    -15.600082     8A    -15.553524     9A    -11.388074
      10A    -11.360911    11A    -11.358105    12A    -11.329094
      13A    -11.301978    14A    -11.298597    15A    -11.297848
      16A    -11.293413    17A    -11.249232    18A     -1.429920
      19A     -1.396440    20A     -1.380004    21A     -1.373335
      22A     -1.345704    23A     -1.306256    24A     -1.274236
      25A     -1.182309    26A     -1.081061    27A     -1.068492
      28A     -1.019188    29A     -0.932250    30A     -0.910088
      31A     -0.877568    32A     -0.823999    33A     -0.812495
      34A     -0.766459    35A     -0.752629    36A     -0.727520
      37A     -0.720465    38A     -0.703195    39A     -0.698635
      40A     -0.684923    41A     -0.672230    42A     -0.651848
      43A     -0.646727    44A     -0.636847    45A     -0.619714
      46A     -0.614952    47A     -0.605684    48A     -0.593463
      49A     -0.576238    50A     -0.564533    51A     -0.552917
      52A     -0.545023    53A     -0.537755    54A     -0.523880
      55A     -0.497000    56A     -0.477831    57A     -0.474889
      58A     -0.461045    59A     -0.459501    60A     -0.453148
      61A     -0.437885    62A     -0.430633    63A     -0.393134
      64A     -0.349726

  @DF-RHF Final Energy:  -886.35173446685644

   => Energetics <=

    Nuclear Repulsion Energy =           1322.4799292714717467
    One-Electron Energy =               -3842.6309950086338176
    Two-Electron Energy =                1633.7993312703054016
    Total Energy =                       -886.3517344668564419
  Basis Set: (AUG-CC-PVTZ AUX)
    Blend: AUG-CC-PVTZ-RI
    Molecular point group: c1

    Geometry (in Angstrom), charge = 0, multiplicity = 1:

       Center              X                  Y                   Z               Mass
    ------------   -----------------  -----------------  -----------------  -----------------
         O           -1.248165419591    -0.653228020720     1.031906910330    15.994914619570
         O           -1.245039419591     2.482290979280    -0.686771089670    15.994914619570
         O           -3.216594419591     1.520538979280     0.744278910330    15.994914619570
         O           -2.357093419591    -3.067397020720     0.094331910330    15.994914619570
         O            1.360465580409     2.246473979280    -0.077150089670    15.994914619570
         N            0.843339580409     0.044662979280     0.255334910330    14.003074004430
         N            3.057161580409     0.719942979280    -0.294335089670    14.003074004430
         N            4.716398580409    -0.837215020720    -0.572906089670    14.003074004430
         C           -1.289548419591     1.077869979280    -0.592685089670    12.000000000000
         C           -2.715235419591     0.654646979280    -0.258001089670    12.000000000000
         C           -0.525472419591     0.480959979280     0.599485910330    12.000000000000
         C           -2.529320419591    -0.717446020720     0.360447910330    12.000000000000
         C           -2.528408419591    -1.850953020720    -0.639898089670    12.000000000000
         C            1.219710580409    -1.261968020720     0.310665910330    12.000000000000
         C            1.755529580409     1.066874979280    -0.060011089670    12.000000000000
         C            2.511036580409    -1.609700020720     0.046386910330    12.000000000000
         C            3.411918580409    -0.551213020720    -0.259533089670    12.000000000000
         H           -0.937670419591     0.590843979280    -1.515499089670     1.007825032230
         H           -3.362646419591     0.642104979280    -1.147073089670     1.007825032230
         H           -0.424824719591     1.356398379280     1.550061810330     1.007825032230
         H           -3.282021419591    -0.909294020720     1.130174910330     1.007825032230
         H           -1.713372419591    -1.700865020720    -1.370072089670     1.007825032230
         H           -3.485625419591    -1.834564020720    -1.184743089670     1.007825032230
         H           -0.297589419591     2.712618979280    -0.525608089670     1.007825032230
         H           -2.847620419591     2.399182979280     0.508054910330     1.007825032230
         H            0.434246580409    -1.963997020720     0.568459910330     1.007825032230
         H           -2.433938419591    -3.798992020720    -0.543841089670     1.007825032230
         H            2.829047580409    -2.645958020720     0.073313910330     1.007825032230
         H            5.125115580409    -1.671421020720    -0.163022089670     1.007825032230
         H            5.319749580409    -0.020614020720    -0.568902089670     1.007825032230

  Basis Set: AUG-CC-PVTZ
    Blend: AUG-CC-PVTZ
  Basis Set: (AUG-CC-PVTZ AUX)
    Blend: AUG-CC-PVTZ-JKFIT
	 Reference Energy          =    -886.3517344668564419 [Eh]
	 Singles Energy            =      -0.0000000000000000 [Eh]
	 Same-Spin Energy          =      -0.9022821564544483 [Eh]
	 Opposite-Spin Energy      =      -2.7177697502089724 [Eh]
	 Correlation Energy        =      -3.6200519066634209 [Eh]
	 Total Energy              =    -889.9717863735198762 [Eh]

	 ================> DF-SCS-MP2 Energies <==================
	-----------------------------------------------------------
	 SCS Same-Spin Scale       =       0.3333333333333333 [-]
	 SCS Opposite-Spin Scale   =       1.2000000000000000 [-]
	 SCS Same-Spin Energy      =      -0.3007607188181494 [Eh]
	 SCS Opposite-Spin Energy  =      -3.2613237002507667 [Eh]
	 SCS Correlation Energy    =      -3.5620844190689160 [Eh]
	 SCS Total Energy          =    -889.9138188859253660 [Eh]
	-----------------------------------------------------------

  Dipole Moment: [D]
     X:     1.7003      Y:    -6.0194      Z:    -1.8707     Total:     6.5287

*** Psi4 exiting successfully. Buy a developer a beer!
