                               Psi4 1.3.2 release

  ==> Input File <==

--------------------------------------------------------------------------
#psi4
#
memory 32 gb

molecule  {
0 1
  O       -1.2481010    -0.6526680     1.0325150
  O       -1.2449750     2.4828510    -0.6861630
  O       -3.2147858     1.4640930     0.7922658
  O       -2.3570290    -3.0668370     0.0949400
  O        1.3605300     2.2470340    -0.0765420
  N        0.8434040     0.0452230     0.2559430
  N        3.0572260     0.7205030    -0.2937270
  N        4.7164630    -0.8366550    -0.5722980
  C       -1.2894840     1.0784300    -0.5920770
  C       -2.7151710     0.6552070    -0.2573930
  C       -0.5254080     0.4815200     0.6000940
  C       -2.5558929    -0.6872473     0.4297240
  C       -2.5283440    -1.8503930    -0.6392900
  C        1.2197750    -1.2614080     0.3112740
  C        1.7555940     1.0674350    -0.0594030
  C        2.5111010    -1.6091400     0.0469950
  C        3.4119830    -0.5506530    -0.2589250
  H       -0.9376060     0.5914040    -1.5148910
  H       -3.3625820     0.6426650    -1.1464650
  H       -0.4402900     1.2218800     1.4039980
  H       -3.2819570    -0.9087340     1.1307830
  H       -1.7133080    -1.7003050    -1.3694640
  H       -3.4855610    -1.8340040    -1.1841350
  H       -0.2975250     2.7131790    -0.5250000
  H       -2.8475560     2.3997430     0.5086630
  H        0.4343110    -1.9634370     0.5690680
  H       -2.4338740    -3.7984320    -0.5432330
  H        2.8291120    -2.6453980     0.0739220
  H        5.1251800    -1.6708610    -0.1624140
  H        5.3198140    -0.0200540    -0.5682940
units angstrom
no_reorient  #important for SAPT in psi4, default
symmetry c1  #important for SAPT in psi4, default
}

set PROPERTIES_ORIGIN ["COM"]
properties('MP2/aug-cc-pvtz', properties = ['dipole'])
--------------------------------------------------------------------------

    Molecular point group: c1
  Charge       = 0
  Multiplicity = 1
  Basis Set: AUG-CC-PVTZ
    Blend: AUG-CC-PVTZ
  Basis Set: (AUG-CC-PVTZ AUX)
    Blend: AUG-CC-PVTZ-JKFIT

    Orbital Energies [Eh]
    ---------------------

    Doubly Occupied:

       1A    -20.581260     2A    -20.578705     3A    -20.562935
       4A    -20.559417     5A    -20.522413     6A    -15.637465
       7A    -15.599973     8A    -15.553575     9A    -11.388694
      10A    -11.358027    11A    -11.342249    12A    -11.328601
      13A    -11.298711    14A    -11.297488    15A    -11.293816
      16A    -11.291369    17A    -11.248603    18A     -1.429654
      19A     -1.396572    20A     -1.376836    21A     -1.369625
      22A     -1.342613    23A     -1.306343    24A     -1.274062
      25A     -1.182459    26A     -1.082054    27A     -1.057246
      28A     -1.019094    29A     -0.929218    30A     -0.909077
      31A     -0.876995    32A     -0.834772    33A     -0.813480
      34A     -0.767566    35A     -0.752864    36A     -0.736696
      37A     -0.719901    38A     -0.701212    39A     -0.691971
      40A     -0.685593    41A     -0.665756    42A     -0.654585
      43A     -0.649478    44A     -0.638955    45A     -0.620359
      46A     -0.612799    47A     -0.604328    48A     -0.593761
      49A     -0.580277    50A     -0.573373    51A     -0.551864
      52A     -0.543151    53A     -0.539300    54A     -0.526653
      55A     -0.499398    56A     -0.480077    57A     -0.473704
      58A     -0.460741    59A     -0.455876    60A     -0.451478
      61A     -0.437143    62A     -0.431294    63A     -0.395207
      64A     -0.350185

  @DF-RHF Final Energy:  -886.35789702471482

   => Energetics <=

    Nuclear Repulsion Energy =           1323.2063952567095839
    One-Electron Energy =               -3844.1506897498748003
    Two-Electron Energy =                1634.5863974684502864
    Total Energy =                       -886.3578970247149300
  Basis Set: (AUG-CC-PVTZ AUX)
    Blend: AUG-CC-PVTZ-RI
    Molecular point group: c1

    Geometry (in Angstrom), charge = 0, multiplicity = 1:

       Center              X                  Y                   Z               Mass
    ------------   -----------------  -----------------  -----------------  -----------------
         O           -1.246900861794    -0.650380146054     1.026007685048    15.994914619570
         O           -1.243774861794     2.485138853946    -0.692670314952    15.994914619570
         O           -3.213585661794     1.466380853946     0.785758485048    15.994914619570
         O           -2.355828861794    -3.064549146054     0.088432685048    15.994914619570
         O            1.361730138206     2.249321853946    -0.083049314952    15.994914619570
         N            0.844604138206     0.047510853946     0.249435685048    14.003074004430
         N            3.058426138206     0.722790853946    -0.300234314952    14.003074004430
         N            4.717663138206    -0.834367146054    -0.578805314952    14.003074004430
         C           -1.288283861794     1.080717853946    -0.598584314952    12.000000000000
         C           -2.713970861794     0.657494853946    -0.263900314952    12.000000000000
         C           -0.524207861794     0.483807853946     0.593586685048    12.000000000000
         C           -2.554692761794    -0.684959446054     0.423216685048    12.000000000000
         C           -2.527143861794    -1.848105146054    -0.645797314952    12.000000000000
         C            1.220975138206    -1.259120146054     0.304766685048    12.000000000000
         C            1.756794138206     1.069722853946    -0.065910314952    12.000000000000
         C            2.512301138206    -1.606852146054     0.040487685048    12.000000000000
         C            3.413183138206    -0.548365146054    -0.265432314952    12.000000000000
         H           -0.936405861794     0.593691853946    -1.521398314952     1.007825032230
         H           -3.361381861794     0.644952853946    -1.152972314952     1.007825032230
         H           -0.439089861794     1.224167853946     1.397490685048     1.007825032230
         H           -3.280756861794    -0.906446146054     1.124275685048     1.007825032230
         H           -1.712107861794    -1.698017146054    -1.375971314952     1.007825032230
         H           -3.484360861794    -1.831716146054    -1.190642314952     1.007825032230
         H           -0.296324861794     2.715466853946    -0.531507314952     1.007825032230
         H           -2.846355861794     2.402030853946     0.502155685048     1.007825032230
         H            0.435511138206    -1.961149146054     0.562560685048     1.007825032230
         H           -2.432673861794    -3.796144146054    -0.549740314952     1.007825032230
         H            2.830312138206    -2.643110146054     0.067414685048     1.007825032230
         H            5.126380138206    -1.668573146054    -0.168921314952     1.007825032230
         H            5.321014138206    -0.017766146054    -0.574801314952     1.007825032230

  Basis Set: AUG-CC-PVTZ
    Blend: AUG-CC-PVTZ
  Basis Set: (AUG-CC-PVTZ AUX)
    Blend: AUG-CC-PVTZ-JKFIT
	 Reference Energy          =    -886.3578970247148163 [Eh]
	 Singles Energy            =      -0.0000000000000000 [Eh]
	 Same-Spin Energy          =      -0.9019187526400608 [Eh]
	 Opposite-Spin Energy      =      -2.7173249909458312 [Eh]
	 Correlation Energy        =      -3.6192437435858920 [Eh]
	 Total Energy              =    -889.9771407683007283 [Eh]

	 ================> DF-SCS-MP2 Energies <==================
	-----------------------------------------------------------
	 SCS Same-Spin Scale       =       0.3333333333333333 [-]
	 SCS Opposite-Spin Scale   =       1.2000000000000000 [-]
	 SCS Same-Spin Energy      =      -0.3006395842133536 [Eh]
	 SCS Opposite-Spin Energy  =      -3.2607899891349974 [Eh]
	 SCS Correlation Energy    =      -3.5614295733483510 [Eh]
	 SCS Total Energy          =    -889.9193265980632077 [Eh]
	-----------------------------------------------------------

  Dipole Moment: [D]
     X:     1.7236      Y:    -5.7655      Z:    -1.7917     Total:     6.2787

*** Psi4 exiting successfully. Buy a developer a beer!
