                               Psi4 1.4a3.dev225

  ==> Input File <==

--------------------------------------------------------------------------
#psi4
#
memory 32 gb

molecule  {
0 1
  O       -1.3191770     0.6538360    -1.0992360
  O       -1.5735610    -2.4640850     0.5135810
  O       -3.5606630    -1.0699430    -0.4600060
  O       -1.4399290     3.1254620     0.1265180
  O        1.1065530    -2.3833650     0.0076020
  N        0.7686360    -0.1579440    -0.3706350
  N        2.9363770    -0.9938720     0.1460080
  N        4.7058880     0.4431110     0.3611260
  C       -1.3768610    -1.0680440     0.5552780
  C       -2.7379840    -0.3746360     0.4578480
  C       -0.6377490    -0.5042940    -0.6790150
  C       -2.3707440     0.9655450    -0.1585060
  C       -1.9054181     1.9760779     0.8437514
  C        1.2309690     1.1190800    -0.4442230
  C        1.6104480    -1.2470590    -0.0585760
  C        2.5474650     1.3753690    -0.1998620
  C        3.3802090     0.2523040     0.0808410
  H       -0.8441360    -0.7686950     1.4698480
  H       -3.2257400    -0.2778790     1.4400230
  H       -0.6227070    -1.2428120    -1.4883720
  H       -3.1941750     1.3785730    -0.7472070
  H       -1.0952130     1.5703990     1.4802000
  H       -2.7410530     2.2466610     1.5166010
  H       -0.6710550    -2.8260740     0.3542250
  H       -3.3063470    -2.0105220    -0.3629290
  H        0.4929290     1.8778260    -0.6840360
  H       -1.2098800     3.8154810     0.7720340
  H        2.9334840     2.3875570    -0.2389120
  H        5.1589650     1.2712730    -0.0008400
  H        5.2635310    -0.4031270     0.3606700
units angstrom
no_reorient  #important for SAPT in psi4, default
symmetry c1  #important for SAPT in psi4, default
}

set PROPERTIES_ORIGIN ["COM"]
properties('MP2/aug-cc-pvtz', properties = ['dipole'])
--------------------------------------------------------------------------

    Molecular point group: c1
  Charge       = 0
  Multiplicity = 1
  Basis Set: AUG-CC-PVTZ
    Blend: AUG-CC-PVTZ
  Basis Set: (AUG-CC-PVTZ AUX)
    Blend: AUG-CC-PVTZ-JKFIT

    Orbital Energies [Eh]
    ---------------------

    Doubly Occupied:

       1A    -20.585615     2A    -20.581591     3A    -20.559512
       4A    -20.556763     5A    -20.519733     6A    -15.632973
       7A    -15.599640     8A    -15.551733     9A    -11.385966
      10A    -11.358034    11A    -11.339749    12A    -11.325053
      13A    -11.304362    14A    -11.297525    15A    -11.297172
      16A    -11.294047    17A    -11.246496    18A     -1.429613
      19A     -1.393949    20A     -1.381631    21A     -1.374665
      22A     -1.346795    23A     -1.303653    24A     -1.271356
      25A     -1.181192    26A     -1.079501    27A     -1.070774
      28A     -1.018378    29A     -0.936727    30A     -0.906529
      31A     -0.876622    32A     -0.830311    33A     -0.812615
      34A     -0.766474    35A     -0.750356    36A     -0.735328
      37A     -0.721856    38A     -0.707366    39A     -0.703990
      40A     -0.684906    41A     -0.675588    42A     -0.652282
      43A     -0.649202    44A     -0.633478    45A     -0.620374
      46A     -0.614926    47A     -0.608259    48A     -0.593173
      49A     -0.576381    50A     -0.564631    51A     -0.554969
      52A     -0.549227    53A     -0.536877    54A     -0.531441
      55A     -0.495735    56A     -0.479472    57A     -0.473473
      58A     -0.464924    59A     -0.458034    60A     -0.453602
      61A     -0.442422    62A     -0.430408    63A     -0.392259
      64A     -0.348216

  @DF-RHF Final Energy:  -886.37367689966538

   => Energetics <=

    Nuclear Repulsion Energy =           1334.9067843667862689
    One-Electron Energy =               -3867.5211156383679736
    Two-Electron Energy =                1646.2406543719164347
    Total Energy =                       -886.3736768996652700
  Basis Set: (AUG-CC-PVTZ AUX)
    Blend: AUG-CC-PVTZ-RI
    Molecular point group: c1

    Geometry (in Angstrom), charge = 0, multiplicity = 1:

       Center              X                  Y                   Z               Mass
    ------------   -----------------  -----------------  -----------------  -----------------
         O           -1.331613844256     0.683113755712    -1.082794954998    15.994914619570
         O           -1.585997844256    -2.434807244288     0.530022045002    15.994914619570
         O           -3.573099844256    -1.040665244288    -0.443564954998    15.994914619570
         O           -1.452365844256     3.154739755712     0.142959045002    15.994914619570
         O            1.094116155744    -2.354087244288     0.024043045002    15.994914619570
         N            0.756199155744    -0.128666244288    -0.354193954998    14.003074004430
         N            2.923940155744    -0.964594244288     0.162449045002    14.003074004430
         N            4.693451155744     0.472388755712     0.377567045002    14.003074004430
         C           -1.389297844256    -1.038766244288     0.571719045002    12.000000000000
         C           -2.750420844256    -0.345358244288     0.474289045002    12.000000000000
         C           -0.650185844256    -0.475016244288    -0.662573954998    12.000000000000
         C           -2.383180844256     0.994822755712    -0.142064954998    12.000000000000
         C           -1.917854944256     2.005355655712     0.860192445002    12.000000000000
         C            1.218532155744     1.148357755712    -0.427781954998    12.000000000000
         C            1.598011155744    -1.217781244288    -0.042134954998    12.000000000000
         C            2.535028155744     1.404646755712    -0.183420954998    12.000000000000
         C            3.367772155744     0.281581755712     0.097282045002    12.000000000000
         H           -0.856572844256    -0.739417244288     1.486289045002     1.007825032230
         H           -3.238176844256    -0.248601244288     1.456464045002     1.007825032230
         H           -0.635143844256    -1.213534244288    -1.471930954998     1.007825032230
         H           -3.206611844256     1.407850755712    -0.730765954998     1.007825032230
         H           -1.107649844256     1.599676755712     1.496641045002     1.007825032230
         H           -2.753489844256     2.275938755712     1.533042045002     1.007825032230
         H           -0.683491844256    -2.796796244288     0.370666045002     1.007825032230
         H           -3.318783844256    -1.981244244288    -0.346487954998     1.007825032230
         H            0.480492155744     1.907103755712    -0.667594954998     1.007825032230
         H           -1.222316844256     3.844758755712     0.788475045002     1.007825032230
         H            2.921047155744     2.416834755712    -0.222470954998     1.007825032230
         H            5.146528155744     1.300550755712     0.015601045002     1.007825032230
         H            5.251094155744    -0.373849244288     0.377111045002     1.007825032230

  Basis Set: AUG-CC-PVTZ
    Blend: AUG-CC-PVTZ
  Basis Set: (AUG-CC-PVTZ AUX)
    Blend: AUG-CC-PVTZ-JKFIT
	 Reference Energy          =    -886.3736768996653836 [Eh]
	 Singles Energy            =      -0.0000000000000000 [Eh]
	 Same-Spin Energy          =      -0.9019171952896468 [Eh]
	 Opposite-Spin Energy      =      -2.7160178898226204 [Eh]
	 Correlation Energy        =      -3.6179350851122671 [Eh]
	 Total Energy              =    -889.9916119847777054 [Eh]

	 ================> DF-SCS-MP2 Energies <==================
	-----------------------------------------------------------
	 SCS Same-Spin Scale       =       0.3333333333333333 [-]
	 SCS Opposite-Spin Scale   =       1.2000000000000000 [-]
	 SCS Same-Spin Energy      =      -0.3006390650965489 [Eh]
	 SCS Opposite-Spin Energy  =      -3.2592214677871443 [Eh]
	 SCS Correlation Energy    =      -3.5598605328836932 [Eh]
	 SCS Total Energy          =    -889.9335374325490875 [Eh]
	-----------------------------------------------------------

  Dipole Moment: [D]
     X:     2.7232      Y:     5.7709      Z:     1.9500     Total:     6.6725

*** Psi4 exiting successfully. Buy a developer a beer!
