                               Psi4 1.3.2 release

  ==> Input File <==

--------------------------------------------------------------------------
#psi4
#
memory 32 gb

molecule  {
0 1
  O       -1.2481010    -0.6526680     1.0325150
  O       -1.2449750     2.4828510    -0.6861630
  O       -3.2165300     1.5210990     0.7448870
  O       -2.3570290    -3.0668370     0.0949400
  O        1.3605300     2.2470340    -0.0765420
  N        0.8434040     0.0452230     0.2559430
  N        3.0572260     0.7205030    -0.2937270
  N        4.7164630    -0.8366550    -0.5722980
  C       -1.2861389     1.0770780    -0.5792730
  C       -2.7151710     0.6552070    -0.2573930
  C       -0.5254080     0.4815200     0.6000940
  C       -2.5292560    -0.7168860     0.3610560
  C       -2.5283440    -1.8503930    -0.6392900
  C        1.2197750    -1.2614080     0.3112740
  C        1.7555940     1.0674350    -0.0594030
  C        2.5111010    -1.6091400     0.0469950
  C        3.4119830    -0.5506530    -0.2589250
  H       -0.9376060     0.5914040    -1.5148910
  H       -3.3699520     0.6398338    -1.1410065
  H       -0.4402900     1.2218800     1.4039980
  H       -3.2819570    -0.9087340     1.1307830
  H       -1.7133080    -1.7003050    -1.3694640
  H       -3.4855610    -1.8340040    -1.1841350
  H       -0.2975250     2.7131790    -0.5250000
  H       -2.8475560     2.3997430     0.5086630
  H        0.4343110    -1.9634370     0.5690680
  H       -2.4338740    -3.7984320    -0.5432330
  H        2.8291120    -2.6453980     0.0739220
  H        5.1251800    -1.6708610    -0.1624140
  H        5.3198140    -0.0200540    -0.5682940
units angstrom
no_reorient  #important for SAPT in psi4, default
symmetry c1  #important for SAPT in psi4, default
}

set PROPERTIES_ORIGIN ["COM"]
properties('MP2/aug-cc-pvtz', properties = ['dipole'])
--------------------------------------------------------------------------

    Molecular point group: c1
  Charge       = 0
  Multiplicity = 1
  Basis Set: AUG-CC-PVTZ
    Blend: AUG-CC-PVTZ
  Basis Set: (AUG-CC-PVTZ AUX)
    Blend: AUG-CC-PVTZ-JKFIT

    Orbital Energies [Eh]
    ---------------------

    Doubly Occupied:

       1A    -20.582232     2A    -20.581824     3A    -20.557461
       4A    -20.557247     5A    -20.522112     6A    -15.637136
       7A    -15.599951     8A    -15.553450     9A    -11.388409
      10A    -11.357984    11A    -11.341652    12A    -11.328700
      13A    -11.301143    14A    -11.296875    15A    -11.296821
      16A    -11.293015    17A    -11.248696    18A     -1.429844
      19A     -1.396563    20A     -1.379895    21A     -1.372776
      22A     -1.345972    23A     -1.306196    24A     -1.273985
      25A     -1.182393    26A     -1.082446    27A     -1.067766
      28A     -1.022711    29A     -0.935641    30A     -0.909634
      31A     -0.877514    32A     -0.831762    33A     -0.812443
      34A     -0.767087    35A     -0.752860    36A     -0.736095
      37A     -0.720298    38A     -0.703058    39A     -0.697744
      40A     -0.685781    41A     -0.672389    42A     -0.654601
      43A     -0.651498    44A     -0.638667    45A     -0.620736
      46A     -0.614263    47A     -0.606615    48A     -0.594136
      49A     -0.576030    50A     -0.569807    51A     -0.554148
      52A     -0.545518    53A     -0.537675    54A     -0.531841
      55A     -0.498101    56A     -0.477731    57A     -0.473696
      58A     -0.462349    59A     -0.460190    60A     -0.452292
      61A     -0.441725    62A     -0.433236    63A     -0.395511
      64A     -0.350314

  @DF-RHF Final Energy:  -886.37313163503677

   => Energetics <=

    Nuclear Repulsion Energy =           1323.9167927510704885
    One-Electron Energy =               -3845.4833696890545980
    Two-Electron Energy =                1635.1934453029471115
    Total Energy =                       -886.3731316350367706
  Basis Set: (AUG-CC-PVTZ AUX)
    Blend: AUG-CC-PVTZ-RI
    Molecular point group: c1

    Geometry (in Angstrom), charge = 0, multiplicity = 1:

       Center              X                  Y                   Z               Mass
    ------------   -----------------  -----------------  -----------------  -----------------
         O           -1.248235610152    -0.652589509851     1.031860302862    15.994914619570
         O           -1.245109610152     2.482929490149    -0.686817697138    15.994914619570
         O           -3.216664610152     1.521177490149     0.744232302862    15.994914619570
         O           -2.357163610152    -3.066758509851     0.094285302862    15.994914619570
         O            1.360395389848     2.247112490149    -0.077196697138    15.994914619570
         N            0.843269389848     0.045301490149     0.255288302862    14.003074004430
         N            3.057091389848     0.720581490149    -0.294381697138    14.003074004430
         N            4.716328389848    -0.836576509851    -0.572952697138    14.003074004430
         C           -1.286273510152     1.077156490149    -0.579927697138    12.000000000000
         C           -2.715305610152     0.655285490149    -0.258047697138    12.000000000000
         C           -0.525542610152     0.481598490149     0.599439302862    12.000000000000
         C           -2.529390610152    -0.716807509851     0.360401302862    12.000000000000
         C           -2.528478610152    -1.850314509851    -0.639944697138    12.000000000000
         C            1.219640389848    -1.261329509851     0.310619302862    12.000000000000
         C            1.755459389848     1.067513490149    -0.060057697138    12.000000000000
         C            2.510966389848    -1.609061509851     0.046340302862    12.000000000000
         C            3.411848389848    -0.550574509851    -0.259579697138    12.000000000000
         H           -0.937740610152     0.591482490149    -1.515545697138     1.007825032230
         H           -3.370086610152     0.639912290149    -1.141661197138     1.007825032230
         H           -0.440424610152     1.221958490149     1.403343302862     1.007825032230
         H           -3.282091610152    -0.908655509851     1.130128302862     1.007825032230
         H           -1.713442610152    -1.700226509851    -1.370118697138     1.007825032230
         H           -3.485695610152    -1.833925509851    -1.184789697138     1.007825032230
         H           -0.297659610152     2.713257490149    -0.525654697138     1.007825032230
         H           -2.847690610152     2.399821490149     0.508008302862     1.007825032230
         H            0.434176389848    -1.963358509851     0.568413302862     1.007825032230
         H           -2.434008610152    -3.798353509851    -0.543887697138     1.007825032230
         H            2.828977389848    -2.645319509851     0.073267302862     1.007825032230
         H            5.125045389848    -1.670782509851    -0.163068697138     1.007825032230
         H            5.319679389848    -0.019975509851    -0.568948697138     1.007825032230

  Basis Set: AUG-CC-PVTZ
    Blend: AUG-CC-PVTZ
  Basis Set: (AUG-CC-PVTZ AUX)
    Blend: AUG-CC-PVTZ-JKFIT
	 Reference Energy          =    -886.3731316350367706 [Eh]
	 Singles Energy            =      -0.0000000000000000 [Eh]
	 Same-Spin Energy          =      -0.9013013270413763 [Eh]
	 Opposite-Spin Energy      =      -2.7150353771535336 [Eh]
	 Correlation Energy        =      -3.6163367041949099 [Eh]
	 Total Energy              =    -889.9894683392317347 [Eh]

	 ================> DF-SCS-MP2 Energies <==================
	-----------------------------------------------------------
	 SCS Same-Spin Scale       =       0.3333333333333333 [-]
	 SCS Opposite-Spin Scale   =       1.2000000000000000 [-]
	 SCS Same-Spin Energy      =      -0.3004337756804588 [Eh]
	 SCS Opposite-Spin Energy  =      -3.2580424525842404 [Eh]
	 SCS Correlation Energy    =      -3.5584762282646993 [Eh]
	 SCS Total Energy          =    -889.9316078633014513 [Eh]
	-----------------------------------------------------------

  Dipole Moment: [D]
     X:     1.7170      Y:    -5.9575      Z:    -1.8109     Total:     6.4590

*** Psi4 exiting successfully. Buy a developer a beer!
