                               Psi4 1.3.2 release

  ==> Input File <==

--------------------------------------------------------------------------
#psi4
#
memory 32 gb

molecule  {
0 1
  O       -1.2481010    -0.6526680     1.0325150
  O       -1.2449750     2.4828510    -0.6861630
  O       -3.2165300     1.5210990     0.7448870
  O       -2.3570290    -3.0668370     0.0949400
  O        1.3605300     2.2470340    -0.0765420
  N        0.8434040     0.0452230     0.2559430
  N        3.0572260     0.7205030    -0.2937270
  N        4.7164630    -0.8366550    -0.5722980
  C       -1.2894840     1.0784300    -0.5920770
  C       -2.7151710     0.6552070    -0.2573930
  C       -0.5254080     0.4815200     0.6000940
  C       -2.5292560    -0.7168860     0.3610560
  C       -2.5283440    -1.8503930    -0.6392900
  C        1.2197750    -1.2614080     0.3112740
  C        1.8191032     0.8778064    -0.0566478
  C        2.5111010    -1.6091400     0.0469950
  C        3.4119830    -0.5506530    -0.2589250
  H       -0.9376060     0.5914040    -1.5148910
  H       -3.3625820     0.6426650    -1.1464650
  H       -0.4402900     1.2218800     1.4039980
  H       -3.2819570    -0.9087340     1.1307830
  H       -1.7133080    -1.7003050    -1.3694640
  H       -3.4855610    -1.8340040    -1.1841350
  H       -0.2975250     2.7131790    -0.5250000
  H       -2.8475560     2.3997430     0.5086630
  H        0.4343110    -1.9634370     0.5690680
  H       -2.4338740    -3.7984320    -0.5432330
  H        2.8291120    -2.6453980     0.0739220
  H        5.1251800    -1.6708610    -0.1624140
  H        5.3198140    -0.0200540    -0.5682940
units angstrom
no_reorient  #important for SAPT in psi4, default
symmetry c1  #important for SAPT in psi4, default
}

set PROPERTIES_ORIGIN ["COM"]
properties('MP2/aug-cc-pvtz', properties = ['dipole'])
--------------------------------------------------------------------------

    Molecular point group: c1
  Charge       = 0
  Multiplicity = 1
  Basis Set: AUG-CC-PVTZ
    Blend: AUG-CC-PVTZ
  Basis Set: (AUG-CC-PVTZ AUX)
    Blend: AUG-CC-PVTZ-JKFIT

    Orbital Energies [Eh]
    ---------------------

    Doubly Occupied:

       1A    -20.585110     2A    -20.584193     3A    -20.554974
       4A    -20.544509     5A    -20.470560     6A    -15.655500
       7A    -15.614487     8A    -15.572075     9A    -11.374835
      10A    -11.374731    11A    -11.346981    12A    -11.340530
      13A    -11.302692    14A    -11.298034    15A    -11.293979
      16A    -11.291226    17A    -11.266236    18A     -1.433041
      19A     -1.392456    20A     -1.378227    21A     -1.369792
      22A     -1.339944    23A     -1.304605    24A     -1.237986
      25A     -1.196850    26A     -1.091338    27A     -1.068124
      28A     -1.028226    29A     -0.942908    30A     -0.932613
      31A     -0.889090    32A     -0.840199    33A     -0.813115
      34A     -0.786786    35A     -0.760887    36A     -0.733712
      37A     -0.726863    38A     -0.703807    39A     -0.696957
      40A     -0.693448    41A     -0.675269    42A     -0.661754
      43A     -0.651436    44A     -0.640533    45A     -0.630167
      46A     -0.620356    47A     -0.607435    48A     -0.579080
      49A     -0.572684    50A     -0.558616    51A     -0.549704
      52A     -0.534427    53A     -0.529072    54A     -0.526438
      55A     -0.478680    56A     -0.476070    57A     -0.468496
      58A     -0.461872    59A     -0.458085    60A     -0.447259
      61A     -0.442035    62A     -0.402511    63A     -0.392567
      64A     -0.352691

  @DF-RHF Final Energy:  -886.31350038189157

   => Energetics <=

    Nuclear Repulsion Energy =           1324.7807211277790884
    One-Electron Energy =               -3847.0907113124048919
    Two-Electron Energy =                1635.9964898027342315
    Total Energy =                       -886.3135003818915720
  Basis Set: (AUG-CC-PVTZ AUX)
    Blend: AUG-CC-PVTZ-RI
    Molecular point group: c1

    Geometry (in Angstrom), charge = 0, multiplicity = 1:

       Center              X                  Y                   Z               Mass
    ------------   -----------------  -----------------  -----------------  -----------------
         O           -1.251236187352    -0.643306909057     1.032378996089    15.994914619570
         O           -1.248110187352     2.492212090943    -0.686299003911    15.994914619570
         O           -3.219665187352     1.530460090943     0.744750996089    15.994914619570
         O           -2.360164187352    -3.057475909057     0.094803996089    15.994914619570
         O            1.357394812648     2.256395090943    -0.076678003911    15.994914619570
         N            0.840268812648     0.054584090943     0.255806996089    14.003074004430
         N            3.054090812648     0.729864090943    -0.293863003911    14.003074004430
         N            4.713327812648    -0.827293909057    -0.572434003911    14.003074004430
         C           -1.292619187352     1.087791090943    -0.592213003911    12.000000000000
         C           -2.718306187352     0.664568090943    -0.257529003911    12.000000000000
         C           -0.528543187352     0.490881090943     0.599957996089    12.000000000000
         C           -2.532391187352    -0.707524909057     0.360919996089    12.000000000000
         C           -2.531479187352    -1.841031909057    -0.639426003911    12.000000000000
         C            1.216639812648    -1.252046909057     0.311137996089    12.000000000000
         C            1.815968012648     0.887167490943    -0.056783803911    12.000000000000
         C            2.507965812648    -1.599778909057     0.046858996089    12.000000000000
         C            3.408847812648    -0.541291909057    -0.259061003911    12.000000000000
         H           -0.940741187352     0.600765090943    -1.515027003911     1.007825032230
         H           -3.365717187352     0.652026090943    -1.146601003911     1.007825032230
         H           -0.443425187352     1.231241090943     1.403861996089     1.007825032230
         H           -3.285092187352    -0.899372909057     1.130646996089     1.007825032230
         H           -1.716443187352    -1.690943909057    -1.369600003911     1.007825032230
         H           -3.488696187352    -1.824642909057    -1.184271003911     1.007825032230
         H           -0.300660187352     2.722540090943    -0.525136003911     1.007825032230
         H           -2.850691187352     2.409104090943     0.508526996089     1.007825032230
         H            0.431175812648    -1.954075909057     0.568931996089     1.007825032230
         H           -2.437009187352    -3.789070909057    -0.543369003911     1.007825032230
         H            2.825976812648    -2.636036909057     0.073785996089     1.007825032230
         H            5.122044812648    -1.661499909057    -0.162550003911     1.007825032230
         H            5.316678812648    -0.010692909057    -0.568430003911     1.007825032230

  Basis Set: AUG-CC-PVTZ
    Blend: AUG-CC-PVTZ
  Basis Set: (AUG-CC-PVTZ AUX)
    Blend: AUG-CC-PVTZ-JKFIT
	 Reference Energy          =    -886.3135003818915720 [Eh]
	 Singles Energy            =      -0.0000000000000000 [Eh]
	 Same-Spin Energy          =      -0.9042460994195580 [Eh]
	 Opposite-Spin Energy      =      -2.7200109138859352 [Eh]
	 Correlation Energy        =      -3.6242570133054932 [Eh]
	 Total Energy              =    -889.9377573951970817 [Eh]

	 ================> DF-SCS-MP2 Energies <==================
	-----------------------------------------------------------
	 SCS Same-Spin Scale       =       0.3333333333333333 [-]
	 SCS Opposite-Spin Scale   =       1.2000000000000000 [-]
	 SCS Same-Spin Energy      =      -0.3014153664731860 [Eh]
	 SCS Opposite-Spin Energy  =      -3.2640130966631222 [Eh]
	 SCS Correlation Energy    =      -3.5654284631363082 [Eh]
	 SCS Total Energy          =    -889.8789288450278718 [Eh]
	-----------------------------------------------------------

  Dipole Moment: [D]
     X:     2.5596      Y:    -7.7864      Z:    -1.7981     Total:     8.3912

*** Psi4 exiting successfully. Buy a developer a beer!
