                               Psi4 1.3.2 release

  ==> Input File <==

--------------------------------------------------------------------------
#psi4
#
memory 32 gb

molecule  {
0 1
  O       -1.2481010    -0.6526680     1.0325150
  O       -1.2449750     2.4828510    -0.6861630
  O       -3.2165300     1.5210990     0.7448870
  O       -2.3570290    -3.0668370     0.0949400
  O        1.3605300     2.2470340    -0.0765420
  N        0.7992458     0.0321321     0.2675646
  N        3.0572260     0.7205030    -0.2937270
  N        4.7164630    -0.8366550    -0.5722980
  C       -1.2894840     1.0784300    -0.5920770
  C       -2.7151710     0.6552070    -0.2573930
  C       -0.5254080     0.4815200     0.6000940
  C       -2.5292560    -0.7168860     0.3610560
  C       -2.5283440    -1.8503930    -0.6392900
  C        1.2197750    -1.2614080     0.3112740
  C        1.7555940     1.0674350    -0.0594030
  C        2.5111010    -1.6091400     0.0469950
  C        3.4119830    -0.5506530    -0.2589250
  H       -0.9376060     0.5914040    -1.5148910
  H       -3.3625820     0.6426650    -1.1464650
  H       -0.4402900     1.2218800     1.4039980
  H       -3.2819570    -0.9087340     1.1307830
  H       -1.7133080    -1.7003050    -1.3694640
  H       -3.4855610    -1.8340040    -1.1841350
  H       -0.2975250     2.7131790    -0.5250000
  H       -2.8475560     2.3997430     0.5086630
  H        0.4101014    -1.9344359     0.5715012
  H       -2.4338740    -3.7984320    -0.5432330
  H        2.8291120    -2.6453980     0.0739220
  H        5.1251800    -1.6708610    -0.1624140
  H        5.3198140    -0.0200540    -0.5682940
units angstrom
no_reorient  #important for SAPT in psi4, default
symmetry c1  #important for SAPT in psi4, default
}

set PROPERTIES_ORIGIN ["COM"]
properties('MP2/aug-cc-pvtz', properties = ['dipole'])
--------------------------------------------------------------------------

    Molecular point group: c1
  Charge       = 0
  Multiplicity = 1
  Basis Set: AUG-CC-PVTZ
    Blend: AUG-CC-PVTZ
  Basis Set: (AUG-CC-PVTZ AUX)
    Blend: AUG-CC-PVTZ-JKFIT

    Orbital Energies [Eh]
    ---------------------

    Doubly Occupied:

       1A    -20.581578     2A    -20.579679     3A    -20.557312
       4A    -20.557271     5A    -20.526045     6A    -15.636207
       7A    -15.601198     8A    -15.555513     9A    -11.393018
      10A    -11.359653    11A    -11.338162    12A    -11.328615
      13A    -11.300498    14A    -11.295894    15A    -11.295706
      16A    -11.292296    17A    -11.248189    18A     -1.429955
      19A     -1.395139    20A     -1.379769    21A     -1.372518
      22A     -1.346052    23A     -1.306031    24A     -1.275126
      25A     -1.184825    26A     -1.082864    27A     -1.067028
      28A     -1.019445    29A     -0.938040    30A     -0.903301
      31A     -0.877923    32A     -0.833093    33A     -0.811565
      34A     -0.767339    35A     -0.751611    36A     -0.736781
      37A     -0.720896    38A     -0.702923    39A     -0.698177
      40A     -0.684959    41A     -0.672611    42A     -0.654001
      43A     -0.651653    44A     -0.637052    45A     -0.620340
      46A     -0.612735    47A     -0.606857    48A     -0.597228
      49A     -0.575184    50A     -0.569437    51A     -0.554643
      52A     -0.545977    53A     -0.537536    54A     -0.531245
      55A     -0.499641    56A     -0.476993    57A     -0.474111
      58A     -0.462969    59A     -0.460203    60A     -0.452467
      61A     -0.440568    62A     -0.433441    63A     -0.396373
      64A     -0.348484

  @DF-RHF Final Energy:  -886.36970289028602

   => Energetics <=

    Nuclear Repulsion Energy =           1323.9653063132022908
    One-Electron Energy =               -3845.5821334124216264
    Two-Electron Energy =                1635.2471242089334282
    Total Energy =                       -886.3697028902859074
  Basis Set: (AUG-CC-PVTZ AUX)
    Blend: AUG-CC-PVTZ-RI
    Molecular point group: c1

    Geometry (in Angstrom), charge = 0, multiplicity = 1:

       Center              X                  Y                   Z               Mass
    ------------   -----------------  -----------------  -----------------  -----------------
         O           -1.245456904488    -0.652034119088     1.031835450902    15.994914619570
         O           -1.242330904488     2.483484880912    -0.686842549098    15.994914619570
         O           -3.213885904488     1.521732880912     0.744207450902    15.994914619570
         O           -2.354384904488    -3.066203119088     0.094260450902    15.994914619570
         O            1.363174095512     2.247667880912    -0.077221549098    15.994914619570
         N            0.801889895512     0.032765980912     0.266885050902    14.003074004430
         N            3.059870095512     0.721136880912    -0.294406549098    14.003074004430
         N            4.719107095512    -0.836021119088    -0.572977549098    14.003074004430
         C           -1.286839904488     1.079063880912    -0.592756549098    12.000000000000
         C           -2.712526904488     0.655840880912    -0.258072549098    12.000000000000
         C           -0.522763904488     0.482153880912     0.599414450902    12.000000000000
         C           -2.526611904488    -0.716252119088     0.360376450902    12.000000000000
         C           -2.525699904488    -1.849759119088    -0.639969549098    12.000000000000
         C            1.222419095512    -1.260774119088     0.310594450902    12.000000000000
         C            1.758238095512     1.068068880912    -0.060082549098    12.000000000000
         C            2.513745095512    -1.608506119088     0.046315450902    12.000000000000
         C            3.414627095512    -0.550019119088    -0.259604549098    12.000000000000
         H           -0.934961904488     0.592037880912    -1.515570549098     1.007825032230
         H           -3.359937904488     0.643298880912    -1.147144549098     1.007825032230
         H           -0.437645904488     1.222513880912     1.403318450902     1.007825032230
         H           -3.279312904488    -0.908100119088     1.130103450902     1.007825032230
         H           -1.710663904488    -1.699671119088    -1.370143549098     1.007825032230
         H           -3.482916904488    -1.833370119088    -1.184814549098     1.007825032230
         H           -0.294880904488     2.713812880912    -0.525679549098     1.007825032230
         H           -2.844911904488     2.400376880912     0.507983450902     1.007825032230
         H            0.412745495512    -1.933802019088     0.570821650902     1.007825032230
         H           -2.431229904488    -3.797798119088    -0.543912549098     1.007825032230
         H            2.831756095512    -2.644764119088     0.073242450902     1.007825032230
         H            5.127824095512    -1.670227119088    -0.163093549098     1.007825032230
         H            5.322458095512    -0.019420119088    -0.568973549098     1.007825032230

  Basis Set: AUG-CC-PVTZ
    Blend: AUG-CC-PVTZ
  Basis Set: (AUG-CC-PVTZ AUX)
    Blend: AUG-CC-PVTZ-JKFIT
	 Reference Energy          =    -886.3697028902860211 [Eh]
	 Singles Energy            =      -0.0000000000000000 [Eh]
	 Same-Spin Energy          =      -0.9015875332265221 [Eh]
	 Opposite-Spin Energy      =      -2.7156237159761041 [Eh]
	 Correlation Energy        =      -3.6172112492026263 [Eh]
	 Total Energy              =    -889.9869141394887038 [Eh]

	 ================> DF-SCS-MP2 Energies <==================
	-----------------------------------------------------------
	 SCS Same-Spin Scale       =       0.3333333333333333 [-]
	 SCS Opposite-Spin Scale   =       1.2000000000000000 [-]
	 SCS Same-Spin Energy      =      -0.3005291777421740 [Eh]
	 SCS Opposite-Spin Energy  =      -3.2587484591713247 [Eh]
	 SCS Correlation Energy    =      -3.5592776369134986 [Eh]
	 SCS Total Energy          =    -889.9289805271995419 [Eh]
	-----------------------------------------------------------

  Dipole Moment: [D]
     X:     1.8217      Y:    -5.8052      Z:    -1.8559     Total:     6.3610

*** Psi4 exiting successfully. Buy a developer a beer!
