                               Psi4 1.4a3.dev225

  ==> Input File <==

--------------------------------------------------------------------------
#psi4
#
memory 32 gb

molecule  {
0 1
  O       -1.3191770     0.6538360    -1.0992360
  O       -1.5735610    -2.4640850     0.5135810
  O       -3.5606630    -1.0699430    -0.4600060
  O       -1.4399290     3.1254620     0.1265180
  O        1.1065530    -2.3833650     0.0076020
  N        0.7686360    -0.1579440    -0.3706350
  N        2.9363770    -0.9938720     0.1460080
  N        4.7058880     0.4431110     0.3611260
  C       -1.3768610    -1.0680440     0.5552780
  C       -2.7379840    -0.3746360     0.4578480
  C       -0.6377490    -0.5042940    -0.6790150
  C       -2.3707440     0.9655450    -0.1585060
  C       -1.8992030     1.9895750     0.8571380
  C        1.2309690     1.1190800    -0.4442230
  C        1.6104480    -1.2470590    -0.0585760
  C        2.5474650     1.3753690    -0.1998620
  C        3.3634538     0.2052592     0.0833011
  H       -0.8441360    -0.7686950     1.4698480
  H       -3.2257400    -0.2778790     1.4400230
  H       -0.6227070    -1.2428120    -1.4883720
  H       -3.1941750     1.3785730    -0.7472070
  H       -1.0952130     1.5703990     1.4802000
  H       -2.7410530     2.2466610     1.5166010
  H       -0.6710550    -2.8260740     0.3542250
  H       -3.3063470    -2.0105220    -0.3629290
  H        0.4929290     1.8778260    -0.6840360
  H       -1.2098800     3.8154810     0.7720340
  H        2.9334840     2.3875570    -0.2389120
  H        5.1589650     1.2712730    -0.0008400
  H        5.2635310    -0.4031270     0.3606700
units angstrom
no_reorient  #important for SAPT in psi4, default
symmetry c1  #important for SAPT in psi4, default
}

set PROPERTIES_ORIGIN ["COM"]
properties('MP2/aug-cc-pvtz', properties = ['dipole'])
--------------------------------------------------------------------------

    Molecular point group: c1
  Charge       = 0
  Multiplicity = 1
  Basis Set: AUG-CC-PVTZ
    Blend: AUG-CC-PVTZ
  Basis Set: (AUG-CC-PVTZ AUX)
    Blend: AUG-CC-PVTZ-JKFIT

    Orbital Energies [Eh]
    ---------------------

    Doubly Occupied:

       1A    -20.586312     2A    -20.581556     3A    -20.560524
       4A    -20.556855     5A    -20.525439     6A    -15.632519
       7A    -15.594035     8A    -15.554641     9A    -11.391806
      10A    -11.356050    11A    -11.340139    12A    -11.320805
      13A    -11.303403    14A    -11.298042    15A    -11.297592
      16A    -11.293877    17A    -11.247237    18A     -1.429979
      19A     -1.398540    20A     -1.383378    21A     -1.375929
      22A     -1.347423    23A     -1.308405    24A     -1.270547
      25A     -1.187387    26A     -1.076156    27A     -1.068275
      28A     -1.016299    29A     -0.936401    30A     -0.904272
      31A     -0.881853    32A     -0.830489    33A     -0.812171
      34A     -0.764413    35A     -0.750349    36A     -0.735700
      37A     -0.720108    38A     -0.707613    39A     -0.702482
      40A     -0.685779    41A     -0.673515    42A     -0.655091
      43A     -0.649644    44A     -0.635951    45A     -0.621489
      46A     -0.615458    47A     -0.604095    48A     -0.595421
      49A     -0.577357    50A     -0.565086    51A     -0.556255
      52A     -0.548785    53A     -0.536884    54A     -0.529538
      55A     -0.497100    56A     -0.480765    57A     -0.474068
      58A     -0.465453    59A     -0.461702    60A     -0.453457
      61A     -0.442029    62A     -0.433250    63A     -0.399395
      64A     -0.347019

  @DF-RHF Final Energy:  -886.37240121296486

   => Energetics <=

    Nuclear Repulsion Energy =           1335.0889421338438297
    One-Electron Energy =               -3867.8155124733307275
    Two-Electron Energy =                1646.3541691265220379
    Total Energy =                       -886.3724012129648600
  Basis Set: (AUG-CC-PVTZ AUX)
    Blend: AUG-CC-PVTZ-RI
    Molecular point group: c1

    Geometry (in Angstrom), charge = 0, multiplicity = 1:

       Center              X                  Y                   Z               Mass
    ------------   -----------------  -----------------  -----------------  -----------------
         O           -1.331093528608     0.684769849416    -1.083577232773    15.994914619570
         O           -1.585477528608    -2.433151150584     0.529239767227    15.994914619570
         O           -3.572579528608    -1.039009150584    -0.444347232773    15.994914619570
         O           -1.451845528608     3.156395849416     0.142176767227    15.994914619570
         O            1.094636471392    -2.352431150584     0.023260767227    15.994914619570
         N            0.756719471392    -0.127010150584    -0.354976232773    14.003074004430
         N            2.924460471392    -0.962938150584     0.161666767227    14.003074004430
         N            4.693971471392     0.474044849416     0.376784767227    14.003074004430
         C           -1.388777528608    -1.037110150584     0.570936767227    12.000000000000
         C           -2.749900528608    -0.343702150584     0.473506767227    12.000000000000
         C           -0.649665528608    -0.473360150584    -0.663356232773    12.000000000000
         C           -2.382660528608     0.996478849416    -0.142847232773    12.000000000000
         C           -1.911119528608     2.020508849416     0.872796767227    12.000000000000
         C            1.219052471392     1.150013849416    -0.428564232773    12.000000000000
         C            1.598531471392    -1.216125150584    -0.042917232773    12.000000000000
         C            2.535548471392     1.406302849416    -0.184203232773    12.000000000000
         C            3.351537271392     0.236193049416     0.098959867227    12.000000000000
         H           -0.856052528608    -0.737761150584     1.485506767227     1.007825032230
         H           -3.237656528608    -0.246945150584     1.455681767227     1.007825032230
         H           -0.634623528608    -1.211878150584    -1.472713232773     1.007825032230
         H           -3.206091528608     1.409506849416    -0.731548232773     1.007825032230
         H           -1.107129528608     1.601332849416     1.495858767227     1.007825032230
         H           -2.752969528608     2.277594849416     1.532259767227     1.007825032230
         H           -0.682971528608    -2.795140150584     0.369883767227     1.007825032230
         H           -3.318263528608    -1.979588150584    -0.347270232773     1.007825032230
         H            0.481012471392     1.908759849416    -0.668377232773     1.007825032230
         H           -1.221796528608     3.846414849416     0.787692767227     1.007825032230
         H            2.921567471392     2.418490849416    -0.223253232773     1.007825032230
         H            5.147048471392     1.302206849416     0.014818767227     1.007825032230
         H            5.251614471392    -0.372193150584     0.376328767227     1.007825032230

  Basis Set: AUG-CC-PVTZ
    Blend: AUG-CC-PVTZ
  Basis Set: (AUG-CC-PVTZ AUX)
    Blend: AUG-CC-PVTZ-JKFIT
	 Reference Energy          =    -886.3724012129648600 [Eh]
	 Singles Energy            =      -0.0000000000000000 [Eh]
	 Same-Spin Energy          =      -0.9011099467918714 [Eh]
	 Opposite-Spin Energy      =      -2.7152479111071521 [Eh]
	 Correlation Energy        =      -3.6163578578990236 [Eh]
	 Total Energy              =    -889.9887590708639209 [Eh]

	 ================> DF-SCS-MP2 Energies <==================
	-----------------------------------------------------------
	 SCS Same-Spin Scale       =       0.3333333333333333 [-]
	 SCS Opposite-Spin Scale   =       1.2000000000000000 [-]
	 SCS Same-Spin Energy      =      -0.3003699822639571 [Eh]
	 SCS Opposite-Spin Energy  =      -3.2582974933285827 [Eh]
	 SCS Correlation Energy    =      -3.5586674755925398 [Eh]
	 SCS Total Energy          =    -889.9310686885573887 [Eh]
	-----------------------------------------------------------

  Dipole Moment: [D]
     X:     2.5483      Y:     5.5587      Z:     1.9369     Total:     6.4144

*** Psi4 exiting successfully. Buy a developer a beer!
