                               Psi4 1.4a3.dev225

  ==> Input File <==

--------------------------------------------------------------------------
#psi4
#
memory 32 gb

molecule  {
0 1
  O       -1.3191770     0.6538360    -1.0992360
  O       -1.5735610    -2.4640850     0.5135810
  O       -3.5606630    -1.0699430    -0.4600060
  O       -1.4399290     3.1254620     0.1265180
  O        1.1065530    -2.3833650     0.0076020
  N        0.7686360    -0.1579440    -0.3706350
  N        2.9363770    -0.9938720     0.1460080
  N        4.7058880     0.4431110     0.3611260
  C       -1.3768610    -1.0680440     0.5552780
  C       -2.7379840    -0.3746360     0.4578480
  C       -0.6377490    -0.5042940    -0.6790150
  C       -2.3707440     0.9655450    -0.1585060
  C       -1.8992030     1.9895750     0.8571380
  C        1.2309690     1.1190800    -0.4442230
  C        1.6104480    -1.2470590    -0.0585760
  C        2.5474650     1.3753690    -0.1998620
  C        3.3510108     0.2916816     0.0709988
  H       -0.8441360    -0.7686950     1.4698480
  H       -3.2257400    -0.2778790     1.4400230
  H       -0.6227070    -1.2428120    -1.4883720
  H       -3.1941750     1.3785730    -0.7472070
  H       -1.0952130     1.5703990     1.4802000
  H       -2.7410530     2.2466610     1.5166010
  H       -0.6710550    -2.8260740     0.3542250
  H       -3.3063470    -2.0105220    -0.3629290
  H        0.4929290     1.8778260    -0.6840360
  H       -1.2098800     3.8154810     0.7720340
  H        2.9334840     2.3875570    -0.2389120
  H        5.1589650     1.2712730    -0.0008400
  H        5.2635310    -0.4031270     0.3606700
units angstrom
no_reorient  #important for SAPT in psi4, default
symmetry c1  #important for SAPT in psi4, default
}

set PROPERTIES_ORIGIN ["COM"]
properties('MP2/aug-cc-pvtz', properties = ['dipole'])
--------------------------------------------------------------------------

    Molecular point group: c1
  Charge       = 0
  Multiplicity = 1
  Basis Set: AUG-CC-PVTZ
    Blend: AUG-CC-PVTZ
  Basis Set: (AUG-CC-PVTZ AUX)
    Blend: AUG-CC-PVTZ-JKFIT

    Orbital Energies [Eh]
    ---------------------

    Doubly Occupied:

       1A    -20.588376     2A    -20.583178     3A    -20.559941
       4A    -20.557369     5A    -20.517226     6A    -15.637713
       7A    -15.595439     8A    -15.552341     9A    -11.383004
      10A    -11.356624    11A    -11.341504    12A    -11.332193
      13A    -11.305061    14A    -11.299330    15A    -11.298298
      16A    -11.294659    17A    -11.245548    18A     -1.430831
      19A     -1.393567    20A     -1.384137    21A     -1.376671
      22A     -1.347266    23A     -1.300790    24A     -1.265852
      25A     -1.171628    26A     -1.088361    27A     -1.069415
      28A     -1.020647    29A     -0.939363    30A     -0.912457
      31A     -0.872016    32A     -0.830697    33A     -0.813930
      34A     -0.765597    35A     -0.752968    36A     -0.736443
      37A     -0.719172    38A     -0.708747    39A     -0.703134
      40A     -0.680972    41A     -0.674686    42A     -0.654865
      43A     -0.650375    44A     -0.634182    45A     -0.622494
      46A     -0.617550    47A     -0.609330    48A     -0.590501
      49A     -0.578296    50A     -0.565241    51A     -0.555692
      52A     -0.549046    53A     -0.537300    54A     -0.528865
      55A     -0.496511    56A     -0.482244    57A     -0.474803
      58A     -0.464666    59A     -0.458118    60A     -0.454251
      61A     -0.443061    62A     -0.431287    63A     -0.388619
      64A     -0.351883

  @DF-RHF Final Energy:  -886.36891597161707

   => Energetics <=

    Nuclear Repulsion Energy =           1334.8079807368264937
    One-Electron Energy =               -3867.2611293030427078
    Two-Electron Energy =                1646.0842325945993707
    Total Energy =                       -886.3689159716170707
  Basis Set: (AUG-CC-PVTZ AUX)
    Blend: AUG-CC-PVTZ-RI
    Molecular point group: c1

    Geometry (in Angstrom), charge = 0, multiplicity = 1:

       Center              X                  Y                   Z               Mass
    ------------   -----------------  -----------------  -----------------  -----------------
         O           -1.330479275651     0.680503578032    -1.082969925519    15.994914619570
         O           -1.584863275651    -2.437417421968     0.529847074481    15.994914619570
         O           -3.571965275651    -1.043275421968    -0.443739925519    15.994914619570
         O           -1.451231275651     3.152129578032     0.142784074481    15.994914619570
         O            1.095250724349    -2.356697421968     0.023868074481    15.994914619570
         N            0.757333724349    -0.131276421968    -0.354368925519    14.003074004430
         N            2.925074724349    -0.967204421968     0.162274074481    14.003074004430
         N            4.694585724349     0.469778578032     0.377392074481    14.003074004430
         C           -1.388163275651    -1.041376421968     0.571544074481    12.000000000000
         C           -2.749286275651    -0.347968421968     0.474114074481    12.000000000000
         C           -0.649051275651    -0.477626421968    -0.662748925519    12.000000000000
         C           -2.382046275651     0.992212578032    -0.142239925519    12.000000000000
         C           -1.910505275651     2.016242578032     0.873404074481    12.000000000000
         C            1.219666724349     1.145747578032    -0.427956925519    12.000000000000
         C            1.599145724349    -1.220391421968    -0.042309925519    12.000000000000
         C            2.536162724349     1.402036578032    -0.183595925519    12.000000000000
         C            3.339708524349     0.318349178032     0.087264874481    12.000000000000
         H           -0.855438275651    -0.742027421968     1.486114074481     1.007825032230
         H           -3.237042275651    -0.251211421968     1.456289074481     1.007825032230
         H           -0.634009275651    -1.216144421968    -1.472105925519     1.007825032230
         H           -3.205477275651     1.405240578032    -0.730940925519     1.007825032230
         H           -1.106515275651     1.597066578032     1.496466074481     1.007825032230
         H           -2.752355275651     2.273328578032     1.532867074481     1.007825032230
         H           -0.682357275651    -2.799406421968     0.370491074481     1.007825032230
         H           -3.317649275651    -1.983854421968    -0.346662925519     1.007825032230
         H            0.481626724349     1.904493578032    -0.667769925519     1.007825032230
         H           -1.221182275651     3.842148578032     0.788300074481     1.007825032230
         H            2.922181724349     2.414224578032    -0.222645925519     1.007825032230
         H            5.147662724349     1.297940578032     0.015426074481     1.007825032230
         H            5.252228724349    -0.376459421968     0.376936074481     1.007825032230

  Basis Set: AUG-CC-PVTZ
    Blend: AUG-CC-PVTZ
  Basis Set: (AUG-CC-PVTZ AUX)
    Blend: AUG-CC-PVTZ-JKFIT
	 Reference Energy          =    -886.3689159716170707 [Eh]
	 Singles Energy            =      -0.0000000000000000 [Eh]
	 Same-Spin Energy          =      -0.9026315905774367 [Eh]
	 Opposite-Spin Energy      =      -2.7170462599325846 [Eh]
	 Correlation Energy        =      -3.6196778505100213 [Eh]
	 Total Energy              =    -889.9885938221270862 [Eh]

	 ================> DF-SCS-MP2 Energies <==================
	-----------------------------------------------------------
	 SCS Same-Spin Scale       =       0.3333333333333333 [-]
	 SCS Opposite-Spin Scale   =       1.2000000000000000 [-]
	 SCS Same-Spin Energy      =      -0.3008771968591455 [Eh]
	 SCS Opposite-Spin Energy  =      -3.2604555119191017 [Eh]
	 SCS Correlation Energy    =      -3.5613327087782474 [Eh]
	 SCS Total Energy          =    -889.9302486803952661 [Eh]
	-----------------------------------------------------------

  Dipole Moment: [D]
     X:     2.4033      Y:     5.9294      Z:     1.8813     Total:     6.6688

*** Psi4 exiting successfully. Buy a developer a beer!
