                               Psi4 1.3.2 release

  ==> Input File <==

--------------------------------------------------------------------------
#psi4
#
memory 32 gb

molecule  {
0 1
  O       -1.2481010    -0.6526680     1.0325150
  O       -1.2449750     2.4828510    -0.6861630
  O       -3.2165300     1.5210990     0.7448870
  O       -2.3570290    -3.0668370     0.0949400
  O        1.3605300     2.2470340    -0.0765420
  N        0.8434040     0.0452230     0.2559430
  N        3.0572260     0.7205030    -0.2937270
  N        4.7164630    -0.8366550    -0.5722980
  C       -1.2894840     1.0784300    -0.5920770
  C       -2.7151710     0.6552070    -0.2573930
  C       -0.5218790     0.4937933     0.5983291
  C       -2.5292560    -0.7168860     0.3610560
  C       -2.5283440    -1.8503930    -0.6392900
  C        1.2197750    -1.2614080     0.3112740
  C        1.7467959     1.0757830    -0.0575541
  C        2.5111010    -1.6091400     0.0469950
  C        3.4119830    -0.5506530    -0.2589250
  H       -0.9376060     0.5914040    -1.5148910
  H       -3.3625820     0.6426650    -1.1464650
  H       -0.4402900     1.2218800     1.4039980
  H       -3.2819570    -0.9087340     1.1307830
  H       -1.7133080    -1.7003050    -1.3694640
  H       -3.4855610    -1.8340040    -1.1841350
  H       -0.2975250     2.7131790    -0.5250000
  H       -2.8475560     2.3997430     0.5086630
  H        0.4343110    -1.9634370     0.5690680
  H       -2.4338740    -3.7984320    -0.5432330
  H        2.8291120    -2.6453980     0.0739220
  H        5.1251800    -1.6708610    -0.1624140
  H        5.3198140    -0.0200540    -0.5682940
units angstrom
no_reorient  #important for SAPT in psi4, default
symmetry c1  #important for SAPT in psi4, default
}

set PROPERTIES_ORIGIN ["COM"]
properties('MP2/aug-cc-pvtz', properties = ['dipole'])
--------------------------------------------------------------------------

    Molecular point group: c1
  Charge       = 0
  Multiplicity = 1
  Basis Set: AUG-CC-PVTZ
    Blend: AUG-CC-PVTZ
  Basis Set: (AUG-CC-PVTZ AUX)
    Blend: AUG-CC-PVTZ-JKFIT

    Orbital Energies [Eh]
    ---------------------

    Doubly Occupied:

       1A    -20.581856     2A    -20.580413     3A    -20.558110
       4A    -20.558100     5A    -20.525471     6A    -15.636579
       7A    -15.598772     8A    -15.552342     9A    -11.388787
      10A    -11.356423    11A    -11.341656    12A    -11.328127
      13A    -11.300746    14A    -11.297207    15A    -11.296216
      16A    -11.293228    17A    -11.247987    18A     -1.427739
      19A     -1.400187    20A     -1.380275    21A     -1.372076
      22A     -1.347024    23A     -1.307322    24A     -1.273301
      25A     -1.179193    26A     -1.081896    27A     -1.066960
      28A     -1.021741    29A     -0.935381    30A     -0.909163
      31A     -0.875979    32A     -0.832390    33A     -0.811092
      34A     -0.765732    35A     -0.752220    36A     -0.737142
      37A     -0.719832    38A     -0.702851    39A     -0.698278
      40A     -0.685079    41A     -0.672511    42A     -0.654698
      43A     -0.652878    44A     -0.638372    45A     -0.620132
      46A     -0.614494    47A     -0.606277    48A     -0.595548
      49A     -0.575188    50A     -0.569386    51A     -0.553964
      52A     -0.545523    53A     -0.538487    54A     -0.532645
      55A     -0.499690    56A     -0.477352    57A     -0.474592
      58A     -0.464113    59A     -0.460661    60A     -0.453230
      61A     -0.441466    62A     -0.431502    63A     -0.394572
      64A     -0.349962

  @DF-RHF Final Energy:  -886.37313466699220

   => Energetics <=

    Nuclear Repulsion Energy =           1323.6612861255589451
    One-Electron Energy =               -3844.9846006658594888
    Two-Electron Energy =                1634.9501798733083433
    Total Energy =                       -886.3731346669922004
  Basis Set: (AUG-CC-PVTZ AUX)
    Blend: AUG-CC-PVTZ-RI
    Molecular point group: c1

    Geometry (in Angstrom), charge = 0, multiplicity = 1:

       Center              X                  Y                   Z               Mass
    ------------   -----------------  -----------------  -----------------  -----------------
         O           -1.247840923010    -0.653685967400     1.032510860792    15.994914619570
         O           -1.244714923010     2.481833032600    -0.686167139208    15.994914619570
         O           -3.216269923010     1.520081032600     0.744882860792    15.994914619570
         O           -2.356768923010    -3.067854967400     0.094935860792    15.994914619570
         O            1.360790076990     2.246016032600    -0.076546139208    15.994914619570
         N            0.843664076990     0.044205032600     0.255938860792    14.003074004430
         N            3.057486076990     0.719485032600    -0.293731139208    14.003074004430
         N            4.716723076990    -0.837672967400    -0.572302139208    14.003074004430
         C           -1.289223923010     1.077412032600    -0.592081139208    12.000000000000
         C           -2.714910923010     0.654189032600    -0.257397139208    12.000000000000
         C           -0.521618923010     0.492775332600     0.598324960792    12.000000000000
         C           -2.528995923010    -0.717903967400     0.361051860792    12.000000000000
         C           -2.528083923010    -1.851410967400    -0.639294139208    12.000000000000
         C            1.220035076990    -1.262425967400     0.311269860792    12.000000000000
         C            1.747055976990     1.074765032600    -0.057558239208    12.000000000000
         C            2.511361076990    -1.610157967400     0.046990860792    12.000000000000
         C            3.412243076990    -0.551670967400    -0.258929139208    12.000000000000
         H           -0.937345923010     0.590386032600    -1.514895139208     1.007825032230
         H           -3.362321923010     0.641647032600    -1.146469139208     1.007825032230
         H           -0.440029923010     1.220862032600     1.403993860792     1.007825032230
         H           -3.281696923010    -0.909751967400     1.130778860792     1.007825032230
         H           -1.713047923010    -1.701322967400    -1.369468139208     1.007825032230
         H           -3.485300923010    -1.835021967400    -1.184139139208     1.007825032230
         H           -0.297264923010     2.712161032600    -0.525004139208     1.007825032230
         H           -2.847295923010     2.398725032600     0.508658860792     1.007825032230
         H            0.434571076990    -1.964454967400     0.569063860792     1.007825032230
         H           -2.433613923010    -3.799449967400    -0.543237139208     1.007825032230
         H            2.829372076990    -2.646415967400     0.073917860792     1.007825032230
         H            5.125440076990    -1.671878967400    -0.162418139208     1.007825032230
         H            5.320074076990    -0.021071967400    -0.568298139208     1.007825032230

  Basis Set: AUG-CC-PVTZ
    Blend: AUG-CC-PVTZ
  Basis Set: (AUG-CC-PVTZ AUX)
    Blend: AUG-CC-PVTZ-JKFIT
	 Reference Energy          =    -886.3731346669922004 [Eh]
	 Singles Energy            =      -0.0000000000000000 [Eh]
	 Same-Spin Energy          =      -0.9010774990983935 [Eh]
	 Opposite-Spin Energy      =      -2.7149650620194397 [Eh]
	 Correlation Energy        =      -3.6160425611178333 [Eh]
	 Total Energy              =    -889.9891772281100657 [Eh]

	 ================> DF-SCS-MP2 Energies <==================
	-----------------------------------------------------------
	 SCS Same-Spin Scale       =       0.3333333333333333 [-]
	 SCS Opposite-Spin Scale   =       1.2000000000000000 [-]
	 SCS Same-Spin Energy      =      -0.3003591663661311 [Eh]
	 SCS Opposite-Spin Energy  =      -3.2579580744233274 [Eh]
	 SCS Correlation Energy    =      -3.5583172407894583 [Eh]
	 SCS Total Energy          =    -889.9314519077817067 [Eh]
	-----------------------------------------------------------

  Dipole Moment: [D]
     X:     1.6721      Y:    -5.8188      Z:    -1.8209     Total:     6.3222

*** Psi4 exiting successfully. Buy a developer a beer!
