                               Psi4 1.3.2 release

  ==> Input File <==

--------------------------------------------------------------------------
#psi4
#
memory 32 gb

molecule  {
0 1
  O       -1.2481010    -0.6526680     1.0325150
  O       -1.2449750     2.4828510    -0.6861630
  O       -3.2165300     1.5210990     0.7448870
  O       -2.3570290    -3.0668370     0.0949400
  O        1.3605300     2.2470340    -0.0765420
  N        0.8434040     0.0452230     0.2559430
  N        3.0572260     0.7205030    -0.2937270
  N        4.7164630    -0.8366550    -0.5722980
  C       -1.2894840     1.0784300    -0.5920770
  C       -2.7151710     0.6552070    -0.2573930
  C       -0.5254080     0.4815200     0.6000940
  C       -2.5292560    -0.7168860     0.3610560
  C       -2.5283440    -1.8503930    -0.6392900
  C        1.2170881    -1.2728729     0.3129626
  C        1.7555940     1.0674350    -0.0594030
  C        2.5111010    -1.6091400     0.0469950
  C        3.4211559    -0.5589191    -0.2602608
  H       -0.9376060     0.5914040    -1.5148910
  H       -3.3625820     0.6426650    -1.1464650
  H       -0.4402900     1.2218800     1.4039980
  H       -3.2819570    -0.9087340     1.1307830
  H       -1.7133080    -1.7003050    -1.3694640
  H       -3.4855610    -1.8340040    -1.1841350
  H       -0.2975250     2.7131790    -0.5250000
  H       -2.8475560     2.3997430     0.5086630
  H        0.4343110    -1.9634370     0.5690680
  H       -2.4338740    -3.7984320    -0.5432330
  H        2.8291120    -2.6453980     0.0739220
  H        5.1251800    -1.6708610    -0.1624140
  H        5.3198140    -0.0200540    -0.5682940
units angstrom
no_reorient  #important for SAPT in psi4, default
symmetry c1  #important for SAPT in psi4, default
}

set PROPERTIES_ORIGIN ["COM"]
properties('MP2/aug-cc-pvtz', properties = ['dipole'])
--------------------------------------------------------------------------

    Molecular point group: c1
  Charge       = 0
  Multiplicity = 1
  Basis Set: AUG-CC-PVTZ
    Blend: AUG-CC-PVTZ
  Basis Set: (AUG-CC-PVTZ AUX)
    Blend: AUG-CC-PVTZ-JKFIT

    Orbital Energies [Eh]
    ---------------------

    Doubly Occupied:

       1A    -20.582061     2A    -20.580984     3A    -20.557246
       4A    -20.556461     5A    -20.520500     6A    -15.635569
       7A    -15.602597     8A    -15.552649     9A    -11.386890
      10A    -11.359221    11A    -11.340393    12A    -11.329173
      13A    -11.300884    14A    -11.296453    15A    -11.295794
      16A    -11.292373    17A    -11.249556    18A     -1.428290
      19A     -1.394694    20A     -1.379510    21A     -1.372428
      22A     -1.345611    23A     -1.305165    24A     -1.273419
      25A     -1.181361    26A     -1.081837    27A     -1.067189
      28A     -1.020572    29A     -0.934928    30A     -0.909195
      31A     -0.876312    32A     -0.831700    33A     -0.811427
      34A     -0.767266    35A     -0.751349    36A     -0.735303
      37A     -0.722761    38A     -0.703063    39A     -0.697978
      40A     -0.686943    41A     -0.672851    42A     -0.653616
      43A     -0.650580    44A     -0.637092    45A     -0.622028
      46A     -0.614291    47A     -0.607545    48A     -0.591900
      49A     -0.575602    50A     -0.569624    51A     -0.553745
      52A     -0.545573    53A     -0.537233    54A     -0.532098
      55A     -0.496458    56A     -0.477078    57A     -0.473763
      58A     -0.461518    59A     -0.458491    60A     -0.452174
      61A     -0.440227    62A     -0.431924    63A     -0.393569
      64A     -0.350270

  @DF-RHF Final Energy:  -886.37254920090015

   => Energetics <=

    Nuclear Repulsion Energy =           1323.2847965712689984
    One-Electron Energy =               -3844.2819835961331592
    Two-Electron Energy =                1634.6246378239641217
    Total Energy =                       -886.3725492009000391
  Basis Set: (AUG-CC-PVTZ AUX)
    Blend: AUG-CC-PVTZ-RI
    Molecular point group: c1

    Geometry (in Angstrom), charge = 0, multiplicity = 1:

       Center              X                  Y                   Z               Mass
    ------------   -----------------  -----------------  -----------------  -----------------
         O           -1.248421217548    -0.651693962287     1.032497591388    15.994914619570
         O           -1.245295217548     2.483825037713    -0.686180408612    15.994914619570
         O           -3.216850217548     1.522073037713     0.744869591388    15.994914619570
         O           -2.357349217548    -3.065862962287     0.094922591388    15.994914619570
         O            1.360209782452     2.248008037713    -0.076559408612    15.994914619570
         N            0.843083782452     0.046197037713     0.255925591388    14.003074004430
         N            3.056905782452     0.721477037713    -0.293744408612    14.003074004430
         N            4.716142782452    -0.835680962287    -0.572315408612    14.003074004430
         C           -1.289804217548     1.079404037713    -0.592094408612    12.000000000000
         C           -2.715491217548     0.656181037713    -0.257410408612    12.000000000000
         C           -0.525728217548     0.482494037713     0.600076591388    12.000000000000
         C           -2.529576217548    -0.715911962287     0.361038591388    12.000000000000
         C           -2.528664217548    -1.849418962287    -0.639307408612    12.000000000000
         C            1.216767882452    -1.271898862287     0.312945191388    12.000000000000
         C            1.755273782452     1.068409037713    -0.059420408612    12.000000000000
         C            2.510780782452    -1.608165962287     0.046977591388    12.000000000000
         C            3.420835682452    -0.557945062287    -0.260278208612    12.000000000000
         H           -0.937926217548     0.592378037713    -1.514908408612     1.007825032230
         H           -3.362902217548     0.643639037713    -1.146482408612     1.007825032230
         H           -0.440610217548     1.222854037713     1.403980591388     1.007825032230
         H           -3.282277217548    -0.907759962287     1.130765591388     1.007825032230
         H           -1.713628217548    -1.699330962287    -1.369481408612     1.007825032230
         H           -3.485881217548    -1.833029962287    -1.184152408612     1.007825032230
         H           -0.297845217548     2.714153037713    -0.525017408612     1.007825032230
         H           -2.847876217548     2.400717037713     0.508645591388     1.007825032230
         H            0.433990782452    -1.962462962287     0.569050591388     1.007825032230
         H           -2.434194217548    -3.797457962287    -0.543250408612     1.007825032230
         H            2.828791782452    -2.644423962287     0.073904591388     1.007825032230
         H            5.124859782452    -1.669886962287    -0.162431408612     1.007825032230
         H            5.319493782452    -0.019079962287    -0.568311408612     1.007825032230

  Basis Set: AUG-CC-PVTZ
    Blend: AUG-CC-PVTZ
  Basis Set: (AUG-CC-PVTZ AUX)
    Blend: AUG-CC-PVTZ-JKFIT
	 Reference Energy          =    -886.3725492009001528 [Eh]
	 Singles Energy            =      -0.0000000000000000 [Eh]
	 Same-Spin Energy          =      -0.9013303155569505 [Eh]
	 Opposite-Spin Energy      =      -2.7152172275171544 [Eh]
	 Correlation Energy        =      -3.6165475430741050 [Eh]
	 Total Energy              =    -889.9890967439743008 [Eh]

	 ================> DF-SCS-MP2 Energies <==================
	-----------------------------------------------------------
	 SCS Same-Spin Scale       =       0.3333333333333333 [-]
	 SCS Opposite-Spin Scale   =       1.2000000000000000 [-]
	 SCS Same-Spin Energy      =      -0.3004434385189835 [Eh]
	 SCS Opposite-Spin Energy  =      -3.2582606730205854 [Eh]
	 SCS Correlation Energy    =      -3.5587041115395688 [Eh]
	 SCS Total Energy          =    -889.9312533124397078 [Eh]
	-----------------------------------------------------------

  Dipole Moment: [D]
     X:     1.8507      Y:    -6.0279      Z:    -1.8433     Total:     6.5695

*** Psi4 exiting successfully. Buy a developer a beer!
