                               Psi4 1.3.2 release

  ==> Input File <==

--------------------------------------------------------------------------
#psi4
#
memory 32 gb

molecule  {
0 1
  O       -1.2481010    -0.6526680     1.0325150
  O       -1.2449750     2.4828510    -0.6861630
  O       -3.2165300     1.5210990     0.7448870
  O       -2.3570290    -3.0668370     0.0949400
  O        1.3605300     2.2470340    -0.0765420
  N        0.8434040     0.0452230     0.2559430
  N        3.0572260     0.7205030    -0.2937270
  N        4.7164630    -0.8366550    -0.5722980
  C       -1.2894840     1.0784300    -0.5920770
  C       -2.7151710     0.6552070    -0.2573930
  C       -0.5254080     0.4815200     0.6000940
  C       -2.5292560    -0.7168860     0.3610560
  C       -2.5283440    -1.8503930    -0.6392900
  C        1.2197750    -1.2614080     0.3112740
  C        1.7555940     1.0674350    -0.0594030
  C        2.5111010    -1.6091400     0.0469950
  C        3.4119830    -0.5506530    -0.2589250
  H       -0.9376060     0.5914040    -1.5148910
  H       -3.3625820     0.6426650    -1.1464650
  H       -0.4402900     1.2218800     1.4039980
  H       -3.2819570    -0.9087340     1.1307830
  H       -1.7133080    -1.7003050    -1.3694640
  H       -3.4855610    -1.8340040    -1.1841350
  H       -0.2975250     2.7131790    -0.5250000
  H       -2.8475560     2.3997430     0.5086630
  H        0.4343110    -1.9634370     0.5690680
  H       -2.4338740    -3.7984320    -0.5432330
  H        2.8291120    -2.6453980     0.0739220
  H        5.1177120    -1.6753128    -0.1641234
  H        5.3134244    -0.0153617    -0.5722515
units angstrom
no_reorient  #important for SAPT in psi4, default
symmetry c1  #important for SAPT in psi4, default
}

set PROPERTIES_ORIGIN ["COM"]
properties('MP2/aug-cc-pvtz', properties = ['dipole'])
--------------------------------------------------------------------------

    Molecular point group: c1
  Charge       = 0
  Multiplicity = 1
  Basis Set: AUG-CC-PVTZ
    Blend: AUG-CC-PVTZ
  Basis Set: (AUG-CC-PVTZ AUX)
    Blend: AUG-CC-PVTZ-JKFIT

    Orbital Energies [Eh]
    ---------------------

    Doubly Occupied:

       1A    -20.582253     2A    -20.581607     3A    -20.557784
       4A    -20.557236     5A    -20.521987     6A    -15.636901
       7A    -15.599919     8A    -15.553298     9A    -11.388261
      10A    -11.357653    11A    -11.341555    12A    -11.328539
      13A    -11.301189    14A    -11.296927    15A    -11.296643
      16A    -11.292962    17A    -11.248552    18A     -1.429359
      19A     -1.396384    20A     -1.380116    21A     -1.372817
      22A     -1.346299    23A     -1.306118    24A     -1.273877
      25A     -1.182220    26A     -1.081965    27A     -1.067733
      28A     -1.021338    29A     -0.935341    30A     -0.909502
      31A     -0.877088    32A     -0.832230    33A     -0.811862
      34A     -0.767412    35A     -0.752393    36A     -0.736187
      37A     -0.719689    38A     -0.702862    39A     -0.698440
      40A     -0.686492    41A     -0.672773    42A     -0.654608
      43A     -0.651543    44A     -0.638495    45A     -0.620741
      46A     -0.614472    47A     -0.606688    48A     -0.593836
      49A     -0.575761    50A     -0.569750    51A     -0.554017
      52A     -0.545691    53A     -0.537535    54A     -0.531811
      55A     -0.498093    56A     -0.477506    57A     -0.474441
      58A     -0.462185    59A     -0.460046    60A     -0.452835
      61A     -0.440694    62A     -0.433126    63A     -0.395095
      64A     -0.350030

  @DF-RHF Final Energy:  -886.37345816404513

   => Energetics <=

    Nuclear Repulsion Energy =           1323.7408400755693947
    One-Electron Energy =               -3845.1430709296073474
    Two-Electron Energy =                1635.0287726899928202
    Total Energy =                       -886.3734581640451324
  Basis Set: (AUG-CC-PVTZ AUX)
    Blend: AUG-CC-PVTZ-RI
    Molecular point group: c1

    Geometry (in Angstrom), charge = 0, multiplicity = 1:

       Center              X                  Y                   Z               Mass
    ------------   -----------------  -----------------  -----------------  -----------------
         O           -1.248043580756    -0.652668986967     1.032538502272    15.994914619570
         O           -1.244917580756     2.482850013033    -0.686139497728    15.994914619570
         O           -3.216472580756     1.521098013033     0.744910502272    15.994914619570
         O           -2.356971580756    -3.066837986967     0.094963502272    15.994914619570
         O            1.360587419244     2.247033013033    -0.076518497728    15.994914619570
         N            0.843461419244     0.045222013033     0.255966502272    14.003074004430
         N            3.057283419244     0.720502013033    -0.293703497728    14.003074004430
         N            4.716520419244    -0.836655986967    -0.572274497728    14.003074004430
         C           -1.289426580756     1.078429013033    -0.592053497728    12.000000000000
         C           -2.715113580756     0.655206013033    -0.257369497728    12.000000000000
         C           -0.525350580756     0.481519013033     0.600117502272    12.000000000000
         C           -2.529198580756    -0.716886986967     0.361079502272    12.000000000000
         C           -2.528286580756    -1.850393986967    -0.639266497728    12.000000000000
         C            1.219832419244    -1.261408986967     0.311297502272    12.000000000000
         C            1.755651419244     1.067434013033    -0.059379497728    12.000000000000
         C            2.511158419244    -1.609140986967     0.047018502272    12.000000000000
         C            3.412040419244    -0.550653986967    -0.258901497728    12.000000000000
         H           -0.937548580756     0.591403013033    -1.514867497728     1.007825032230
         H           -3.362524580756     0.642664013033    -1.146441497728     1.007825032230
         H           -0.440232580756     1.221879013033     1.404021502272     1.007825032230
         H           -3.281899580756    -0.908734986967     1.130806502272     1.007825032230
         H           -1.713250580756    -1.700305986967    -1.369440497728     1.007825032230
         H           -3.485503580756    -1.834004986967    -1.184111497728     1.007825032230
         H           -0.297467580756     2.713178013033    -0.524976497728     1.007825032230
         H           -2.847498580756     2.399742013033     0.508686502272     1.007825032230
         H            0.434368419244    -1.963437986967     0.569091502272     1.007825032230
         H           -2.433816580756    -3.798432986967    -0.543209497728     1.007825032230
         H            2.829169419244    -2.645398986967     0.073945502272     1.007825032230
         H            5.117769419244    -1.675313786967    -0.164099897728     1.007825032230
         H            5.313481819244    -0.015362686967    -0.572227997728     1.007825032230

  Basis Set: AUG-CC-PVTZ
    Blend: AUG-CC-PVTZ
  Basis Set: (AUG-CC-PVTZ AUX)
    Blend: AUG-CC-PVTZ-JKFIT
	 Reference Energy          =    -886.3734581640451324 [Eh]
	 Singles Energy            =      -0.0000000000000000 [Eh]
	 Same-Spin Energy          =      -0.9012544099262314 [Eh]
	 Opposite-Spin Energy      =      -2.7149486207607767 [Eh]
	 Correlation Energy        =      -3.6162030306870081 [Eh]
	 Total Energy              =    -889.9896611947320935 [Eh]

	 ================> DF-SCS-MP2 Energies <==================
	-----------------------------------------------------------
	 SCS Same-Spin Scale       =       0.3333333333333333 [-]
	 SCS Opposite-Spin Scale   =       1.2000000000000000 [-]
	 SCS Same-Spin Energy      =      -0.3004181366420771 [Eh]
	 SCS Opposite-Spin Energy  =      -3.2579383449129318 [Eh]
	 SCS Correlation Energy    =      -3.5583564815550091 [Eh]
	 SCS Total Energy          =    -889.9318146456001841 [Eh]
	-----------------------------------------------------------

  Dipole Moment: [D]
     X:     1.7052      Y:    -5.9531      Z:    -1.8321     Total:     6.4578

*** Psi4 exiting successfully. Buy a developer a beer!
