                               Psi4 1.3.2 release

  ==> Input File <==

--------------------------------------------------------------------------
#psi4
#
memory 32 gb

molecule  {
0 1
  O       -1.2972604    -0.6393819     0.9788793
  O       -1.2449750     2.4828510    -0.6861630
  O       -3.2165300     1.5210990     0.7448870
  O       -2.3570290    -3.0668370     0.0949400
  O        1.3605300     2.2470340    -0.0765420
  N        0.8434040     0.0452230     0.2559430
  N        3.0572260     0.7205030    -0.2937270
  N        4.7164630    -0.8366550    -0.5722980
  C       -1.3438404     1.0196799    -0.5839405
  C       -2.7151710     0.6552070    -0.2573930
  C       -0.5254080     0.4815200     0.6000940
  C       -2.5292560    -0.7168860     0.3610560
  C       -2.5283440    -1.8503930    -0.6392900
  C        1.2197750    -1.2614080     0.3112740
  C        1.7555940     1.0674350    -0.0594030
  C        2.5111010    -1.6091400     0.0469950
  C        3.4119830    -0.5506530    -0.2589250
  H       -0.9376060     0.5914040    -1.5148910
  H       -3.3625820     0.6426650    -1.1464650
  H       -0.4402900     1.2218800     1.4039980
  H       -3.2819570    -0.9087340     1.1307830
  H       -1.7133080    -1.7003050    -1.3694640
  H       -3.4855610    -1.8340040    -1.1841350
  H       -0.2975250     2.7131790    -0.5250000
  H       -2.8475560     2.3997430     0.5086630
  H        0.4343110    -1.9634370     0.5690680
  H       -2.4338740    -3.7984320    -0.5432330
  H        2.8291120    -2.6453980     0.0739220
  H        5.1251800    -1.6708610    -0.1624140
  H        5.3198140    -0.0200540    -0.5682940
units angstrom
no_reorient  #important for SAPT in psi4, default
symmetry c1  #important for SAPT in psi4, default
}

set PROPERTIES_ORIGIN ["COM"]
properties('MP2/aug-cc-pvtz', properties = ['dipole'])
--------------------------------------------------------------------------

    Molecular point group: c1
  Charge       = 0
  Multiplicity = 1
  Basis Set: AUG-CC-PVTZ
    Blend: AUG-CC-PVTZ
  Basis Set: (AUG-CC-PVTZ AUX)
    Blend: AUG-CC-PVTZ-JKFIT

    Orbital Energies [Eh]
    ---------------------

    Doubly Occupied:

       1A    -20.581287     2A    -20.579438     3A    -20.557585
       4A    -20.548877     5A    -20.522565     6A    -15.640843
       7A    -15.601480     8A    -15.555148     9A    -11.390135
      10A    -11.359850    11A    -11.346783    12A    -11.331543
      13A    -11.297905    14A    -11.295482    15A    -11.291871
      16A    -11.288407    17A    -11.251067    18A     -1.445190
      19A     -1.400318    20A     -1.375596    21A     -1.370141
      22A     -1.329458    23A     -1.308258    24A     -1.277557
      25A     -1.184373    26A     -1.085433    27A     -1.072077
      28A     -1.030632    29A     -0.939821    30A     -0.913329
      31A     -0.878450    32A     -0.833544    33A     -0.814165
      34A     -0.768817    35A     -0.756492    36A     -0.735511
      37A     -0.722915    38A     -0.701910    39A     -0.699905
      40A     -0.688048    41A     -0.674526    42A     -0.657484
      43A     -0.652897    44A     -0.639608    45A     -0.620009
      46A     -0.615095    47A     -0.610151    48A     -0.592367
      49A     -0.578858    50A     -0.575473    51A     -0.549802
      52A     -0.541406    53A     -0.533112    54A     -0.527299
      55A     -0.498737    56A     -0.480029    57A     -0.474636
      58A     -0.460765    59A     -0.459548    60A     -0.451094
      61A     -0.442346    62A     -0.433333    63A     -0.397062
      64A     -0.352343

  @DF-RHF Final Energy:  -886.36407303239366

   => Energetics <=

    Nuclear Repulsion Energy =           1325.6833658665634630
    One-Electron Energy =               -3848.9144998998599476
    Two-Electron Energy =                1636.8670610009025950
    Total Energy =                       -886.3640730323936623
  Basis Set: (AUG-CC-PVTZ AUX)
    Blend: AUG-CC-PVTZ-RI
    Molecular point group: c1

    Geometry (in Angstrom), charge = 0, multiplicity = 1:

       Center              X                  Y                   Z               Mass
    ------------   -----------------  -----------------  -----------------  -----------------
         O           -1.291342445886    -0.637355890271     0.982006850579    15.994914619570
         O           -1.239057045886     2.484877009729    -0.683035449421    15.994914619570
         O           -3.210612045886     1.523125009729     0.748014550579    15.994914619570
         O           -2.351111045886    -3.064810990271     0.098067550579    15.994914619570
         O            1.366447954114     2.249060009729    -0.073414449421    15.994914619570
         N            0.849321954114     0.047249009729     0.259070550579    14.003074004430
         N            3.063143954114     0.722529009729    -0.290599449421    14.003074004430
         N            4.722380954114    -0.834628990271    -0.569170449421    14.003074004430
         C           -1.337922445886     1.021705909729    -0.580812949421    12.000000000000
         C           -2.709253045886     0.657233009729    -0.254265449421    12.000000000000
         C           -0.519490045886     0.483546009729     0.603221550579    12.000000000000
         C           -2.523338045886    -0.714859990271     0.364183550579    12.000000000000
         C           -2.522426045886    -1.848366990271    -0.636162449421    12.000000000000
         C            1.225692954114    -1.259381990271     0.314401550579    12.000000000000
         C            1.761511954114     1.069461009729    -0.056275449421    12.000000000000
         C            2.517018954114    -1.607113990271     0.050122550579    12.000000000000
         C            3.417900954114    -0.548626990271    -0.255797449421    12.000000000000
         H           -0.931688045886     0.593430009729    -1.511763449421     1.007825032230
         H           -3.356664045886     0.644691009729    -1.143337449421     1.007825032230
         H           -0.434372045886     1.223906009729     1.407125550579     1.007825032230
         H           -3.276039045886    -0.906707990271     1.133910550579     1.007825032230
         H           -1.707390045886    -1.698278990271    -1.366336449421     1.007825032230
         H           -3.479643045886    -1.831977990271    -1.181007449421     1.007825032230
         H           -0.291607045886     2.715205009729    -0.521872449421     1.007825032230
         H           -2.841638045886     2.401769009729     0.511790550579     1.007825032230
         H            0.440228954114    -1.961410990271     0.572195550579     1.007825032230
         H           -2.427956045886    -3.796405990271    -0.540105449421     1.007825032230
         H            2.835029954114    -2.643371990271     0.077049550579     1.007825032230
         H            5.131097954114    -1.668834990271    -0.159286449421     1.007825032230
         H            5.325731954114    -0.018027990271    -0.565166449421     1.007825032230

  Basis Set: AUG-CC-PVTZ
    Blend: AUG-CC-PVTZ
  Basis Set: (AUG-CC-PVTZ AUX)
    Blend: AUG-CC-PVTZ-JKFIT
	 Reference Energy          =    -886.3640730323936623 [Eh]
	 Singles Energy            =      -0.0000000000000000 [Eh]
	 Same-Spin Energy          =      -0.9013759410044412 [Eh]
	 Opposite-Spin Energy      =      -2.7146007806935613 [Eh]
	 Correlation Energy        =      -3.6159767216980025 [Eh]
	 Total Energy              =    -889.9800497540916240 [Eh]

	 ================> DF-SCS-MP2 Energies <==================
	-----------------------------------------------------------
	 SCS Same-Spin Scale       =       0.3333333333333333 [-]
	 SCS Opposite-Spin Scale   =       1.2000000000000000 [-]
	 SCS Same-Spin Energy      =      -0.3004586470014804 [Eh]
	 SCS Opposite-Spin Energy  =      -3.2575209368322735 [Eh]
	 SCS Correlation Energy    =      -3.5579795838337538 [Eh]
	 SCS Total Energy          =    -889.9220526162274609 [Eh]
	-----------------------------------------------------------

  Dipole Moment: [D]
     X:     1.9855      Y:    -6.1336      Z:    -1.6591     Total:     6.6570

*** Psi4 exiting successfully. Buy a developer a beer!
