                               Psi4 1.4a3.dev225

  ==> Input File <==

--------------------------------------------------------------------------
#psi4
#
memory 32 gb

molecule  {
0 1
  O       -1.3191770     0.6538360    -1.0992360
  O       -1.5735610    -2.4640850     0.5135810
  O       -3.5606630    -1.0699430    -0.4600060
  O       -1.4399290     3.1254620     0.1265180
  O        1.1065530    -2.3833650     0.0076020
  N        0.7686360    -0.1579440    -0.3706350
  N        2.9363770    -0.9938720     0.1460080
  N        4.7058880     0.4431110     0.3611260
  C       -1.3768610    -1.0680440     0.5552780
  C       -2.7379840    -0.3746360     0.4578480
  C       -0.6377490    -0.5042940    -0.6790150
  C       -2.3707440     0.9655450    -0.1585060
  C       -1.8992030     1.9895750     0.8571380
  C        1.2309690     1.1190800    -0.4442230
  C        1.6104480    -1.2470590    -0.0585760
  C        2.5474650     1.3753690    -0.1998620
  C        3.3802090     0.2523040     0.0808410
  H       -0.8441360    -0.7686950     1.4698480
  H       -3.2257400    -0.2778790     1.4400230
  H       -0.6227070    -1.2428120    -1.4883720
  H       -3.1941750     1.3785730    -0.7472070
  H       -1.0952130     1.5703990     1.4802000
  H       -2.7410530     2.2466610     1.5166010
  H       -0.6710550    -2.8260740     0.3542250
  H       -3.3063470    -2.0105220    -0.3629290
  H        0.4929290     1.8778260    -0.6840360
  H       -1.2098800     3.8154810     0.7720340
  H        2.9263619     2.3688820    -0.2381915
  H        5.1589650     1.2712730    -0.0008400
  H        5.2635310    -0.4031270     0.3606700
units angstrom
no_reorient  #important for SAPT in psi4, default
symmetry c1  #important for SAPT in psi4, default
}

set PROPERTIES_ORIGIN ["COM"]
properties('MP2/aug-cc-pvtz', properties = ['dipole'])
--------------------------------------------------------------------------

    Molecular point group: c1
  Charge       = 0
  Multiplicity = 1
  Basis Set: AUG-CC-PVTZ
    Blend: AUG-CC-PVTZ
  Basis Set: (AUG-CC-PVTZ AUX)
    Blend: AUG-CC-PVTZ-JKFIT

    Orbital Energies [Eh]
    ---------------------

    Doubly Occupied:

       1A    -20.586725     2A    -20.581373     3A    -20.559313
       4A    -20.556405     5A    -20.519650     6A    -15.632867
       7A    -15.599674     8A    -15.551603     9A    -11.385874
      10A    -11.357864    11A    -11.339525    12A    -11.324977
      13A    -11.303547    14A    -11.297911    15A    -11.296935
      16A    -11.293474    17A    -11.244267    18A     -1.429188
      19A     -1.394026    20A     -1.383006    21A     -1.375484
      22A     -1.346504    23A     -1.303592    24A     -1.271261
      25A     -1.181122    26A     -1.079879    27A     -1.068032
      28A     -1.017420    29A     -0.936549    30A     -0.906839
      31A     -0.877017    32A     -0.830243    33A     -0.812338
      34A     -0.766443    35A     -0.751125    36A     -0.735248
      37A     -0.721987    38A     -0.707968    39A     -0.703383
      40A     -0.685224    41A     -0.675578    42A     -0.653535
      43A     -0.650735    44A     -0.633625    45A     -0.620661
      46A     -0.615021    47A     -0.607771    48A     -0.594024
      49A     -0.577049    50A     -0.564944    51A     -0.555779
      52A     -0.548270    53A     -0.536677    54A     -0.531018
      55A     -0.495586    56A     -0.480787    57A     -0.473687
      58A     -0.463372    59A     -0.457939    60A     -0.452980
      61A     -0.442019    62A     -0.430213    63A     -0.392185
      64A     -0.348161

  @DF-RHF Final Energy:  -886.37432698347993

   => Energetics <=

    Nuclear Repulsion Energy =           1334.6945511349213120
    One-Electron Energy =               -3867.1028049481474227
    Two-Electron Energy =                1646.0339268297461786
    Total Energy =                       -886.3743269834799321
  Basis Set: (AUG-CC-PVTZ AUX)
    Blend: AUG-CC-PVTZ-RI
    Molecular point group: c1

    Geometry (in Angstrom), charge = 0, multiplicity = 1:

       Center              X                  Y                   Z               Mass
    ------------   -----------------  -----------------  -----------------  -----------------
         O           -1.331891126791     0.682524892718    -1.083458776264    15.994914619570
         O           -1.586275126791    -2.435396107282     0.529358223736    15.994914619570
         O           -3.573377126791    -1.041254107282    -0.444228776264    15.994914619570
         O           -1.452643126791     3.154150892718     0.142295223736    15.994914619570
         O            1.093838873209    -2.354676107282     0.023379223736    15.994914619570
         N            0.755921873209    -0.129255107282    -0.354857776264    14.003074004430
         N            2.923662873209    -0.965183107282     0.161785223736    14.003074004430
         N            4.693173873209     0.471799892718     0.376903223736    14.003074004430
         C           -1.389575126791    -1.039355107282     0.571055223736    12.000000000000
         C           -2.750698126791    -0.345947107282     0.473625223736    12.000000000000
         C           -0.650463126791    -0.475605107282    -0.663237776264    12.000000000000
         C           -2.383458126791     0.994233892718    -0.142728776264    12.000000000000
         C           -1.911917126791     2.018263892718     0.872915223736    12.000000000000
         C            1.218254873209     1.147768892718    -0.428445776264    12.000000000000
         C            1.597733873209    -1.218370107282    -0.042798776264    12.000000000000
         C            2.534750873209     1.404057892718    -0.184084776264    12.000000000000
         C            3.367494873209     0.280992892718     0.096618223736    12.000000000000
         H           -0.856850126791    -0.740006107282     1.485625223736     1.007825032230
         H           -3.238454126791    -0.249190107282     1.455800223736     1.007825032230
         H           -0.635421126791    -1.214123107282    -1.472594776264     1.007825032230
         H           -3.206889126791     1.407261892718    -0.731429776264     1.007825032230
         H           -1.107927126791     1.599087892718     1.495977223736     1.007825032230
         H           -2.753767126791     2.275349892718     1.532378223736     1.007825032230
         H           -0.683769126791    -2.797385107282     0.370002223736     1.007825032230
         H           -3.319061126791    -1.981833107282    -0.347151776264     1.007825032230
         H            0.480214873209     1.906514892718    -0.668258776264     1.007825032230
         H           -1.222594126791     3.844169892718     0.787811223736     1.007825032230
         H            2.913647773209     2.397570892718    -0.222414276264     1.007825032230
         H            5.146250873209     1.299961892718     0.014937223736     1.007825032230
         H            5.250816873209    -0.374438107282     0.376447223736     1.007825032230

  Basis Set: AUG-CC-PVTZ
    Blend: AUG-CC-PVTZ
  Basis Set: (AUG-CC-PVTZ AUX)
    Blend: AUG-CC-PVTZ-JKFIT
	 Reference Energy          =    -886.3743269834799321 [Eh]
	 Singles Energy            =      -0.0000000000000000 [Eh]
	 Same-Spin Energy          =      -0.9017751223835957 [Eh]
	 Opposite-Spin Energy      =      -2.7157734909159985 [Eh]
	 Correlation Energy        =      -3.6175486132995944 [Eh]
	 Total Energy              =    -889.9918755967795505 [Eh]

	 ================> DF-SCS-MP2 Energies <==================
	-----------------------------------------------------------
	 SCS Same-Spin Scale       =       0.3333333333333333 [-]
	 SCS Opposite-Spin Scale   =       1.2000000000000000 [-]
	 SCS Same-Spin Energy      =      -0.3005917074611986 [Eh]
	 SCS Opposite-Spin Energy  =      -3.2589281890991981 [Eh]
	 SCS Correlation Energy    =      -3.5595198965603965 [Eh]
	 SCS Total Energy          =    -889.9338468800402779 [Eh]
	-----------------------------------------------------------

  Dipole Moment: [D]
     X:     2.7366      Y:     5.8019      Z:     1.9468     Total:     6.7039

*** Psi4 exiting successfully. Buy a developer a beer!
