                               Psi4 1.3.2 release

  ==> Input File <==

--------------------------------------------------------------------------
#psi4
#
memory 32 gb

molecule  {
0 1
  O       -1.2481010    -0.6526680     1.0325150
  O       -1.2449750     2.4828510    -0.6861630
  O       -3.2165300     1.5210990     0.7448870
  O       -2.3570290    -3.0668370     0.0949400
  O        1.3605300     2.2470340    -0.0765420
  N        0.8434040     0.0452230     0.2559430
  N        3.0572260     0.7205030    -0.2937270
  N        4.7164630    -0.8366550    -0.5722980
  C       -1.2894840     1.0784300    -0.5920770
  C       -2.7151710     0.6552070    -0.2573930
  C       -0.5254080     0.4815200     0.6000940
  C       -2.5292560    -0.7168860     0.3610560
  C       -2.5222863    -1.8248963    -0.5967622
  C        1.2197750    -1.2614080     0.3112740
  C        1.7555940     1.0674350    -0.0594030
  C        2.5111010    -1.6091400     0.0469950
  C        3.4119830    -0.5506530    -0.2589250
  H       -0.9376060     0.5914040    -1.5148910
  H       -3.3625820     0.6426650    -1.1464650
  H       -0.4402900     1.2218800     1.4039980
  H       -3.2819570    -0.9087340     1.1307830
  H       -1.7133080    -1.7003050    -1.3694640
  H       -3.4855610    -1.8340040    -1.1841350
  H       -0.2975250     2.7131790    -0.5250000
  H       -2.8475560     2.3997430     0.5086630
  H        0.4343110    -1.9634370     0.5690680
  H       -2.4287506    -3.8203785    -0.5177854
  H        2.8291120    -2.6453980     0.0739220
  H        5.1251800    -1.6708610    -0.1624140
  H        5.3198140    -0.0200540    -0.5682940
units angstrom
no_reorient  #important for SAPT in psi4, default
symmetry c1  #important for SAPT in psi4, default
}

set PROPERTIES_ORIGIN ["COM"]
properties('MP2/aug-cc-pvtz', properties = ['dipole'])
--------------------------------------------------------------------------

    Molecular point group: c1
  Charge       = 0
  Multiplicity = 1
  Basis Set: AUG-CC-PVTZ
    Blend: AUG-CC-PVTZ
  Basis Set: (AUG-CC-PVTZ AUX)
    Blend: AUG-CC-PVTZ-JKFIT

    Orbital Energies [Eh]
    ---------------------

    Doubly Occupied:

       1A    -20.581567     2A    -20.579980     3A    -20.558565
       4A    -20.557485     5A    -20.522040     6A    -15.636974
       7A    -15.599850     8A    -15.553347     9A    -11.388303
      10A    -11.357859    11A    -11.341785    12A    -11.328518
      13A    -11.303668    14A    -11.296928    15A    -11.295688
      16A    -11.294315    17A    -11.248531    18A     -1.430220
      19A     -1.396654    20A     -1.380166    21A     -1.370794
      22A     -1.346825    23A     -1.306112    24A     -1.273914
      25A     -1.182309    26A     -1.082585    27A     -1.073538
      28A     -1.024200    29A     -0.936071    30A     -0.909112
      31A     -0.876829    32A     -0.832861    33A     -0.811785
      34A     -0.766938    35A     -0.752429    36A     -0.737339
      37A     -0.720463    38A     -0.706411    39A     -0.698139
      40A     -0.685545    41A     -0.673181    42A     -0.653653
      43A     -0.650635    44A     -0.638929    45A     -0.619321
      46A     -0.617255    47A     -0.607145    48A     -0.594007
      49A     -0.575719    50A     -0.568059    51A     -0.553600
      52A     -0.546225    53A     -0.537640    54A     -0.531132
      55A     -0.498001    56A     -0.476498    57A     -0.471420
      58A     -0.464824    59A     -0.459888    60A     -0.452515
      61A     -0.440977    62A     -0.433525    63A     -0.395243
      64A     -0.350032

  @DF-RHF Final Energy:  -886.37042051670073

   => Energetics <=

    Nuclear Repulsion Energy =           1324.6307469207631584
    One-Electron Energy =               -3846.8902103024965982
    Two-Electron Energy =                1635.8890428650327067
    Total Energy =                       -886.3704205167007331
  Basis Set: (AUG-CC-PVTZ AUX)
    Blend: AUG-CC-PVTZ-RI
    Molecular point group: c1

    Geometry (in Angstrom), charge = 0, multiplicity = 1:

       Center              X                  Y                   Z               Mass
    ------------   -----------------  -----------------  -----------------  -----------------
         O           -1.248421315830    -0.653835653683     1.030310103103    15.994914619570
         O           -1.245295315830     2.481683346317    -0.688367896897    15.994914619570
         O           -3.216850315830     1.519931346317     0.742682103103    15.994914619570
         O           -2.357349315830    -3.068004653683     0.092735103103    15.994914619570
         O            1.360209684170     2.245866346317    -0.078746896897    15.994914619570
         N            0.843083684170     0.044055346317     0.253738103103    14.003074004430
         N            3.056905684170     0.719335346317    -0.295931896897    14.003074004430
         N            4.716142684170    -0.837822653683    -0.574502896897    14.003074004430
         C           -1.289804315830     1.077262346317    -0.594281896897    12.000000000000
         C           -2.715491315830     0.654039346317    -0.259597896897    12.000000000000
         C           -0.525728315830     0.480352346317     0.597889103103    12.000000000000
         C           -2.529576315830    -0.718053653683     0.358851103103    12.000000000000
         C           -2.522606615830    -1.826063953683    -0.598967096897    12.000000000000
         C            1.219454684170    -1.262575653683     0.309069103103    12.000000000000
         C            1.755273684170     1.066267346317    -0.061607896897    12.000000000000
         C            2.510780684170    -1.610307653683     0.044790103103    12.000000000000
         C            3.411662684170    -0.551820653683    -0.261129896897    12.000000000000
         H           -0.937926315830     0.590236346317    -1.517095896897     1.007825032230
         H           -3.362902315830     0.641497346317    -1.148669896897     1.007825032230
         H           -0.440610315830     1.220712346317     1.401793103103     1.007825032230
         H           -3.282277315830    -0.909901653683     1.128578103103     1.007825032230
         H           -1.713628315830    -1.701472653683    -1.371668896897     1.007825032230
         H           -3.485881315830    -1.835171653683    -1.186339896897     1.007825032230
         H           -0.297845315830     2.712011346317    -0.527204896897     1.007825032230
         H           -2.847876315830     2.398575346317     0.506458103103     1.007825032230
         H            0.433990684170    -1.964604653683     0.566863103103     1.007825032230
         H           -2.429070915830    -3.821546153683    -0.519990296897     1.007825032230
         H            2.828791684170    -2.646565653683     0.071717103103     1.007825032230
         H            5.124859684170    -1.672028653683    -0.164618896897     1.007825032230
         H            5.319493684170    -0.021221653683    -0.570498896897     1.007825032230

  Basis Set: AUG-CC-PVTZ
    Blend: AUG-CC-PVTZ
  Basis Set: (AUG-CC-PVTZ AUX)
    Blend: AUG-CC-PVTZ-JKFIT
	 Reference Energy          =    -886.3704205167007331 [Eh]
	 Singles Energy            =      -0.0000000000000000 [Eh]
	 Same-Spin Energy          =      -0.9014848504294173 [Eh]
	 Opposite-Spin Energy      =      -2.7149583840121760 [Eh]
	 Correlation Energy        =      -3.6164432344415935 [Eh]
	 Total Energy              =    -889.9868637511423231 [Eh]

	 ================> DF-SCS-MP2 Energies <==================
	-----------------------------------------------------------
	 SCS Same-Spin Scale       =       0.3333333333333333 [-]
	 SCS Opposite-Spin Scale   =       1.2000000000000000 [-]
	 SCS Same-Spin Energy      =      -0.3004949501431391 [Eh]
	 SCS Opposite-Spin Energy  =      -3.2579500608146112 [Eh]
	 SCS Correlation Energy    =      -3.5584450109577501 [Eh]
	 SCS Total Energy          =    -889.9288655276584450 [Eh]
	-----------------------------------------------------------

  Dipole Moment: [D]
     X:     1.7164      Y:    -5.9459      Z:    -1.7786     Total:     6.4392

*** Psi4 exiting successfully. Buy a developer a beer!
