                               Psi4 1.3.2 release

  ==> Input File <==

--------------------------------------------------------------------------
#psi4
#
memory 32 gb

molecule  {
0 1
  O       -1.2481010    -0.6526680     1.0325150
  O       -1.2449750     2.4828510    -0.6861630
  O       -3.2165300     1.5210990     0.7448870
  O       -2.3570290    -3.0668370     0.0949400
  O        1.3605300     2.2470340    -0.0765420
  N        0.8434040     0.0452230     0.2559430
  N        3.0572260     0.7205030    -0.2937270
  N        4.7245620    -0.7897761    -0.5777107
  C       -1.2894840     1.0784300    -0.5920770
  C       -2.7151710     0.6552070    -0.2573930
  C       -0.5254080     0.4815200     0.6000940
  C       -2.5292560    -0.7168860     0.3610560
  C       -2.5283440    -1.8503930    -0.6392900
  C        1.2197750    -1.2614080     0.3112740
  C        1.7555940     1.0674350    -0.0594030
  C        2.4752116    -1.5754683     0.0537779
  C        3.4119830    -0.5506530    -0.2589250
  H       -0.9376060     0.5914040    -1.5148910
  H       -3.3625820     0.6426650    -1.1464650
  H       -0.4402900     1.2218800     1.4039980
  H       -3.2819570    -0.9087340     1.1307830
  H       -1.7133080    -1.7003050    -1.3694640
  H       -3.4855610    -1.8340040    -1.1841350
  H       -0.2975250     2.7131790    -0.5250000
  H       -2.8475560     2.3997430     0.5086630
  H        0.4343110    -1.9634370     0.5690680
  H       -2.4338740    -3.7984320    -0.5432330
  H        2.8291120    -2.6453980     0.0739220
  H        5.1251800    -1.6708610    -0.1624140
  H        5.3198140    -0.0200540    -0.5682940
units angstrom
no_reorient  #important for SAPT in psi4, default
symmetry c1  #important for SAPT in psi4, default
}

set PROPERTIES_ORIGIN ["COM"]
properties('MP2/aug-cc-pvtz', properties = ['dipole'])
--------------------------------------------------------------------------

    Molecular point group: c1
  Charge       = 0
  Multiplicity = 1
  Basis Set: AUG-CC-PVTZ
    Blend: AUG-CC-PVTZ
  Basis Set: (AUG-CC-PVTZ AUX)
    Blend: AUG-CC-PVTZ-JKFIT

    Orbital Energies [Eh]
    ---------------------

    Doubly Occupied:

       1A    -20.581870     2A    -20.580670     3A    -20.557079
       4A    -20.556324     5A    -20.520646     6A    -15.633002
       7A    -15.602468     8A    -15.552350     9A    -11.386571
      10A    -11.359459    11A    -11.339939    12A    -11.321395
      13A    -11.300707    14A    -11.296236    15A    -11.295529
      16A    -11.292162    17A    -11.249965    18A     -1.428331
      19A     -1.395499    20A     -1.379405    21A     -1.372241
      22A     -1.345509    23A     -1.307775    24A     -1.274607
      25A     -1.181806    26A     -1.089592    27A     -1.066970
      28A     -1.020825    29A     -0.935418    30A     -0.908363
      31A     -0.877344    32A     -0.832064    33A     -0.811723
      34A     -0.771553    35A     -0.750916    36A     -0.735067
      37A     -0.722301    38A     -0.703345    39A     -0.697804
      40A     -0.682323    41A     -0.673231    42A     -0.652090
      43A     -0.646514    44A     -0.635373    45A     -0.628861
      46A     -0.614610    47A     -0.608882    48A     -0.587483
      49A     -0.575640    50A     -0.569555    51A     -0.553672
      52A     -0.544870    53A     -0.536497    54A     -0.531346
      55A     -0.499638    56A     -0.476999    57A     -0.473907
      58A     -0.461181    59A     -0.458617    60A     -0.452003
      61A     -0.440996    62A     -0.431757    63A     -0.394397
      64A     -0.354072

  @DF-RHF Final Energy:  -886.36703096048211

   => Energetics <=

    Nuclear Repulsion Energy =           1324.9000627420700766
    One-Electron Energy =               -3847.4954984816181423
    Two-Electron Energy =                1636.2284047790658406
    Total Energy =                       -886.3670309604822251
  Basis Set: (AUG-CC-PVTZ AUX)
    Blend: AUG-CC-PVTZ-RI
    Molecular point group: c1

    Geometry (in Angstrom), charge = 0, multiplicity = 1:

       Center              X                  Y                   Z               Mass
    ------------   -----------------  -----------------  -----------------  -----------------
         O           -1.246795888723    -0.657030689473     1.032491968834    15.994914619570
         O           -1.243669888723     2.478488310527    -0.686186031166    15.994914619570
         O           -3.215224888723     1.516736310527     0.744863968834    15.994914619570
         O           -2.355723888723    -3.071199689473     0.094916968834    15.994914619570
         O            1.361835111277     2.242671310527    -0.076565031166    15.994914619570
         N            0.844709111277     0.040860310527     0.255919968834    14.003074004430
         N            3.058531111277     0.716140310527    -0.293750031166    14.003074004430
         N            4.725867111277    -0.794138789473    -0.577733731166    14.003074004430
         C           -1.288178888723     1.074067310527    -0.592100031166    12.000000000000
         C           -2.713865888723     0.650844310527    -0.257416031166    12.000000000000
         C           -0.524102888723     0.477157310527     0.600070968834    12.000000000000
         C           -2.527950888723    -0.721248689473     0.361032968834    12.000000000000
         C           -2.527038888723    -1.854755689473    -0.639313031166    12.000000000000
         C            1.221080111277    -1.265770689473     0.311250968834    12.000000000000
         C            1.756899111277     1.063072310527    -0.059426031166    12.000000000000
         C            2.476516711277    -1.579830989473     0.053754868834    12.000000000000
         C            3.413288111277    -0.555015689473    -0.258948031166    12.000000000000
         H           -0.936300888723     0.587041310527    -1.514914031166     1.007825032230
         H           -3.361276888723     0.638302310527    -1.146488031166     1.007825032230
         H           -0.438984888723     1.217517310527     1.403974968834     1.007825032230
         H           -3.280651888723    -0.913096689473     1.130759968834     1.007825032230
         H           -1.712002888723    -1.704667689473    -1.369487031166     1.007825032230
         H           -3.484255888723    -1.838366689473    -1.184158031166     1.007825032230
         H           -0.296219888723     2.708816310527    -0.525023031166     1.007825032230
         H           -2.846250888723     2.395380310527     0.508639968834     1.007825032230
         H            0.435616111277    -1.967799689473     0.569044968834     1.007825032230
         H           -2.432568888723    -3.802794689473    -0.543256031166     1.007825032230
         H            2.830417111277    -2.649760689473     0.073898968834     1.007825032230
         H            5.126485111277    -1.675223689473    -0.162437031166     1.007825032230
         H            5.321119111277    -0.024416689473    -0.568317031166     1.007825032230

  Basis Set: AUG-CC-PVTZ
    Blend: AUG-CC-PVTZ
  Basis Set: (AUG-CC-PVTZ AUX)
    Blend: AUG-CC-PVTZ-JKFIT
	 Reference Energy          =    -886.3670309604821114 [Eh]
	 Singles Energy            =      -0.0000000000000000 [Eh]
	 Same-Spin Energy          =      -0.9010925953867346 [Eh]
	 Opposite-Spin Energy      =      -2.7147348987738402 [Eh]
	 Correlation Energy        =      -3.6158274941605750 [Eh]
	 Total Energy              =    -889.9828584546427237 [Eh]

	 ================> DF-SCS-MP2 Energies <==================
	-----------------------------------------------------------
	 SCS Same-Spin Scale       =       0.3333333333333333 [-]
	 SCS Opposite-Spin Scale   =       1.2000000000000000 [-]
	 SCS Same-Spin Energy      =      -0.3003641984622448 [Eh]
	 SCS Opposite-Spin Energy  =      -3.2576818785286084 [Eh]
	 SCS Correlation Energy    =      -3.5580460769908533 [Eh]
	 SCS Total Energy          =    -889.9250770374729882 [Eh]
	-----------------------------------------------------------

  Dipole Moment: [D]
     X:     1.8090      Y:    -6.0207      Z:    -1.8410     Total:     6.5506

*** Psi4 exiting successfully. Buy a developer a beer!
