                               Psi4 1.3.2 release

  ==> Input File <==

--------------------------------------------------------------------------
#psi4
#
memory 32 gb

molecule  {
0 1
  O       -1.2481010    -0.6526680     1.0325150
  O       -1.2449750     2.4828510    -0.6861630
  O       -3.2165300     1.5210990     0.7448870
  O       -2.3570290    -3.0668370     0.0949400
  O        1.3605300     2.2470340    -0.0765420
  N        0.8434040     0.0452230     0.2559430
  N        3.0572260     0.7205030    -0.2937270
  N        4.7164630    -0.8366550    -0.5722980
  C       -1.2894840     1.0784300    -0.5920770
  C       -2.7151710     0.6552070    -0.2573930
  C       -0.5254080     0.4815200     0.6000940
  C       -2.5292560    -0.7168860     0.3610560
  C       -2.5283440    -1.8503930    -0.6392900
  C        1.2197750    -1.2614080     0.3112740
  C        1.7452295     1.0212329    -0.0534311
  C        2.5111010    -1.6091400     0.0469950
  C        3.3683323    -0.5617326    -0.2491621
  H       -0.9376060     0.5914040    -1.5148910
  H       -3.3625820     0.6426650    -1.1464650
  H       -0.4402900     1.2218800     1.4039980
  H       -3.2819570    -0.9087340     1.1307830
  H       -1.7133080    -1.7003050    -1.3694640
  H       -3.4855610    -1.8340040    -1.1841350
  H       -0.2975250     2.7131790    -0.5250000
  H       -2.8475560     2.3997430     0.5086630
  H        0.4343110    -1.9634370     0.5690680
  H       -2.4338740    -3.7984320    -0.5432330
  H        2.8291120    -2.6453980     0.0739220
  H        5.1251800    -1.6708610    -0.1624140
  H        5.3198140    -0.0200540    -0.5682940
units angstrom
no_reorient  #important for SAPT in psi4, default
symmetry c1  #important for SAPT in psi4, default
}

set PROPERTIES_ORIGIN ["COM"]
properties('MP2/aug-cc-pvtz', properties = ['dipole'])
--------------------------------------------------------------------------

    Molecular point group: c1
  Charge       = 0
  Multiplicity = 1
  Basis Set: AUG-CC-PVTZ
    Blend: AUG-CC-PVTZ
  Basis Set: (AUG-CC-PVTZ AUX)
    Blend: AUG-CC-PVTZ-JKFIT

    Orbital Energies [Eh]
    ---------------------

    Doubly Occupied:

       1A    -20.585115     2A    -20.584357     3A    -20.558922
       4A    -20.556094     5A    -20.511880     6A    -15.647439
       7A    -15.594078     8A    -15.560352     9A    -11.386028
      10A    -11.356960    11A    -11.346167    12A    -11.336398
      13A    -11.303352    14A    -11.299246    15A    -11.298650
      16A    -11.294627    17A    -11.253334    18A     -1.432730
      19A     -1.389763    20A     -1.381195    21A     -1.373829
      22A     -1.346393    23A     -1.296064    24A     -1.273189
      25A     -1.177451    26A     -1.093131    27A     -1.070011
      28A     -1.027301    29A     -0.939816    30A     -0.924425
      31A     -0.876026    32A     -0.834344    33A     -0.814211
      34A     -0.769341    35A     -0.758708    36A     -0.738032
      37A     -0.714743    38A     -0.703407    39A     -0.699423
      40A     -0.681784    41A     -0.673597    42A     -0.656676
      43A     -0.650803    44A     -0.643503    45A     -0.625222
      46A     -0.615020    47A     -0.608281    48A     -0.583476
      49A     -0.577078    50A     -0.571265    51A     -0.555042
      52A     -0.545590    53A     -0.537882    54A     -0.526828
      55A     -0.492540    56A     -0.479355    57A     -0.475739
      58A     -0.465221    59A     -0.456451    60A     -0.453719
      61A     -0.445464    62A     -0.436068    63A     -0.395959
      64A     -0.356196

  @DF-RHF Final Energy:  -886.36385941896572

   => Energetics <=

    Nuclear Repulsion Energy =           1324.7445181462155688
    One-Electron Energy =               -3846.9861750547247539
    Two-Electron Energy =                1635.8777974895431271
    Total Energy =                       -886.3638594189658306
  Basis Set: (AUG-CC-PVTZ AUX)
    Blend: AUG-CC-PVTZ-RI
    Molecular point group: c1

    Geometry (in Angstrom), charge = 0, multiplicity = 1:

       Center              X                  Y                   Z               Mass
    ------------   -----------------  -----------------  -----------------  -----------------
         O           -1.245434555083    -0.649840259116     1.031738253688    15.994914619570
         O           -1.242308555083     2.485678740884    -0.686939746312    15.994914619570
         O           -3.213863555083     1.523926740884     0.744110253688    15.994914619570
         O           -2.354362555083    -3.064009259116     0.094163253688    15.994914619570
         O            1.363196444917     2.249861740884    -0.077318746312    15.994914619570
         N            0.846070444917     0.048050740884     0.255166253688    14.003074004430
         N            3.059892444917     0.723330740884    -0.294503746312    14.003074004430
         N            4.719129444917    -0.833827259116    -0.573074746312    14.003074004430
         C           -1.286817555083     1.081257740884    -0.592853746312    12.000000000000
         C           -2.712504555083     0.658034740884    -0.258169746312    12.000000000000
         C           -0.522741555083     0.484347740884     0.599317253688    12.000000000000
         C           -2.526589555083    -0.714058259116     0.360279253688    12.000000000000
         C           -2.525677555083    -1.847565259116    -0.640066746312    12.000000000000
         C            1.222441444917    -1.258580259116     0.310497253688    12.000000000000
         C            1.747895944917     1.024060640884    -0.054207846312    12.000000000000
         C            2.513767444917    -1.606312259116     0.046218253688    12.000000000000
         C            3.370998744917    -0.558904859116    -0.249938846312    12.000000000000
         H           -0.934939555083     0.594231740884    -1.515667746312     1.007825032230
         H           -3.359915555083     0.645492740884    -1.147241746312     1.007825032230
         H           -0.437623555083     1.224707740884     1.403221253688     1.007825032230
         H           -3.279290555083    -0.905906259116     1.130006253688     1.007825032230
         H           -1.710641555083    -1.697477259116    -1.370240746312     1.007825032230
         H           -3.482894555083    -1.831176259116    -1.184911746312     1.007825032230
         H           -0.294858555083     2.716006740884    -0.525776746312     1.007825032230
         H           -2.844889555083     2.402570740884     0.507886253688     1.007825032230
         H            0.436977444917    -1.960609259116     0.568291253688     1.007825032230
         H           -2.431207555083    -3.795604259116    -0.544009746312     1.007825032230
         H            2.831778444917    -2.642570259116     0.073145253688     1.007825032230
         H            5.127846444917    -1.668033259116    -0.163190746312     1.007825032230
         H            5.322480444917    -0.017226259116    -0.569070746312     1.007825032230

  Basis Set: AUG-CC-PVTZ
    Blend: AUG-CC-PVTZ
  Basis Set: (AUG-CC-PVTZ AUX)
    Blend: AUG-CC-PVTZ-JKFIT
	 Reference Energy          =    -886.3638594189657169 [Eh]
	 Singles Energy            =      -0.0000000000000000 [Eh]
	 Same-Spin Energy          =      -0.9023282211951806 [Eh]
	 Opposite-Spin Energy      =      -2.7168324182626713 [Eh]
	 Correlation Energy        =      -3.6191606394578519 [Eh]
	 Total Energy              =    -889.9830200584235627 [Eh]

	 ================> DF-SCS-MP2 Energies <==================
	-----------------------------------------------------------
	 SCS Same-Spin Scale       =       0.3333333333333333 [-]
	 SCS Opposite-Spin Scale   =       1.2000000000000000 [-]
	 SCS Same-Spin Energy      =      -0.3007760737317269 [Eh]
	 SCS Opposite-Spin Energy  =      -3.2601989019152056 [Eh]
	 SCS Correlation Energy    =      -3.5609749756469324 [Eh]
	 SCS Total Energy          =    -889.9248343946126170 [Eh]
	-----------------------------------------------------------

  Dipole Moment: [D]
     X:     1.3223      Y:    -6.3296      Z:    -1.7038     Total:     6.6869

*** Psi4 exiting successfully. Buy a developer a beer!
