                               Psi4 1.4a3.dev225

  ==> Input File <==

--------------------------------------------------------------------------
#psi4
#
memory 32 gb

molecule  {
0 1
  O       -1.3191770     0.6538360    -1.0992360
  O       -1.5735610    -2.4640850     0.5135810
  O       -3.5606630    -1.0699430    -0.4600060
  O       -1.4399290     3.1254620     0.1265180
  O        1.1065530    -2.3833650     0.0076020
  N        0.7686360    -0.1579440    -0.3706350
  N        2.9363770    -0.9938720     0.1460080
  N        4.7058880     0.4431110     0.3611260
  C       -1.3768610    -1.0680440     0.5552780
  C       -2.7379840    -0.3746360     0.4578480
  C       -0.6377490    -0.5042940    -0.6790150
  C       -2.3707440     0.9655450    -0.1585060
  C       -1.8927639     2.0055002     0.8468947
  C        1.2309690     1.1190800    -0.4442230
  C        1.6104480    -1.2470590    -0.0585760
  C        2.5474650     1.3753690    -0.1998620
  C        3.3802090     0.2523040     0.0808410
  H       -0.8441360    -0.7686950     1.4698480
  H       -3.2257400    -0.2778790     1.4400230
  H       -0.6227070    -1.2428120    -1.4883720
  H       -3.1941750     1.3785730    -0.7472070
  H       -1.0952130     1.5703990     1.4802000
  H       -2.7410530     2.2466610     1.5166010
  H       -0.6710550    -2.8260740     0.3542250
  H       -3.3063470    -2.0105220    -0.3629290
  H        0.4929290     1.8778260    -0.6840360
  H       -1.2098800     3.8154810     0.7720340
  H        2.9334840     2.3875570    -0.2389120
  H        5.1589650     1.2712730    -0.0008400
  H        5.2635310    -0.4031270     0.3606700
units angstrom
no_reorient  #important for SAPT in psi4, default
symmetry c1  #important for SAPT in psi4, default
}

set PROPERTIES_ORIGIN ["COM"]
properties('MP2/aug-cc-pvtz', properties = ['dipole'])
--------------------------------------------------------------------------

    Molecular point group: c1
  Charge       = 0
  Multiplicity = 1
  Basis Set: AUG-CC-PVTZ
    Blend: AUG-CC-PVTZ
  Basis Set: (AUG-CC-PVTZ AUX)
    Blend: AUG-CC-PVTZ-JKFIT

    Orbital Energies [Eh]
    ---------------------

    Doubly Occupied:

       1A    -20.588780     2A    -20.580881     3A    -20.559091
       4A    -20.556303     5A    -20.519597     6A    -15.632844
       7A    -15.599634     8A    -15.551693     9A    -11.385856
      10A    -11.358022    11A    -11.339320    12A    -11.325186
      13A    -11.303920    14A    -11.297577    15A    -11.296650
      16A    -11.293392    17A    -11.246561    18A     -1.429230
      19A     -1.395853    20A     -1.387829    21A     -1.376420
      22A     -1.346342    23A     -1.303576    24A     -1.271231
      25A     -1.181124    26A     -1.079264    27A     -1.066305
      28A     -1.016790    29A     -0.935764    30A     -0.906469
      31A     -0.876637    32A     -0.829830    33A     -0.811694
      34A     -0.766334    35A     -0.750477    36A     -0.735866
      37A     -0.723166    38A     -0.710667    39A     -0.702884
      40A     -0.685168    41A     -0.674928    42A     -0.653561
      43A     -0.648997    44A     -0.633428    45A     -0.620645
      46A     -0.615758    47A     -0.608147    48A     -0.593259
      49A     -0.578763    50A     -0.565215    51A     -0.556181
      52A     -0.548017    53A     -0.536423    54A     -0.530457
      55A     -0.495408    56A     -0.479208    57A     -0.473046
      58A     -0.462305    59A     -0.457786    60A     -0.452370
      61A     -0.441506    62A     -0.430049    63A     -0.392155
      64A     -0.348162

  @DF-RHF Final Energy:  -886.37412614595621

   => Energetics <=

    Nuclear Repulsion Energy =           1334.6283100450648362
    One-Electron Energy =               -3866.9648708858044301
    Two-Electron Energy =                1645.9624346947830418
    Total Energy =                       -886.3741261459563248
  Basis Set: (AUG-CC-PVTZ AUX)
    Blend: AUG-CC-PVTZ-RI
    Molecular point group: c1

    Geometry (in Angstrom), charge = 0, multiplicity = 1:

       Center              X                  Y                   Z               Mass
    ------------   -----------------  -----------------  -----------------  -----------------
         O           -1.332238523174     0.681661313793    -1.082950125080    15.994914619570
         O           -1.586622523174    -2.436259686207     0.529866874920    15.994914619570
         O           -3.573724523174    -1.042117686207    -0.443720125080    15.994914619570
         O           -1.452990523174     3.153287313793     0.142803874920    15.994914619570
         O            1.093491476826    -2.355539686207     0.023887874920    15.994914619570
         N            0.755574476826    -0.130118686207    -0.354349125080    14.003074004430
         N            2.923315476826    -0.966046686207     0.162293874920    14.003074004430
         N            4.692826476826     0.470936313793     0.377411874920    14.003074004430
         C           -1.389922523174    -1.040218686207     0.571563874920    12.000000000000
         C           -2.751045523174    -0.346810686207     0.474133874920    12.000000000000
         C           -0.650810523174    -0.476468686207    -0.662729125080    12.000000000000
         C           -2.383805523174     0.993370313793    -0.142220125080    12.000000000000
         C           -1.905825423174     2.033325513793     0.863180574920    12.000000000000
         C            1.217907476826     1.146905313793    -0.427937125080    12.000000000000
         C            1.597386476826    -1.219233686207    -0.042290125080    12.000000000000
         C            2.534403476826     1.403194313793    -0.183576125080    12.000000000000
         C            3.367147476826     0.280129313793     0.097126874920    12.000000000000
         H           -0.857197523174    -0.740869686207     1.486133874920     1.007825032230
         H           -3.238801523174    -0.250053686207     1.456308874920     1.007825032230
         H           -0.635768523174    -1.214986686207    -1.472086125080     1.007825032230
         H           -3.207236523174     1.406398313793    -0.730921125080     1.007825032230
         H           -1.108274523174     1.598224313793     1.496485874920     1.007825032230
         H           -2.754114523174     2.274486313793     1.532886874920     1.007825032230
         H           -0.684116523174    -2.798248686207     0.370510874920     1.007825032230
         H           -3.319408523174    -1.982696686207    -0.346643125080     1.007825032230
         H            0.479867476826     1.905651313793    -0.667750125080     1.007825032230
         H           -1.222941523174     3.843306313793     0.788319874920     1.007825032230
         H            2.920422476826     2.415382313793    -0.222626125080     1.007825032230
         H            5.145903476826     1.299098313793     0.015445874920     1.007825032230
         H            5.250469476826    -0.375301686207     0.376955874920     1.007825032230

  Basis Set: AUG-CC-PVTZ
    Blend: AUG-CC-PVTZ
  Basis Set: (AUG-CC-PVTZ AUX)
    Blend: AUG-CC-PVTZ-JKFIT
	 Reference Energy          =    -886.3741261459562111 [Eh]
	 Singles Energy            =      -0.0000000000000000 [Eh]
	 Same-Spin Energy          =      -0.9017712492076633 [Eh]
	 Opposite-Spin Energy      =      -2.7156003223065293 [Eh]
	 Correlation Energy        =      -3.6173715715141928 [Eh]
	 Total Energy              =    -889.9914977174704518 [Eh]

	 ================> DF-SCS-MP2 Energies <==================
	-----------------------------------------------------------
	 SCS Same-Spin Scale       =       0.3333333333333333 [-]
	 SCS Opposite-Spin Scale   =       1.2000000000000000 [-]
	 SCS Same-Spin Energy      =      -0.3005904164025544 [Eh]
	 SCS Opposite-Spin Energy  =      -3.2587203867678349 [Eh]
	 SCS Correlation Energy    =      -3.5593108031703893 [Eh]
	 SCS Total Energy          =    -889.9334369491266443 [Eh]
	-----------------------------------------------------------

  Dipole Moment: [D]
     X:     2.7541      Y:     5.8608      Z:     1.9192     Total:     6.7541

*** Psi4 exiting successfully. Buy a developer a beer!
