                               Psi4 1.3.2 release

  ==> Input File <==

--------------------------------------------------------------------------
#psi4
#
memory 32 gb

molecule  {
0 1
  O       -1.2481010    -0.6526680     1.0325150
  O       -1.2449750     2.4828510    -0.6861630
  O       -3.2165300     1.5210990     0.7448870
  O       -2.3570290    -3.0668370     0.0949400
  O        1.3605300     2.2470340    -0.0765420
  N        0.8434040     0.0452230     0.2559430
  N        3.0572260     0.7205030    -0.2937270
  N        4.7164630    -0.8366550    -0.5722980
  C       -1.2894840     1.0784300    -0.5920770
  C       -2.7151710     0.6552070    -0.2573930
  C       -0.5254080     0.4815200     0.6000940
  C       -2.5292560    -0.7168860     0.3610560
  C       -2.5283440    -1.8503930    -0.6392900
  C        1.2144997    -1.2843635     0.3146309
  C        1.7555940     1.0674350    -0.0594030
  C        2.5111010    -1.6091400     0.0469950
  C        3.4302596    -0.5672651    -0.2615733
  H       -0.9376060     0.5914040    -1.5148910
  H       -3.3625820     0.6426650    -1.1464650
  H       -0.4402900     1.2218800     1.4039980
  H       -3.2819570    -0.9087340     1.1307830
  H       -1.7133080    -1.7003050    -1.3694640
  H       -3.4855610    -1.8340040    -1.1841350
  H       -0.2975250     2.7131790    -0.5250000
  H       -2.8475560     2.3997430     0.5086630
  H        0.4343110    -1.9634370     0.5690680
  H       -2.4338740    -3.7984320    -0.5432330
  H        2.8291120    -2.6453980     0.0739220
  H        5.1251800    -1.6708610    -0.1624140
  H        5.3198140    -0.0200540    -0.5682940
units angstrom
no_reorient  #important for SAPT in psi4, default
symmetry c1  #important for SAPT in psi4, default
}

set PROPERTIES_ORIGIN ["COM"]
properties('MP2/aug-cc-pvtz', properties = ['dipole'])
--------------------------------------------------------------------------

    Molecular point group: c1
  Charge       = 0
  Multiplicity = 1
  Basis Set: AUG-CC-PVTZ
    Blend: AUG-CC-PVTZ
  Basis Set: (AUG-CC-PVTZ AUX)
    Blend: AUG-CC-PVTZ-JKFIT

    Orbital Energies [Eh]
    ---------------------

    Doubly Occupied:

       1A    -20.581870     2A    -20.580353     3A    -20.556703
       4A    -20.555683     5A    -20.519012     6A    -15.634181
       7A    -15.605334     8A    -15.551930     9A    -11.385509
      10A    -11.360573    11A    -11.339223    12A    -11.329834
      13A    -11.300578    14A    -11.295976    15A    -11.294938
      16A    -11.291779    17A    -11.250593    18A     -1.427251
      19A     -1.393023    20A     -1.378908    21A     -1.372025
      22A     -1.344921    23A     -1.305084    24A     -1.272799
      25A     -1.180043    26A     -1.081741    27A     -1.066639
      28A     -1.019765    29A     -0.934487    30A     -0.909068
      31A     -0.875289    32A     -0.831078    33A     -0.811009
      34A     -0.767683    35A     -0.750472    36A     -0.734404
      37A     -0.725375    38A     -0.703050    39A     -0.697488
      40A     -0.688074    41A     -0.672758    42A     -0.652711
      43A     -0.649629    44A     -0.635802    45A     -0.624274
      46A     -0.613886    47A     -0.607773    48A     -0.589844
      49A     -0.575392    50A     -0.569557    51A     -0.553566
      52A     -0.545525    53A     -0.536959    54A     -0.532134
      55A     -0.494859    56A     -0.476671    57A     -0.473065
      58A     -0.460880    59A     -0.456892    60A     -0.451508
      61A     -0.439709    62A     -0.430616    63A     -0.391837
      64A     -0.350518

  @DF-RHF Final Energy:  -886.37076524966051

   => Energetics <=

    Nuclear Repulsion Energy =           1322.8642275762915688
    One-Electron Energy =               -3843.4897621227805757
    Two-Electron Energy =                1634.2547692968282718
    Total Energy =                       -886.3707652496605078
  Basis Set: (AUG-CC-PVTZ AUX)
    Blend: AUG-CC-PVTZ-RI
    Molecular point group: c1

    Geometry (in Angstrom), charge = 0, multiplicity = 1:

       Center              X                  Y                   Z               Mass
    ------------   -----------------  -----------------  -----------------  -----------------
         O           -1.248742847565    -0.650714721732     1.032480027199    15.994914619570
         O           -1.245616847565     2.484804278268    -0.686197972801    15.994914619570
         O           -3.217171847565     1.523052278268     0.744852027199    15.994914619570
         O           -2.357670847565    -3.064883721732     0.094905027199    15.994914619570
         O            1.359888152435     2.248987278268    -0.076576972801    15.994914619570
         N            0.842762152435     0.047176278268     0.255908027199    14.003074004430
         N            3.056584152435     0.722456278268    -0.293761972801    14.003074004430
         N            4.715821152435    -0.834701721732    -0.572332972801    14.003074004430
         C           -1.290125847565     1.080383278268    -0.592111972801    12.000000000000
         C           -2.715812847565     0.657160278268    -0.257427972801    12.000000000000
         C           -0.526049847565     0.483473278268     0.600059027199    12.000000000000
         C           -2.529897847565    -0.714932721732     0.361021027199    12.000000000000
         C           -2.528985847565    -1.848439721732    -0.639324972801    12.000000000000
         C            1.213857852435    -1.282410221732     0.314595927199    12.000000000000
         C            1.754952152435     1.069388278268    -0.059437972801    12.000000000000
         C            2.510459152435    -1.607186721732     0.046960027199    12.000000000000
         C            3.429617752435    -0.565311821732    -0.261608272801    12.000000000000
         H           -0.938247847565     0.593357278268    -1.514925972801     1.007825032230
         H           -3.363223847565     0.644618278268    -1.146499972801     1.007825032230
         H           -0.440931847565     1.223833278268     1.403963027199     1.007825032230
         H           -3.282598847565    -0.906780721732     1.130748027199     1.007825032230
         H           -1.713949847565    -1.698351721732    -1.369498972801     1.007825032230
         H           -3.486202847565    -1.832050721732    -1.184169972801     1.007825032230
         H           -0.298166847565     2.715132278268    -0.525034972801     1.007825032230
         H           -2.848197847565     2.401696278268     0.508628027199     1.007825032230
         H            0.433669152435    -1.961483721732     0.569033027199     1.007825032230
         H           -2.434515847565    -3.796478721732    -0.543267972801     1.007825032230
         H            2.828470152435    -2.643444721732     0.073887027199     1.007825032230
         H            5.124538152435    -1.668907721732    -0.162448972801     1.007825032230
         H            5.319172152435    -0.018100721732    -0.568328972801     1.007825032230

  Basis Set: AUG-CC-PVTZ
    Blend: AUG-CC-PVTZ
  Basis Set: (AUG-CC-PVTZ AUX)
    Blend: AUG-CC-PVTZ-JKFIT
	 Reference Energy          =    -886.3707652496605078 [Eh]
	 Singles Energy            =      -0.0000000000000000 [Eh]
	 Same-Spin Energy          =      -0.9014361963681456 [Eh]
	 Opposite-Spin Energy      =      -2.7155373995031322 [Eh]
	 Correlation Energy        =      -3.6169735958712779 [Eh]
	 Total Energy              =    -889.9877388455317941 [Eh]

	 ================> DF-SCS-MP2 Energies <==================
	-----------------------------------------------------------
	 SCS Same-Spin Scale       =       0.3333333333333333 [-]
	 SCS Opposite-Spin Scale   =       1.2000000000000000 [-]
	 SCS Same-Spin Energy      =      -0.3004787321227152 [Eh]
	 SCS Opposite-Spin Energy  =      -3.2586448794037586 [Eh]
	 SCS Correlation Energy    =      -3.5591236115264739 [Eh]
	 SCS Total Energy          =    -889.9298888611870098 [Eh]
	-----------------------------------------------------------

  Dipole Moment: [D]
     X:     1.9910      Y:    -6.1045      Z:    -1.8639     Total:     6.6861

*** Psi4 exiting successfully. Buy a developer a beer!
