                               Psi4 1.3.2 release

  ==> Input File <==

--------------------------------------------------------------------------
#psi4
#
memory 32 gb

molecule  {
0 1
  O       -1.2481010    -0.6526680     1.0325150
  O       -1.2449750     2.4828510    -0.6861630
  O       -3.2165300     1.5210990     0.7448870
  O       -2.3570290    -3.0668370     0.0949400
  O        1.3605300     2.2470340    -0.0765420
  N        0.8985526    -0.0031617     0.2500383
  N        3.0392227     0.6522613    -0.2817622
  N        4.7164630    -0.8366550    -0.5722980
  C       -1.2894840     1.0784300    -0.5920770
  C       -2.7151710     0.6552070    -0.2573930
  C       -0.5254080     0.4815200     0.6000940
  C       -2.5292560    -0.7168860     0.3610560
  C       -2.5283440    -1.8503930    -0.6392900
  C        1.2197750    -1.2614080     0.3112740
  C        1.7555940     1.0674350    -0.0594030
  C        2.5111010    -1.6091400     0.0469950
  C        3.4119830    -0.5506530    -0.2589250
  H       -0.9376060     0.5914040    -1.5148910
  H       -3.3625820     0.6426650    -1.1464650
  H       -0.4402900     1.2218800     1.4039980
  H       -3.2819570    -0.9087340     1.1307830
  H       -1.7133080    -1.7003050    -1.3694640
  H       -3.4855610    -1.8340040    -1.1841350
  H       -0.2975250     2.7131790    -0.5250000
  H       -2.8475560     2.3997430     0.5086630
  H        0.4343110    -1.9634370     0.5690680
  H       -2.4338740    -3.7984320    -0.5432330
  H        2.8291120    -2.6453980     0.0739220
  H        5.1251800    -1.6708610    -0.1624140
  H        5.3198140    -0.0200540    -0.5682940
units angstrom
no_reorient  #important for SAPT in psi4, default
symmetry c1  #important for SAPT in psi4, default
}

set PROPERTIES_ORIGIN ["COM"]
properties('MP2/aug-cc-pvtz', properties = ['dipole'])
--------------------------------------------------------------------------

    Molecular point group: c1
  Charge       = 0
  Multiplicity = 1
  Basis Set: AUG-CC-PVTZ
    Blend: AUG-CC-PVTZ
  Basis Set: (AUG-CC-PVTZ AUX)
    Blend: AUG-CC-PVTZ-JKFIT

    Orbital Energies [Eh]
    ---------------------

    Doubly Occupied:

       1A    -20.583923     2A    -20.582754     3A    -20.561314
       4A    -20.560446     5A    -20.533295     6A    -15.636823
       7A    -15.590210     8A    -15.543474     9A    -11.396210
      10A    -11.348718    11A    -11.343441    12A    -11.317035
      13A    -11.302204    14A    -11.301197    15A    -11.298724
      16A    -11.295950    17A    -11.237070    18A     -1.430883
      19A     -1.402411    20A     -1.382976    21A     -1.373905
      22A     -1.349700    23A     -1.320776    24A     -1.279115
      25A     -1.185297    26A     -1.075614    27A     -1.069862
      28A     -1.023373    29A     -0.934410    30A     -0.916293
      31A     -0.883134    32A     -0.832066    33A     -0.813136
      34A     -0.765864    35A     -0.756201    36A     -0.738488
      37A     -0.719539    38A     -0.702982    39A     -0.700336
      40A     -0.684401    41A     -0.670942    42A     -0.658931
      43A     -0.652850    44A     -0.641558    45A     -0.622726
      46A     -0.619522    47A     -0.607562    48A     -0.593222
      49A     -0.576114    50A     -0.571368    51A     -0.554513
      52A     -0.546214    53A     -0.539596    54A     -0.533150
      55A     -0.506875    56A     -0.479695    57A     -0.476984
      58A     -0.469861    59A     -0.462387    60A     -0.455822
      61A     -0.442040    62A     -0.421110    63A     -0.399825
      64A     -0.343147

  @DF-RHF Final Energy:  -886.36220834913649

   => Energetics <=

    Nuclear Repulsion Energy =           1325.1366645484933997
    One-Electron Energy =               -3847.7586189595645010
    Two-Electron Energy =                1636.2597460619344929
    Total Energy =                       -886.3622083491363810
  Basis Set: (AUG-CC-PVTZ AUX)
    Blend: AUG-CC-PVTZ-RI
    Molecular point group: c1

    Geometry (in Angstrom), charge = 0, multiplicity = 1:

       Center              X                  Y                   Z               Mass
    ------------   -----------------  -----------------  -----------------  -----------------
         O           -1.250240809204    -0.645949662474     1.032165912115    15.994914619570
         O           -1.247114809204     2.489569337526    -0.686512087885    15.994914619570
         O           -3.218669809204     1.527817337526     0.744537912115    15.994914619570
         O           -2.359168809204    -3.060118662474     0.094590912115    15.994914619570
         O            1.358390190796     2.253752337526    -0.076891087885    15.994914619570
         N            0.896412790796     0.003556637526     0.249689212115    14.003074004430
         N            3.037082890796     0.658979637526    -0.282111287885    14.003074004430
         N            4.714323190796    -0.829936662474    -0.572647087885    14.003074004430
         C           -1.291623809204     1.085148337526    -0.592426087885    12.000000000000
         C           -2.717310809204     0.661925337526    -0.257742087885    12.000000000000
         C           -0.527547809204     0.488238337526     0.599744912115    12.000000000000
         C           -2.531395809204    -0.710167662474     0.360706912115    12.000000000000
         C           -2.530483809204    -1.843674662474    -0.639639087885    12.000000000000
         C            1.217635190796    -1.254689662474     0.310924912115    12.000000000000
         C            1.753454190796     1.074153337526    -0.059752087885    12.000000000000
         C            2.508961190796    -1.602421662474     0.046645912115    12.000000000000
         C            3.409843190796    -0.543934662474    -0.259274087885    12.000000000000
         H           -0.939745809204     0.598122337526    -1.515240087885     1.007825032230
         H           -3.364721809204     0.649383337526    -1.146814087885     1.007825032230
         H           -0.442429809204     1.228598337526     1.403648912115     1.007825032230
         H           -3.284096809204    -0.902015662474     1.130433912115     1.007825032230
         H           -1.715447809204    -1.693586662474    -1.369813087885     1.007825032230
         H           -3.487700809204    -1.827285662474    -1.184484087885     1.007825032230
         H           -0.299664809204     2.719897337526    -0.525349087885     1.007825032230
         H           -2.849695809204     2.406461337526     0.508313912115     1.007825032230
         H            0.432171190796    -1.956718662474     0.568718912115     1.007825032230
         H           -2.436013809204    -3.791713662474    -0.543582087885     1.007825032230
         H            2.826972190796    -2.638679662474     0.073572912115     1.007825032230
         H            5.123040190796    -1.664142662474    -0.162763087885     1.007825032230
         H            5.317674190796    -0.013335662474    -0.568643087885     1.007825032230

  Basis Set: AUG-CC-PVTZ
    Blend: AUG-CC-PVTZ
  Basis Set: (AUG-CC-PVTZ AUX)
    Blend: AUG-CC-PVTZ-JKFIT
	 Reference Energy          =    -886.3622083491364947 [Eh]
	 Singles Energy            =      -0.0000000000000000 [Eh]
	 Same-Spin Energy          =      -0.9019262447560311 [Eh]
	 Opposite-Spin Energy      =      -2.7147493783236136 [Eh]
	 Correlation Energy        =      -3.6166756230796446 [Eh]
	 Total Energy              =    -889.9788839722161811 [Eh]

	 ================> DF-SCS-MP2 Energies <==================
	-----------------------------------------------------------
	 SCS Same-Spin Scale       =       0.3333333333333333 [-]
	 SCS Opposite-Spin Scale   =       1.2000000000000000 [-]
	 SCS Same-Spin Energy      =      -0.3006420815853437 [Eh]
	 SCS Opposite-Spin Energy  =      -3.2576992539883363 [Eh]
	 SCS Correlation Energy    =      -3.5583413355736799 [Eh]
	 SCS Total Energy          =    -889.9205496847101813 [Eh]
	-----------------------------------------------------------

  Dipole Moment: [D]
     X:     1.2301      Y:    -5.5015      Z:    -1.7875     Total:     5.9139

*** Psi4 exiting successfully. Buy a developer a beer!
