                               Psi4 1.3.2 release

  ==> Input File <==

--------------------------------------------------------------------------
#psi4
#
memory 32 gb

molecule  {
0 1
  O       -1.2481010    -0.6526680     1.0325150
  O       -1.2449750     2.4828510    -0.6861630
  O       -3.1733324     1.5451294     0.7445159
  O       -2.3570290    -3.0668370     0.0949400
  O        1.3605300     2.2470340    -0.0765420
  N        0.8434040     0.0452230     0.2559430
  N        3.0572260     0.7205030    -0.2937270
  N        4.7164630    -0.8366550    -0.5722980
  C       -1.2935938     1.1173965    -0.5560796
  C       -2.7151710     0.6552070    -0.2573930
  C       -0.5254080     0.4815200     0.6000940
  C       -2.5292560    -0.7168860     0.3610560
  C       -2.5283440    -1.8503930    -0.6392900
  C        1.2197750    -1.2614080     0.3112740
  C        1.7555940     1.0674350    -0.0594030
  C        2.5111010    -1.6091400     0.0469950
  C        3.4119830    -0.5506530    -0.2589250
  H       -0.9376060     0.5914040    -1.5148910
  H       -3.3625820     0.6426650    -1.1464650
  H       -0.4402900     1.2218800     1.4039980
  H       -3.2819570    -0.9087340     1.1307830
  H       -1.7133080    -1.7003050    -1.3694640
  H       -3.4855610    -1.8340040    -1.1841350
  H       -0.2975250     2.7131790    -0.5250000
  H       -2.8475560     2.3997430     0.5086630
  H        0.4343110    -1.9634370     0.5690680
  H       -2.4338740    -3.7984320    -0.5432330
  H        2.8291120    -2.6453980     0.0739220
  H        5.1251800    -1.6708610    -0.1624140
  H        5.3198140    -0.0200540    -0.5682940
units angstrom
no_reorient  #important for SAPT in psi4, default
symmetry c1  #important for SAPT in psi4, default
}

set PROPERTIES_ORIGIN ["COM"]
properties('MP2/aug-cc-pvtz', properties = ['dipole'])
--------------------------------------------------------------------------

    Molecular point group: c1
  Charge       = 0
  Multiplicity = 1
  Basis Set: AUG-CC-PVTZ
    Blend: AUG-CC-PVTZ
  Basis Set: (AUG-CC-PVTZ AUX)
    Blend: AUG-CC-PVTZ-JKFIT

    Orbital Energies [Eh]
    ---------------------

    Doubly Occupied:

       1A    -20.582305     2A    -20.582035     3A    -20.559317
       4A    -20.553185     5A    -20.522119     6A    -15.636817
       7A    -15.599584     8A    -15.553083     9A    -11.388169
      10A    -11.357575    11A    -11.340254    12A    -11.328249
      13A    -11.301246    14A    -11.298105    15A    -11.297523
      16A    -11.293395    17A    -11.248205    18A     -1.431095
      19A     -1.396627    20A     -1.390296    21A     -1.373915
      22A     -1.355422    23A     -1.305913    24A     -1.273479
      25A     -1.181995    26A     -1.081713    27A     -1.067817
      28A     -1.021199    29A     -0.936199    30A     -0.909149
      31A     -0.877777    32A     -0.831398    33A     -0.813133
      34A     -0.766574    35A     -0.753763    36A     -0.737552
      37A     -0.719629    38A     -0.707973    39A     -0.699514
      40A     -0.685431    41A     -0.676295    42A     -0.654531
      43A     -0.651843    44A     -0.637410    45A     -0.621794
      46A     -0.616484    47A     -0.606652    48A     -0.595602
      49A     -0.577657    50A     -0.570454    51A     -0.557412
      52A     -0.546060    53A     -0.539716    54A     -0.532429
      55A     -0.497708    56A     -0.477884    57A     -0.473142
      58A     -0.462536    59A     -0.460560    60A     -0.444771
      61A     -0.439648    62A     -0.432177    63A     -0.394836
      64A     -0.349730

  @DF-RHF Final Energy:  -886.37112275838160

   => Energetics <=

    Nuclear Repulsion Energy =           1324.9205894704355160
    One-Electron Energy =               -3847.4313012258353410
    Two-Electron Energy =                1636.1395889970183362
    Total Energy =                       -886.3711227583814889
  Basis Set: (AUG-CC-PVTZ AUX)
    Blend: AUG-CC-PVTZ-RI
    Molecular point group: c1

    Geometry (in Angstrom), charge = 0, multiplicity = 1:

       Center              X                  Y                   Z               Mass
    ------------   -----------------  -----------------  -----------------  -----------------
         O           -1.250740534316    -0.656172773669     1.030762401705    15.994914619570
         O           -1.247614534316     2.479346226331    -0.687915598295    15.994914619570
         O           -3.175971934316     1.541624626331     0.742763301705    15.994914619570
         O           -2.359668534316    -3.070341773669     0.093187401705    15.994914619570
         O            1.357890465684     2.243529226331    -0.078294598295    15.994914619570
         N            0.840764465684     0.041718226331     0.254190401705    14.003074004430
         N            3.054586465684     0.716998226331    -0.295479598295    14.003074004430
         N            4.713823465684    -0.840159773669    -0.574050598295    14.003074004430
         C           -1.296233334316     1.113891726331    -0.557832198295    12.000000000000
         C           -2.717810534316     0.651702226331    -0.259145598295    12.000000000000
         C           -0.528047534316     0.478015226331     0.598341401705    12.000000000000
         C           -2.531895534316    -0.720390773669     0.359303401705    12.000000000000
         C           -2.530983534316    -1.853897773669    -0.641042598295    12.000000000000
         C            1.217135465684    -1.264912773669     0.309521401705    12.000000000000
         C            1.752954465684     1.063930226331    -0.061155598295    12.000000000000
         C            2.508461465684    -1.612644773669     0.045242401705    12.000000000000
         C            3.409343465684    -0.554157773669    -0.260677598295    12.000000000000
         H           -0.940245534316     0.587899226331    -1.516643598295     1.007825032230
         H           -3.365221534316     0.639160226331    -1.148217598295     1.007825032230
         H           -0.442929534316     1.218375226331     1.402245401705     1.007825032230
         H           -3.284596534316    -0.912238773669     1.129030401705     1.007825032230
         H           -1.715947534316    -1.703809773669    -1.371216598295     1.007825032230
         H           -3.488200534316    -1.837508773669    -1.185887598295     1.007825032230
         H           -0.300164534316     2.709674226331    -0.526752598295     1.007825032230
         H           -2.850195534316     2.396238226331     0.506910401705     1.007825032230
         H            0.431671465684    -1.966941773669     0.567315401705     1.007825032230
         H           -2.436513534316    -3.801936773669    -0.544985598295     1.007825032230
         H            2.826472465684    -2.648902773669     0.072169401705     1.007825032230
         H            5.122540465684    -1.674365773669    -0.164166598295     1.007825032230
         H            5.317174465684    -0.023558773669    -0.570046598295     1.007825032230

  Basis Set: AUG-CC-PVTZ
    Blend: AUG-CC-PVTZ
  Basis Set: (AUG-CC-PVTZ AUX)
    Blend: AUG-CC-PVTZ-JKFIT
	 Reference Energy          =    -886.3711227583816026 [Eh]
	 Singles Energy            =      -0.0000000000000000 [Eh]
	 Same-Spin Energy          =      -0.9008625501245361 [Eh]
	 Opposite-Spin Energy      =      -2.7134178037079293 [Eh]
	 Correlation Energy        =      -3.6142803538324655 [Eh]
	 Total Energy              =    -889.9854031122140441 [Eh]

	 ================> DF-SCS-MP2 Energies <==================
	-----------------------------------------------------------
	 SCS Same-Spin Scale       =       0.3333333333333333 [-]
	 SCS Opposite-Spin Scale   =       1.2000000000000000 [-]
	 SCS Same-Spin Energy      =      -0.3002875167081787 [Eh]
	 SCS Opposite-Spin Energy  =      -3.2561013644495151 [Eh]
	 SCS Correlation Energy    =      -3.5563888811576936 [Eh]
	 SCS Total Energy          =    -889.9275116395392615 [Eh]
	-----------------------------------------------------------

  Dipole Moment: [D]
     X:     1.5969      Y:    -5.8839      Z:    -1.7919     Total:     6.3546

*** Psi4 exiting successfully. Buy a developer a beer!
