                               Psi4 1.3.2 release

  ==> Input File <==

--------------------------------------------------------------------------
#psi4
#
memory 32 gb

molecule  {
0 1
  O       -1.2481010    -0.6526680     1.0325150
  O       -1.2449750     2.4828510    -0.6861630
  O       -3.2165300     1.5210990     0.7448870
  O       -2.3570290    -3.0668370     0.0949400
  O        1.3605300     2.2470340    -0.0765420
  N        0.8434040     0.0452230     0.2559430
  N        3.0572260     0.7205030    -0.2937270
  N        4.7164630    -0.8366550    -0.5722980
  C       -1.2894840     1.0784300    -0.5920770
  C       -2.7151710     0.6552070    -0.2573930
  C       -0.5254080     0.4815200     0.6000940
  C       -2.5169963    -0.8073654     0.4018381
  C       -2.5283440    -1.8503930    -0.6392900
  C        1.2197750    -1.2614080     0.3112740
  C        1.7555940     1.0674350    -0.0594030
  C        2.5111010    -1.6091400     0.0469950
  C        3.4119830    -0.5506530    -0.2589250
  H       -0.9376060     0.5914040    -1.5148910
  H       -3.3625820     0.6426650    -1.1464650
  H       -0.4402900     1.2218800     1.4039980
  H       -3.2819570    -0.9087340     1.1307830
  H       -1.7133080    -1.7003050    -1.3694640
  H       -3.4855610    -1.8340040    -1.1841350
  H       -0.2975250     2.7131790    -0.5250000
  H       -2.8475560     2.3997430     0.5086630
  H        0.4343110    -1.9634370     0.5690680
  H       -2.4338740    -3.7984320    -0.5432330
  H        2.8291120    -2.6453980     0.0739220
  H        5.1251800    -1.6708610    -0.1624140
  H        5.3198140    -0.0200540    -0.5682940
units angstrom
no_reorient  #important for SAPT in psi4, default
symmetry c1  #important for SAPT in psi4, default
}

set PROPERTIES_ORIGIN ["COM"]
properties('MP2/aug-cc-pvtz', properties = ['dipole'])
--------------------------------------------------------------------------

    Molecular point group: c1
  Charge       = 0
  Multiplicity = 1
  Basis Set: AUG-CC-PVTZ
    Blend: AUG-CC-PVTZ
  Basis Set: (AUG-CC-PVTZ AUX)
    Blend: AUG-CC-PVTZ-JKFIT

    Orbital Energies [Eh]
    ---------------------

    Doubly Occupied:

       1A    -20.581663     2A    -20.580929     3A    -20.556262
       4A    -20.556151     5A    -20.522140     6A    -15.637330
       7A    -15.600039     8A    -15.553590     9A    -11.388566
      10A    -11.358084    11A    -11.343277    12A    -11.328855
      13A    -11.299382    14A    -11.296299    15A    -11.294849
      16A    -11.293741    17A    -11.248842    18A     -1.430830
      19A     -1.397164    20A     -1.379519    21A     -1.373589
      22A     -1.344131    23A     -1.306426    24A     -1.274445
      25A     -1.182591    26A     -1.082949    27A     -1.058788
      28A     -1.024156    29A     -0.935734    30A     -0.910487
      31A     -0.874506    32A     -0.827938    33A     -0.814822
      34A     -0.767935    35A     -0.752151    36A     -0.737233
      37A     -0.720102    38A     -0.704197    39A     -0.697227
      40A     -0.687319    41A     -0.672306    42A     -0.655826
      43A     -0.652043    44A     -0.637075    45A     -0.620941
      46A     -0.617834    47A     -0.608673    48A     -0.593810
      49A     -0.575927    50A     -0.574569    51A     -0.552110
      52A     -0.541435    53A     -0.537043    54A     -0.534998
      55A     -0.497271    56A     -0.477586    57A     -0.468044
      58A     -0.461195    59A     -0.457933    60A     -0.446573
      61A     -0.437948    62A     -0.433942    63A     -0.395343
      64A     -0.350194

  @DF-RHF Final Energy:  -886.36507669096272

   => Energetics <=

    Nuclear Repulsion Energy =           1322.9916544908387550
    One-Electron Energy =               -3843.6637417577780980
    Two-Electron Energy =                1634.3070105759766193
    Total Energy =                       -886.3650766909627237
  Basis Set: (AUG-CC-PVTZ AUX)
    Blend: AUG-CC-PVTZ-RI
    Molecular point group: c1

    Geometry (in Angstrom), charge = 0, multiplicity = 1:

       Center              X                  Y                   Z               Mass
    ------------   -----------------  -----------------  -----------------  -----------------
         O           -1.248706238227    -0.648201443283     1.030501785143    15.994914619570
         O           -1.245580238227     2.487317556717    -0.688176214857    15.994914619570
         O           -3.217135238227     1.525565556717     0.742873785143    15.994914619570
         O           -2.357634238227    -3.062370443283     0.092926785143    15.994914619570
         O            1.359924761773     2.251500556717    -0.078555214857    15.994914619570
         N            0.842798761773     0.049689556717     0.253929785143    14.003074004430
         N            3.056620761773     0.724969556717    -0.295740214857    14.003074004430
         N            4.715857761773    -0.832188443283    -0.574311214857    14.003074004430
         C           -1.290089238227     1.082896556717    -0.594090214857    12.000000000000
         C           -2.715776238227     0.659673556717    -0.259406214857    12.000000000000
         C           -0.526013238227     0.485986556717     0.598080785143    12.000000000000
         C           -2.517601538227    -0.802898843283     0.399824885143    12.000000000000
         C           -2.528949238227    -1.845926443283    -0.641303214857    12.000000000000
         C            1.219169761773    -1.256941443283     0.309260785143    12.000000000000
         C            1.754988761773     1.071901556717    -0.061416214857    12.000000000000
         C            2.510495761773    -1.604673443283     0.044981785143    12.000000000000
         C            3.411377761773    -0.546186443283    -0.260938214857    12.000000000000
         H           -0.938211238227     0.595870556717    -1.516904214857     1.007825032230
         H           -3.363187238227     0.647131556717    -1.148478214857     1.007825032230
         H           -0.440895238227     1.226346556717     1.401984785143     1.007825032230
         H           -3.282562238227    -0.904267443283     1.128769785143     1.007825032230
         H           -1.713913238227    -1.695838443283    -1.371477214857     1.007825032230
         H           -3.486166238227    -1.829537443283    -1.186148214857     1.007825032230
         H           -0.298130238227     2.717645556717    -0.527013214857     1.007825032230
         H           -2.848161238227     2.404209556717     0.506649785143     1.007825032230
         H            0.433705761773    -1.958970443283     0.567054785143     1.007825032230
         H           -2.434479238227    -3.793965443283    -0.545246214857     1.007825032230
         H            2.828506761773    -2.640931443283     0.071908785143     1.007825032230
         H            5.124574761773    -1.666394443283    -0.164427214857     1.007825032230
         H            5.319208761773    -0.015587443283    -0.570307214857     1.007825032230

  Basis Set: AUG-CC-PVTZ
    Blend: AUG-CC-PVTZ
  Basis Set: (AUG-CC-PVTZ AUX)
    Blend: AUG-CC-PVTZ-JKFIT
	 Reference Energy          =    -886.3650766909627237 [Eh]
	 Singles Energy            =      -0.0000000000000000 [Eh]
	 Same-Spin Energy          =      -0.9011506308358752 [Eh]
	 Opposite-Spin Energy      =      -2.7148378036037881 [Eh]
	 Correlation Energy        =      -3.6159884344396636 [Eh]
	 Total Energy              =    -889.9810651254024378 [Eh]

	 ================> DF-SCS-MP2 Energies <==================
	-----------------------------------------------------------
	 SCS Same-Spin Scale       =       0.3333333333333333 [-]
	 SCS Opposite-Spin Scale   =       1.2000000000000000 [-]
	 SCS Same-Spin Energy      =      -0.3003835436119584 [Eh]
	 SCS Opposite-Spin Energy  =      -3.2578053643245455 [Eh]
	 SCS Correlation Energy    =      -3.5581889079365041 [Eh]
	 SCS Total Energy          =    -889.9232655988992065 [Eh]
	-----------------------------------------------------------

  Dipole Moment: [D]
     X:     1.7417      Y:    -6.0258      Z:    -1.7881     Total:     6.5224

*** Psi4 exiting successfully. Buy a developer a beer!
