                               Psi4 1.3.2 release

  ==> Input File <==

--------------------------------------------------------------------------
#psi4
#
memory 32 gb

molecule  {
0 1
  O       -1.2481010    -0.6526680     1.0325150
  O       -1.2449750     2.4828510    -0.6861630
  O       -3.2165300     1.5210990     0.7448870
  O       -2.3570290    -3.0668370     0.0949400
  O        1.3605300     2.2470340    -0.0765420
  N        0.8434040     0.0452230     0.2559430
  N        3.0572260     0.7205030    -0.2937270
  N        4.7141895    -0.8483225    -0.5708849
  C       -1.2894840     1.0784300    -0.5920770
  C       -2.7151710     0.6552070    -0.2573930
  C       -0.5254080     0.4815200     0.6000940
  C       -2.5292560    -0.7168860     0.3610560
  C       -2.5283440    -1.8503930    -0.6392900
  C        1.2197750    -1.2614080     0.3112740
  C        1.7555940     1.0674350    -0.0594030
  C        2.5202466    -1.6173580     0.0452407
  C        3.4119830    -0.5506530    -0.2589250
  H       -0.9376060     0.5914040    -1.5148910
  H       -3.3625820     0.6426650    -1.1464650
  H       -0.4402900     1.2218800     1.4039980
  H       -3.2819570    -0.9087340     1.1307830
  H       -1.7133080    -1.7003050    -1.3694640
  H       -3.4855610    -1.8340040    -1.1841350
  H       -0.2975250     2.7131790    -0.5250000
  H       -2.8475560     2.3997430     0.5086630
  H        0.4343110    -1.9634370     0.5690680
  H       -2.4338740    -3.7984320    -0.5432330
  H        2.8291120    -2.6453980     0.0739220
  H        5.1251800    -1.6708610    -0.1624140
  H        5.3198140    -0.0200540    -0.5682940
units angstrom
no_reorient  #important for SAPT in psi4, default
symmetry c1  #important for SAPT in psi4, default
}

set PROPERTIES_ORIGIN ["COM"]
properties('MP2/aug-cc-pvtz', properties = ['dipole'])
--------------------------------------------------------------------------

    Molecular point group: c1
  Charge       = 0
  Multiplicity = 1
  Basis Set: AUG-CC-PVTZ
    Blend: AUG-CC-PVTZ
  Basis Set: (AUG-CC-PVTZ AUX)
    Blend: AUG-CC-PVTZ-JKFIT

    Orbital Energies [Eh]
    ---------------------

    Doubly Occupied:

       1A    -20.582354     2A    -20.581865     3A    -20.557976
       4A    -20.557486     5A    -20.522376     6A    -15.637950
       7A    -15.599198     8A    -15.553659     9A    -11.388732
      10A    -11.357596    11A    -11.341985    12A    -11.330295
      13A    -11.301319    14A    -11.297116    15A    -11.296944
      16A    -11.293179    17A    -11.248277    18A     -1.429649
      19A     -1.396661    20A     -1.380313    21A     -1.372970
      22A     -1.346516    23A     -1.305754    24A     -1.273715
      25A     -1.182515    26A     -1.080163    27A     -1.067941
      28A     -1.021509    29A     -0.935572    30A     -0.909879
      31A     -0.877449    32A     -0.832556    33A     -0.811867
      34A     -0.765718    35A     -0.752888    36A     -0.736523
      37A     -0.720619    38A     -0.703075    39A     -0.698675
      40A     -0.685685    41A     -0.672860    42A     -0.655137
      43A     -0.653002    44A     -0.639049    45A     -0.619648
      46A     -0.614221    47A     -0.605208    48A     -0.594909
      49A     -0.575720    50A     -0.569772    51A     -0.554096
      52A     -0.545889    53A     -0.537798    54A     -0.531938
      55A     -0.497827    56A     -0.477643    57A     -0.474595
      58A     -0.462461    59A     -0.460411    60A     -0.453062
      61A     -0.440644    62A     -0.433479    63A     -0.395454
      64A     -0.348978

  @DF-RHF Final Energy:  -886.37269728373451

   => Energetics <=

    Nuclear Repulsion Energy =           1323.4279873362706894
    One-Electron Energy =               -3844.5007286848690455
    Two-Electron Energy =                1634.7000440648637323
    Total Energy =                       -886.3726972837346239
  Basis Set: (AUG-CC-PVTZ AUX)
    Blend: AUG-CC-PVTZ-RI
    Molecular point group: c1

    Geometry (in Angstrom), charge = 0, multiplicity = 1:

       Center              X                  Y                   Z               Mass
    ------------   -----------------  -----------------  -----------------  -----------------
         O           -1.248421543406    -0.651590192774     1.032520206705    15.994914619570
         O           -1.245295543406     2.483928807226    -0.686157793295    15.994914619570
         O           -3.216850543406     1.522176807226     0.744892206705    15.994914619570
         O           -2.357349543406    -3.065759192774     0.094945206705    15.994914619570
         O            1.360209456594     2.248111807226    -0.076536793295    15.994914619570
         N            0.843083456594     0.046300807226     0.255948206705    14.003074004430
         N            3.056905456594     0.721580807226    -0.293721793295    14.003074004430
         N            4.713868956594    -0.847244692774    -0.570879693295    14.003074004430
         C           -1.289804543406     1.079507807226    -0.592071793295    12.000000000000
         C           -2.715491543406     0.656284807226    -0.257387793295    12.000000000000
         C           -0.525728543406     0.482597807226     0.600099206705    12.000000000000
         C           -2.529576543406    -0.715808192774     0.361061206705    12.000000000000
         C           -2.528664543406    -1.849315192774    -0.639284793295    12.000000000000
         C            1.219454456594    -1.260330192774     0.311279206705    12.000000000000
         C            1.755273456594     1.068512807226    -0.059397793295    12.000000000000
         C            2.519926056594    -1.616280192774     0.045245906705    12.000000000000
         C            3.411662456594    -0.549575192774    -0.258919793295    12.000000000000
         H           -0.937926543406     0.592481807226    -1.514885793295     1.007825032230
         H           -3.362902543406     0.643742807226    -1.146459793295     1.007825032230
         H           -0.440610543406     1.222957807226     1.404003206705     1.007825032230
         H           -3.282277543406    -0.907656192774     1.130788206705     1.007825032230
         H           -1.713628543406    -1.699227192774    -1.369458793295     1.007825032230
         H           -3.485881543406    -1.832926192774    -1.184129793295     1.007825032230
         H           -0.297845543406     2.714256807226    -0.524994793295     1.007825032230
         H           -2.847876543406     2.400820807226     0.508668206705     1.007825032230
         H            0.433990456594    -1.962359192774     0.569073206705     1.007825032230
         H           -2.434194543406    -3.797354192774    -0.543227793295     1.007825032230
         H            2.828791456594    -2.644320192774     0.073927206705     1.007825032230
         H            5.124859456594    -1.669783192774    -0.162408793295     1.007825032230
         H            5.319493456594    -0.018976192774    -0.568288793295     1.007825032230

  Basis Set: AUG-CC-PVTZ
    Blend: AUG-CC-PVTZ
  Basis Set: (AUG-CC-PVTZ AUX)
    Blend: AUG-CC-PVTZ-JKFIT
	 Reference Energy          =    -886.3726972837345102 [Eh]
	 Singles Energy            =      -0.0000000000000000 [Eh]
	 Same-Spin Energy          =      -0.9013216171606331 [Eh]
	 Opposite-Spin Energy      =      -2.7151054781977457 [Eh]
	 Correlation Energy        =      -3.6164270953583788 [Eh]
	 Total Energy              =    -889.9891243790929138 [Eh]

	 ================> DF-SCS-MP2 Energies <==================
	-----------------------------------------------------------
	 SCS Same-Spin Scale       =       0.3333333333333333 [-]
	 SCS Opposite-Spin Scale   =       1.2000000000000000 [-]
	 SCS Same-Spin Energy      =      -0.3004405390535443 [Eh]
	 SCS Opposite-Spin Energy  =      -3.2581265738372949 [Eh]
	 SCS Correlation Energy    =      -3.5585671128908394 [Eh]
	 SCS Total Energy          =    -889.9312643966253518 [Eh]
	-----------------------------------------------------------

  Dipole Moment: [D]
     X:     1.6826      Y:    -5.9306      Z:    -1.8180     Total:     6.4272

*** Psi4 exiting successfully. Buy a developer a beer!
