                               Psi4 1.3.2 release

  ==> Input File <==

--------------------------------------------------------------------------
#psi4
#
memory 32 gb

molecule  {
0 1
  O       -1.2481010    -0.6526680     1.0325150
  O       -1.2449750     2.4828510    -0.6861630
  O       -3.2165300     1.5210990     0.7448870
  O       -2.3570290    -3.0668370     0.0949400
  O        1.3605300     2.2470340    -0.0765420
  N        0.8434040     0.0452230     0.2559430
  N        3.0572260     0.7205030    -0.2937270
  N        4.7164630    -0.8366550    -0.5722980
  C       -1.2894840     1.0784300    -0.5920770
  C       -2.6870298     0.6200287    -0.1915166
  C       -0.5954146     0.4536671     0.6283018
  C       -2.5292560    -0.7168860     0.3610560
  C       -2.5283440    -1.8503930    -0.6392900
  C        1.2197750    -1.2614080     0.3112740
  C        1.7555940     1.0674350    -0.0594030
  C        2.5111010    -1.6091400     0.0469950
  C        3.4119830    -0.5506530    -0.2589250
  H       -0.9376060     0.5914040    -1.5148910
  H       -3.3625820     0.6426650    -1.1464650
  H       -0.4402900     1.2218800     1.4039980
  H       -3.2819570    -0.9087340     1.1307830
  H       -1.7133080    -1.7003050    -1.3694640
  H       -3.4855610    -1.8340040    -1.1841350
  H       -0.2975250     2.7131790    -0.5250000
  H       -2.8475560     2.3997430     0.5086630
  H        0.4343110    -1.9634370     0.5690680
  H       -2.4338740    -3.7984320    -0.5432330
  H        2.8291120    -2.6453980     0.0739220
  H        5.1251800    -1.6708610    -0.1624140
  H        5.3198140    -0.0200540    -0.5682940
units angstrom
no_reorient  #important for SAPT in psi4, default
symmetry c1  #important for SAPT in psi4, default
}

set PROPERTIES_ORIGIN ["COM"]
properties('MP2/aug-cc-pvtz', properties = ['dipole'])
--------------------------------------------------------------------------

    Molecular point group: c1
  Charge       = 0
  Multiplicity = 1
  Basis Set: AUG-CC-PVTZ
    Blend: AUG-CC-PVTZ
  Basis Set: (AUG-CC-PVTZ AUX)
    Blend: AUG-CC-PVTZ-JKFIT

    Orbital Energies [Eh]
    ---------------------

    Doubly Occupied:

       1A    -20.591440     2A    -20.586506     3A    -20.561262
       4A    -20.560063     5A    -20.517350     6A    -15.629143
       7A    -15.596678     8A    -15.549774     9A    -11.383762
      10A    -11.353948    11A    -11.344481    12A    -11.323824
      13A    -11.306975    14A    -11.301678    15A    -11.298024
      16A    -11.297338    17A    -11.244254    18A     -1.454684
      19A     -1.394151    20A     -1.385064    21A     -1.379454
      22A     -1.350850    23A     -1.301225    24A     -1.265266
      25A     -1.177110    26A     -1.084897    27A     -1.075115
      28A     -1.025694    29A     -0.934048    30A     -0.905841
      31A     -0.876846    32A     -0.836241    33A     -0.812438
      34A     -0.762975    35A     -0.750658    36A     -0.738498
      37A     -0.720652    38A     -0.708176    39A     -0.705128
      40A     -0.688970    41A     -0.672583    42A     -0.656584
      43A     -0.652482    44A     -0.637772    45A     -0.622354
      46A     -0.615229    47A     -0.609182    48A     -0.588533
      49A     -0.575930    50A     -0.575727    51A     -0.561158
      52A     -0.546801    53A     -0.540714    54A     -0.531974
      55A     -0.496786    56A     -0.481827    57A     -0.479921
      58A     -0.464987    59A     -0.459182    60A     -0.453953
      61A     -0.432574    62A     -0.428549    63A     -0.391615
      64A     -0.345074

  @DF-RHF Final Energy:  -886.35994758209642

   => Energetics <=

    Nuclear Repulsion Energy =           1325.1956844141186593
    One-Electron Energy =               -3847.9073241098212748
    Two-Electron Energy =                1636.3516921136060773
    Total Energy =                       -886.3599475820965381
  Basis Set: (AUG-CC-PVTZ AUX)
    Blend: AUG-CC-PVTZ-RI
    Molecular point group: c1

    Geometry (in Angstrom), charge = 0, multiplicity = 1:

       Center              X                  Y                   Z               Mass
    ------------   -----------------  -----------------  -----------------  -----------------
         O           -1.246034334123    -0.649556433079     1.027870508715    15.994914619570
         O           -1.242908334123     2.485962566921    -0.690807491285    15.994914619570
         O           -3.214463334123     1.524210566921     0.740242508715    15.994914619570
         O           -2.354962334123    -3.063725433079     0.090295508715    15.994914619570
         O            1.362596665877     2.250145566921    -0.081186491285    15.994914619570
         N            0.845470665877     0.048334566921     0.251298508715    14.003074004430
         N            3.059292665877     0.723614566921    -0.298371491285    14.003074004430
         N            4.718529665877    -0.833543433079    -0.576942491285    14.003074004430
         C           -1.287417334123     1.081541566921    -0.596721491285    12.000000000000
         C           -2.684963134123     0.623140266921    -0.196161091285    12.000000000000
         C           -0.593347934123     0.456778666921     0.623657308715    12.000000000000
         C           -2.527189334123    -0.713774433079     0.356411508715    12.000000000000
         C           -2.526277334123    -1.847281433079    -0.643934491285    12.000000000000
         C            1.221841665877    -1.258296433079     0.306629508715    12.000000000000
         C            1.757660665877     1.070546566921    -0.064047491285    12.000000000000
         C            2.513167665877    -1.606028433079     0.042350508715    12.000000000000
         C            3.414049665877    -0.547541433079    -0.263569491285    12.000000000000
         H           -0.935539334123     0.594515566921    -1.519535491285     1.007825032230
         H           -3.360515334123     0.645776566921    -1.151109491285     1.007825032230
         H           -0.438223334123     1.224991566921     1.399353508715     1.007825032230
         H           -3.279890334123    -0.905622433079     1.126138508715     1.007825032230
         H           -1.711241334123    -1.697193433079    -1.374108491285     1.007825032230
         H           -3.483494334123    -1.830892433079    -1.188779491285     1.007825032230
         H           -0.295458334123     2.716290566921    -0.529644491285     1.007825032230
         H           -2.845489334123     2.402854566921     0.504018508715     1.007825032230
         H            0.436377665877    -1.960325433079     0.564423508715     1.007825032230
         H           -2.431807334123    -3.795320433079    -0.547877491285     1.007825032230
         H            2.831178665877    -2.642286433079     0.069277508715     1.007825032230
         H            5.127246665877    -1.667749433079    -0.167058491285     1.007825032230
         H            5.321880665877    -0.016942433079    -0.572938491285     1.007825032230

  Basis Set: AUG-CC-PVTZ
    Blend: AUG-CC-PVTZ
  Basis Set: (AUG-CC-PVTZ AUX)
    Blend: AUG-CC-PVTZ-JKFIT
	 Reference Energy          =    -886.3599475820964244 [Eh]
	 Singles Energy            =      -0.0000000000000000 [Eh]
	 Same-Spin Energy          =      -0.9023011200374529 [Eh]
	 Opposite-Spin Energy      =      -2.7151767692067428 [Eh]
	 Correlation Energy        =      -3.6174778892441957 [Eh]
	 Total Energy              =    -889.9774254713406663 [Eh]

	 ================> DF-SCS-MP2 Energies <==================
	-----------------------------------------------------------
	 SCS Same-Spin Scale       =       0.3333333333333333 [-]
	 SCS Opposite-Spin Scale   =       1.2000000000000000 [-]
	 SCS Same-Spin Energy      =      -0.3007670400124843 [Eh]
	 SCS Opposite-Spin Energy  =      -3.2582121230480912 [Eh]
	 SCS Correlation Energy    =      -3.5589791630605756 [Eh]
	 SCS Total Energy          =    -889.9189267451570231 [Eh]
	-----------------------------------------------------------

  Dipole Moment: [D]
     X:     1.1975      Y:    -6.0854      Z:    -1.6538     Total:     6.4188

*** Psi4 exiting successfully. Buy a developer a beer!
