                               Psi4 1.4a3.dev225

  ==> Input File <==

--------------------------------------------------------------------------
#psi4
#
memory 32 gb

molecule  {
0 1
  O       -1.3191770     0.6538360    -1.0992360
  O       -1.5735610    -2.4640850     0.5135810
  O       -3.5606630    -1.0699430    -0.4600060
  O       -1.4399290     3.1254620     0.1265180
  O        1.1065530    -2.3833650     0.0076020
  N        0.7686360    -0.1579440    -0.3706350
  N        2.9363770    -0.9938720     0.1460080
  N        4.7058880     0.4431110     0.3611260
  C       -1.3768610    -1.0680440     0.5552780
  C       -2.7379840    -0.3746360     0.4578480
  C       -0.6377490    -0.5042940    -0.6790150
  C       -2.3707440     0.9655450    -0.1585060
  C       -1.8992030     1.9895750     0.8571380
  C        1.2309690     1.1190800    -0.4442230
  C        1.6104480    -1.2470590    -0.0585760
  C        2.5667785     1.3791289    -0.1962771
  C        3.3802090     0.2523040     0.0808410
  H       -0.8441360    -0.7686950     1.4698480
  H       -3.2257400    -0.2778790     1.4400230
  H       -0.6227070    -1.2428120    -1.4883720
  H       -3.1941750     1.3785730    -0.7472070
  H       -1.0952130     1.5703990     1.4802000
  H       -2.7410530     2.2466610     1.5166010
  H       -0.6710550    -2.8260740     0.3542250
  H       -3.3063470    -2.0105220    -0.3629290
  H        0.4929290     1.8778260    -0.6840360
  H       -1.2098800     3.8154810     0.7720340
  H        2.9334840     2.3875570    -0.2389120
  H        5.1589650     1.2712730    -0.0008400
  H        5.2635310    -0.4031270     0.3606700
units angstrom
no_reorient  #important for SAPT in psi4, default
symmetry c1  #important for SAPT in psi4, default
}

set PROPERTIES_ORIGIN ["COM"]
properties('MP2/aug-cc-pvtz', properties = ['dipole'])
--------------------------------------------------------------------------

    Molecular point group: c1
  Charge       = 0
  Multiplicity = 1
  Basis Set: AUG-CC-PVTZ
    Blend: AUG-CC-PVTZ
  Basis Set: (AUG-CC-PVTZ AUX)
    Blend: AUG-CC-PVTZ-JKFIT

    Orbital Energies [Eh]
    ---------------------

    Doubly Occupied:

       1A    -20.587176     2A    -20.582098     3A    -20.559784
       4A    -20.556842     5A    -20.519821     6A    -15.635158
       7A    -15.597723     8A    -15.551216     9A    -11.386104
      10A    -11.356284    11A    -11.340443    12A    -11.329282
      13A    -11.304007    14A    -11.298440    15A    -11.297602
      16A    -11.293990    17A    -11.246484    18A     -1.429901
      19A     -1.394386    20A     -1.383451    21A     -1.376005
      22A     -1.346955    23A     -1.303347    24A     -1.271465
      25A     -1.180503    26A     -1.076984    27A     -1.068577
      28A     -1.017889    29A     -0.937213    30A     -0.908327
      31A     -0.876220    32A     -0.830324    33A     -0.812748
      34A     -0.765661    35A     -0.750923    36A     -0.735741
      37A     -0.721723    38A     -0.708386    39A     -0.703678
      40A     -0.684857    41A     -0.675522    42A     -0.653936
      43A     -0.650830    44A     -0.633942    45A     -0.621282
      46A     -0.614728    47A     -0.606470    48A     -0.593474
      49A     -0.577293    50A     -0.565281    51A     -0.556127
      52A     -0.548551    53A     -0.537159    54A     -0.531190
      55A     -0.495209    56A     -0.481198    57A     -0.474053
      58A     -0.464005    59A     -0.458274    60A     -0.453582
      61A     -0.442052    62A     -0.430640    63A     -0.391947
      64A     -0.346589

  @DF-RHF Final Energy:  -886.37305907838356

   => Energetics <=

    Nuclear Repulsion Energy =           1334.2620240037074382
    One-Electron Energy =               -3866.2080544204272883
    Two-Electron Energy =                1645.5729713383361741
    Total Energy =                       -886.3730590783834487
  Basis Set: (AUG-CC-PVTZ AUX)
    Blend: AUG-CC-PVTZ-RI
    Molecular point group: c1

    Geometry (in Angstrom), charge = 0, multiplicity = 1:

       Center              X                  Y                   Z               Mass
    ------------   -----------------  -----------------  -----------------  -----------------
         O           -1.332874072341     0.682261857995    -1.083632758910    15.994914619570
         O           -1.587258072341    -2.435659142005     0.529184241090    15.994914619570
         O           -3.574360072341    -1.041517142005    -0.444402758910    15.994914619570
         O           -1.453626072341     3.153887857995     0.142121241090    15.994914619570
         O            1.092855927659    -2.354939142005     0.023205241090    15.994914619570
         N            0.754938927659    -0.129518142005    -0.355031758910    14.003074004430
         N            2.922679927659    -0.965446142005     0.161611241090    14.003074004430
         N            4.692190927659     0.471536857995     0.376729241090    14.003074004430
         C           -1.390558072341    -1.039618142005     0.570881241090    12.000000000000
         C           -2.751681072341    -0.346210142005     0.473451241090    12.000000000000
         C           -0.651446072341    -0.475868142005    -0.663411758910    12.000000000000
         C           -2.384441072341     0.993970857995    -0.142902758910    12.000000000000
         C           -1.912900072341     2.018000857995     0.872741241090    12.000000000000
         C            1.217271927659     1.147505857995    -0.428619758910    12.000000000000
         C            1.596750927659    -1.218633142005    -0.042972758910    12.000000000000
         C            2.553081427659     1.407554757995    -0.180673858910    12.000000000000
         C            3.366511927659     0.280729857995     0.096444241090    12.000000000000
         H           -0.857833072341    -0.740269142005     1.485451241090     1.007825032230
         H           -3.239437072341    -0.249453142005     1.455626241090     1.007825032230
         H           -0.636404072341    -1.214386142005    -1.472768758910     1.007825032230
         H           -3.207872072341     1.406998857995    -0.731603758910     1.007825032230
         H           -1.108910072341     1.598824857995     1.495803241090     1.007825032230
         H           -2.754750072341     2.275086857995     1.532204241090     1.007825032230
         H           -0.684752072341    -2.797648142005     0.369828241090     1.007825032230
         H           -3.320044072341    -1.982096142005    -0.347325758910     1.007825032230
         H            0.479231927659     1.906251857995    -0.668432758910     1.007825032230
         H           -1.223577072341     3.843906857995     0.787637241090     1.007825032230
         H            2.919786927659     2.415982857995    -0.223308758910     1.007825032230
         H            5.145267927659     1.299698857995     0.014763241090     1.007825032230
         H            5.249833927659    -0.374701142005     0.376273241090     1.007825032230

  Basis Set: AUG-CC-PVTZ
    Blend: AUG-CC-PVTZ
  Basis Set: (AUG-CC-PVTZ AUX)
    Blend: AUG-CC-PVTZ-JKFIT
	 Reference Energy          =    -886.3730590783835623 [Eh]
	 Singles Energy            =      -0.0000000000000000 [Eh]
	 Same-Spin Energy          =      -0.9020476320183423 [Eh]
	 Opposite-Spin Energy      =      -2.7162071490257769 [Eh]
	 Correlation Energy        =      -3.6182547810441190 [Eh]
	 Total Energy              =    -889.9913138594276916 [Eh]

	 ================> DF-SCS-MP2 Energies <==================
	-----------------------------------------------------------
	 SCS Same-Spin Scale       =       0.3333333333333333 [-]
	 SCS Opposite-Spin Scale   =       1.2000000000000000 [-]
	 SCS Same-Spin Energy      =      -0.3006825440061140 [Eh]
	 SCS Opposite-Spin Energy  =      -3.2594485788309320 [Eh]
	 SCS Correlation Energy    =      -3.5601311228370460 [Eh]
	 SCS Total Energy          =    -889.9331902012205546 [Eh]
	-----------------------------------------------------------

  Dipole Moment: [D]
     X:     2.6538      Y:     5.8022      Z:     1.9364     Total:     6.6677

*** Psi4 exiting successfully. Buy a developer a beer!
