                               Psi4 1.4a3.dev225

  ==> Input File <==

--------------------------------------------------------------------------
#psi4
#
memory 32 gb

molecule  {
0 1
  O       -1.3191770     0.6538360    -1.0992360
  O       -1.5735610    -2.4640850     0.5135810
  O       -3.5606630    -1.0699430    -0.4600060
  O       -1.4399290     3.1254620     0.1265180
  O        1.1065530    -2.3833650     0.0076020
  N        0.7686360    -0.1579440    -0.3706350
  N        2.9363770    -0.9938720     0.1460080
  N        4.7058880     0.4431110     0.3611260
  C       -1.3768610    -1.0680440     0.5552780
  C       -2.7379840    -0.3746360     0.4578480
  C       -0.6377490    -0.5042940    -0.6790150
  C       -2.3707440     0.9655450    -0.1585060
  C       -1.8992030     1.9895750     0.8571380
  C        1.2309690     1.1190800    -0.4442230
  C        1.6402688    -1.2856403    -0.0475215
  C        2.5474650     1.3753690    -0.1998620
  C        3.3802090     0.2523040     0.0808410
  H       -0.8441360    -0.7686950     1.4698480
  H       -3.2257400    -0.2778790     1.4400230
  H       -0.6227070    -1.2428120    -1.4883720
  H       -3.1941750     1.3785730    -0.7472070
  H       -1.0952130     1.5703990     1.4802000
  H       -2.7410530     2.2466610     1.5166010
  H       -0.6710550    -2.8260740     0.3542250
  H       -3.3063470    -2.0105220    -0.3629290
  H        0.4929290     1.8778260    -0.6840360
  H       -1.2098800     3.8154810     0.7720340
  H        2.9334840     2.3875570    -0.2389120
  H        5.1589650     1.2712730    -0.0008400
  H        5.2635310    -0.4031270     0.3606700
units angstrom
no_reorient  #important for SAPT in psi4, default
symmetry c1  #important for SAPT in psi4, default
}

set PROPERTIES_ORIGIN ["COM"]
properties('MP2/aug-cc-pvtz', properties = ['dipole'])
--------------------------------------------------------------------------

    Molecular point group: c1
  Charge       = 0
  Multiplicity = 1
  Basis Set: AUG-CC-PVTZ
    Blend: AUG-CC-PVTZ
  Basis Set: (AUG-CC-PVTZ AUX)
    Blend: AUG-CC-PVTZ-JKFIT

    Orbital Energies [Eh]
    ---------------------

    Doubly Occupied:

       1A    -20.585558     2A    -20.579309     3A    -20.560005
       4A    -20.555787     5A    -20.525669     6A    -15.626443
       7A    -15.600379     8A    -15.549800     9A    -11.387935
      10A    -11.360341    11A    -11.336719    12A    -11.322790
      13A    -11.302327    14A    -11.296617    15A    -11.295766
      16A    -11.292546    17A    -11.242279    18A     -1.427679
      19A     -1.402545    20A     -1.382666    21A     -1.374806
      22A     -1.346616    23A     -1.306510    24A     -1.265221
      25A     -1.185532    26A     -1.076379    27A     -1.066679
      28A     -1.014080    29A     -0.935056    30A     -0.896762
      31A     -0.879096    32A     -0.828979    33A     -0.810888
      34A     -0.764943    35A     -0.747138    36A     -0.733764
      37A     -0.722501    38A     -0.706452    39A     -0.702504
      40A     -0.685229    41A     -0.673468    42A     -0.654159
      43A     -0.651019    44A     -0.631780    45A     -0.619513
      46A     -0.614930    47A     -0.606948    48A     -0.596288
      49A     -0.576102    50A     -0.563891    51A     -0.555088
      52A     -0.547287    53A     -0.537983    54A     -0.531802
      55A     -0.498723    56A     -0.479840    57A     -0.472759
      58A     -0.466328    59A     -0.459884    60A     -0.452111
      61A     -0.441012    62A     -0.425818    63A     -0.394370
      64A     -0.344937

  @DF-RHF Final Energy:  -886.37318671473213

   => Energetics <=

    Nuclear Repulsion Energy =           1333.9422070884133973
    One-Electron Energy =               -3865.6741151421911127
    Two-Electron Energy =                1645.3587213390455872
    Total Energy =                       -886.3731867147321282
  Basis Set: (AUG-CC-PVTZ AUX)
    Blend: AUG-CC-PVTZ-RI
    Molecular point group: c1

    Geometry (in Angstrom), charge = 0, multiplicity = 1:

       Center              X                  Y                   Z               Mass
    ------------   -----------------  -----------------  -----------------  -----------------
         O           -1.333392768805     0.684352045839    -1.084001498273    15.994914619570
         O           -1.587776768805    -2.433568954161     0.528815501727    15.994914619570
         O           -3.574878768805    -1.039426954161    -0.444771498273    15.994914619570
         O           -1.454144768805     3.155978045839     0.141752501727    15.994914619570
         O            1.092337231195    -2.352848954161     0.022836501727    15.994914619570
         N            0.754420231195    -0.127427954161    -0.355400498273    14.003074004430
         N            2.922161231195    -0.963355954161     0.161242501727    14.003074004430
         N            4.691672231195     0.473627045839     0.376360501727    14.003074004430
         C           -1.391076768805    -1.037527954161     0.570512501727    12.000000000000
         C           -2.752199768805    -0.344119954161     0.473082501727    12.000000000000
         C           -0.651964768805    -0.473777954161    -0.663780498273    12.000000000000
         C           -2.384959768805     0.996061045839    -0.143271498273    12.000000000000
         C           -1.913418768805     2.020091045839     0.872372501727    12.000000000000
         C            1.216753231195     1.149596045839    -0.428988498273    12.000000000000
         C            1.626053031195    -1.255124254161    -0.032286998273    12.000000000000
         C            2.533249231195     1.405885045839    -0.184627498273    12.000000000000
         C            3.365993231195     0.282820045839     0.096075501727    12.000000000000
         H           -0.858351768805    -0.738178954161     1.485082501727     1.007825032230
         H           -3.239955768805    -0.247362954161     1.455257501727     1.007825032230
         H           -0.636922768805    -1.212295954161    -1.473137498273     1.007825032230
         H           -3.208390768805     1.409089045839    -0.731972498273     1.007825032230
         H           -1.109428768805     1.600915045839     1.495434501727     1.007825032230
         H           -2.755268768805     2.277177045839     1.531835501727     1.007825032230
         H           -0.685270768805    -2.795557954161     0.369459501727     1.007825032230
         H           -3.320562768805    -1.980005954161    -0.347694498273     1.007825032230
         H            0.478713231195     1.908342045839    -0.668801498273     1.007825032230
         H           -1.224095768805     3.845997045839     0.787268501727     1.007825032230
         H            2.919268231195     2.418073045839    -0.223677498273     1.007825032230
         H            5.144749231195     1.301789045839     0.014394501727     1.007825032230
         H            5.249315231195    -0.372610954161     0.375904501727     1.007825032230

  Basis Set: AUG-CC-PVTZ
    Blend: AUG-CC-PVTZ
  Basis Set: (AUG-CC-PVTZ AUX)
    Blend: AUG-CC-PVTZ-JKFIT
	 Reference Energy          =    -886.3731867147321282 [Eh]
	 Singles Energy            =      -0.0000000000000000 [Eh]
	 Same-Spin Energy          =      -0.9015834243615428 [Eh]
	 Opposite-Spin Energy      =      -2.7152172238744572 [Eh]
	 Correlation Energy        =      -3.6168006482360000 [Eh]
	 Total Energy              =    -889.9899873629681224 [Eh]

	 ================> DF-SCS-MP2 Energies <==================
	-----------------------------------------------------------
	 SCS Same-Spin Scale       =       0.3333333333333333 [-]
	 SCS Opposite-Spin Scale   =       1.2000000000000000 [-]
	 SCS Same-Spin Energy      =      -0.3005278081205143 [Eh]
	 SCS Opposite-Spin Energy  =      -3.2582606686493487 [Eh]
	 SCS Correlation Energy    =      -3.5587884767698630 [Eh]
	 SCS Total Energy          =    -889.9319751915020333 [Eh]
	-----------------------------------------------------------

  Dipole Moment: [D]
     X:     2.8243      Y:     5.5163      Z:     1.9942     Total:     6.5103

*** Psi4 exiting successfully. Buy a developer a beer!
