                               Psi4 1.3.2 release

  ==> Input File <==

--------------------------------------------------------------------------
#psi4
#
memory 32 gb

molecule  {
0 1
  O       -1.2481010    -0.6526680     1.0325150
  O       -1.2449750     2.4828510    -0.6861630
  O       -3.2165300     1.5210990     0.7448870
  O       -2.3570290    -3.0668370     0.0949400
  O        1.3605300     2.2470340    -0.0765420
  N        0.8434040     0.0452230     0.2559430
  N        3.0572260     0.7205030    -0.2937270
  N        4.7164630    -0.8366550    -0.5722980
  C       -1.2894840     1.0784300    -0.5920770
  C       -2.7151710     0.6552070    -0.2573930
  C       -0.5254080     0.4815200     0.6000940
  C       -2.5292560    -0.7168860     0.3610560
  C       -2.5283440    -1.8503930    -0.6392900
  C        1.2197750    -1.2614080     0.3112740
  C        1.7555940     1.0674350    -0.0594030
  C        2.5211209    -1.5631887     0.0397764
  C        3.4119830    -0.5506530    -0.2589250
  H       -0.9376060     0.5914040    -1.5148910
  H       -3.3625820     0.6426650    -1.1464650
  H       -0.4402900     1.2218800     1.4039980
  H       -3.2819570    -0.9087340     1.1307830
  H       -1.7133080    -1.7003050    -1.3694640
  H       -3.4855610    -1.8340040    -1.1841350
  H       -0.2975250     2.7131790    -0.5250000
  H       -2.8475560     2.3997430     0.5086630
  H        0.4101304    -1.9344225     0.5716263
  H       -2.4338740    -3.7984320    -0.5432330
  H        2.8291120    -2.6453980     0.0739220
  H        5.1251800    -1.6708610    -0.1624140
  H        5.3198140    -0.0200540    -0.5682940
units angstrom
no_reorient  #important for SAPT in psi4, default
symmetry c1  #important for SAPT in psi4, default
}

set PROPERTIES_ORIGIN ["COM"]
properties('MP2/aug-cc-pvtz', properties = ['dipole'])
--------------------------------------------------------------------------

    Molecular point group: c1
  Charge       = 0
  Multiplicity = 1
  Basis Set: AUG-CC-PVTZ
    Blend: AUG-CC-PVTZ
  Basis Set: (AUG-CC-PVTZ AUX)
    Blend: AUG-CC-PVTZ-JKFIT

    Orbital Energies [Eh]
    ---------------------

    Doubly Occupied:

       1A    -20.583120     2A    -20.583111     3A    -20.558321
       4A    -20.557482     5A    -20.520479     6A    -15.637889
       7A    -15.598284     8A    -15.551727     9A    -11.386949
      10A    -11.352936    11A    -11.342198    12A    -11.331153
      13A    -11.302081    14A    -11.297896    15A    -11.297290
      16A    -11.293634    17A    -11.248357    18A     -1.430533
      19A     -1.396277    20A     -1.380723    21A     -1.373671
      22A     -1.346709    23A     -1.307517    24A     -1.274446
      25A     -1.181610    26A     -1.083852    27A     -1.068631
      28A     -1.022778    29A     -0.938110    30A     -0.913636
      31A     -0.876479    32A     -0.832002    33A     -0.813005
      34A     -0.769059    35A     -0.751524    36A     -0.736375
      37A     -0.721250    38A     -0.703649    39A     -0.699006
      40A     -0.685205    41A     -0.672382    42A     -0.654861
      43A     -0.647865    44A     -0.637687    45A     -0.626995
      46A     -0.614700    47A     -0.609214    48A     -0.587139
      49A     -0.576699    50A     -0.570970    51A     -0.554519
      52A     -0.545885    53A     -0.537828    54A     -0.532437
      55A     -0.498216    56A     -0.478233    57A     -0.475013
      58A     -0.462732    59A     -0.459013    60A     -0.453422
      61A     -0.441222    62A     -0.433123    63A     -0.395140
      64A     -0.349772

  @DF-RHF Final Energy:  -886.36886877597624

   => Energetics <=

    Nuclear Repulsion Energy =           1324.7215354367901909
    One-Electron Energy =               -3847.0527653282833853
    Two-Electron Energy =                1635.9623611155170693
    Total Energy =                       -886.3688687759763525
  Basis Set: (AUG-CC-PVTZ AUX)
    Blend: AUG-CC-PVTZ-RI
    Molecular point group: c1

    Geometry (in Angstrom), charge = 0, multiplicity = 1:

       Center              X                  Y                   Z               Mass
    ------------   -----------------  -----------------  -----------------  -----------------
         O           -1.248495417715    -0.655056684746     1.032860749510    15.994914619570
         O           -1.245369417715     2.480462315254    -0.685817250490    15.994914619570
         O           -3.216924417715     1.518710315254     0.745232749510    15.994914619570
         O           -2.357423417715    -3.069225684746     0.095285749510    15.994914619570
         O            1.360135582285     2.244645315254    -0.076196250490    15.994914619570
         N            0.843009582285     0.042834315254     0.256288749510    14.003074004430
         N            3.056831582285     0.718114315254    -0.293381250490    14.003074004430
         N            4.716068582285    -0.839043684746    -0.571952250490    14.003074004430
         C           -1.289878417715     1.076041315254    -0.591731250490    12.000000000000
         C           -2.715565417715     0.652818315254    -0.257047250490    12.000000000000
         C           -0.525802417715     0.479131315254     0.600439749510    12.000000000000
         C           -2.529650417715    -0.719274684746     0.361401749510    12.000000000000
         C           -2.528738417715    -1.852781684746    -0.638944250490    12.000000000000
         C            1.219380582285    -1.263796684746     0.311619749510    12.000000000000
         C            1.755199582285     1.065046315254    -0.059057250490    12.000000000000
         C            2.520726482285    -1.565577384746     0.040122149510    12.000000000000
         C            3.411588582285    -0.553041684746    -0.258579250490    12.000000000000
         H           -0.938000417715     0.589015315254    -1.514545250490     1.007825032230
         H           -3.362976417715     0.640276315254    -1.146119250490     1.007825032230
         H           -0.440684417715     1.219491315254     1.404343749510     1.007825032230
         H           -3.282351417715    -0.911122684746     1.131128749510     1.007825032230
         H           -1.713702417715    -1.702693684746    -1.369118250490     1.007825032230
         H           -3.485955417715    -1.836392684746    -1.183789250490     1.007825032230
         H           -0.297919417715     2.710790315254    -0.524654250490     1.007825032230
         H           -2.847950417715     2.397354315254     0.509008749510     1.007825032230
         H            0.409735982285    -1.936811184746     0.571972049510     1.007825032230
         H           -2.434268417715    -3.800820684746    -0.542887250490     1.007825032230
         H            2.828717582285    -2.647786684746     0.074267749510     1.007825032230
         H            5.124785582285    -1.673249684746    -0.162068250490     1.007825032230
         H            5.319419582285    -0.022442684746    -0.567948250490     1.007825032230

  Basis Set: AUG-CC-PVTZ
    Blend: AUG-CC-PVTZ
  Basis Set: (AUG-CC-PVTZ AUX)
    Blend: AUG-CC-PVTZ-JKFIT
	 Reference Energy          =    -886.3688687759762388 [Eh]
	 Singles Energy            =      -0.0000000000000000 [Eh]
	 Same-Spin Energy          =      -0.9021327281136449 [Eh]
	 Opposite-Spin Energy      =      -2.7158013420860811 [Eh]
	 Correlation Energy        =      -3.6179340701997260 [Eh]
	 Total Energy              =    -889.9868028461759195 [Eh]

	 ================> DF-SCS-MP2 Energies <==================
	-----------------------------------------------------------
	 SCS Same-Spin Scale       =       0.3333333333333333 [-]
	 SCS Opposite-Spin Scale   =       1.2000000000000000 [-]
	 SCS Same-Spin Energy      =      -0.3007109093712149 [Eh]
	 SCS Opposite-Spin Energy  =      -3.2589616105032975 [Eh]
	 SCS Correlation Energy    =      -3.5596725198745123 [Eh]
	 SCS Total Energy          =    -889.9285412958507777 [Eh]
	-----------------------------------------------------------

  Dipole Moment: [D]
     X:     1.5580      Y:    -5.9736      Z:    -1.7932     Total:     6.4286

*** Psi4 exiting successfully. Buy a developer a beer!
