                               Psi4 1.3.2 release

  ==> Input File <==

--------------------------------------------------------------------------
#psi4
#
memory 32 gb

molecule  {
0 1
  O       -1.2481010    -0.6526680     1.0325150
  O       -1.2449750     2.4828510    -0.6861630
  O       -3.2165300     1.5210990     0.7448870
  O       -2.3570290    -3.0668370     0.0949400
  O        1.3605300     2.2470340    -0.0765420
  N        0.8434040     0.0452230     0.2559430
  N        3.0572260     0.7205030    -0.2937270
  N        4.7118168    -0.8599673    -0.5694480
  C       -1.2894840     1.0784300    -0.5920770
  C       -2.7151710     0.6552070    -0.2573930
  C       -0.5254080     0.4815200     0.6000940
  C       -2.5292560    -0.7168860     0.3610560
  C       -2.5283440    -1.8503930    -0.6392900
  C        1.2197750    -1.2614080     0.3112740
  C        1.7555940     1.0674350    -0.0594030
  C        2.5294601    -1.6254948     0.0434632
  C        3.4119830    -0.5506530    -0.2589250
  H       -0.9376060     0.5914040    -1.5148910
  H       -3.3625820     0.6426650    -1.1464650
  H       -0.4402900     1.2218800     1.4039980
  H       -3.2819570    -0.9087340     1.1307830
  H       -1.7133080    -1.7003050    -1.3694640
  H       -3.4855610    -1.8340040    -1.1841350
  H       -0.2975250     2.7131790    -0.5250000
  H       -2.8475560     2.3997430     0.5086630
  H        0.4343110    -1.9634370     0.5690680
  H       -2.4338740    -3.7984320    -0.5432330
  H        2.8291120    -2.6453980     0.0739220
  H        5.1251800    -1.6708610    -0.1624140
  H        5.3198140    -0.0200540    -0.5682940
units angstrom
no_reorient  #important for SAPT in psi4, default
symmetry c1  #important for SAPT in psi4, default
}

set PROPERTIES_ORIGIN ["COM"]
properties('MP2/aug-cc-pvtz', properties = ['dipole'])
--------------------------------------------------------------------------

    Molecular point group: c1
  Charge       = 0
  Multiplicity = 1
  Basis Set: AUG-CC-PVTZ
    Blend: AUG-CC-PVTZ
  Basis Set: (AUG-CC-PVTZ AUX)
    Blend: AUG-CC-PVTZ-JKFIT

    Orbital Energies [Eh]
    ---------------------

    Doubly Occupied:

       1A    -20.582462     2A    -20.582125     3A    -20.558170
       4A    -20.557739     5A    -20.522770     6A    -15.638976
       7A    -15.598533     8A    -15.553983     9A    -11.389207
      10A    -11.357372    11A    -11.342413    12A    -11.332036
      13A    -11.301456    14A    -11.297312    15A    -11.297242
      16A    -11.293398    17A    -11.248009    18A     -1.429942
      19A     -1.396947    20A     -1.380515    21A     -1.373128
      22A     -1.346737    23A     -1.305480    24A     -1.273663
      25A     -1.182827    26A     -1.078393    27A     -1.068153
      28A     -1.021641    29A     -0.935736    30A     -0.910314
      31A     -0.877671    32A     -0.832837    33A     -0.811906
      34A     -0.764434    35A     -0.753417    36A     -0.736858
      37A     -0.721317    38A     -0.703296    39A     -0.698923
      40A     -0.685421    41A     -0.673026    42A     -0.655841
      43A     -0.654283    44A     -0.639551    45A     -0.619085
      46A     -0.614047    47A     -0.603488    48A     -0.595497
      49A     -0.575627    50A     -0.569770    51A     -0.554153
      52A     -0.546088    53A     -0.538056    54A     -0.532065
      55A     -0.497600    56A     -0.477785    57A     -0.474752
      58A     -0.462737    59A     -0.460779    60A     -0.453291
      61A     -0.440602    62A     -0.433806    63A     -0.395717
      64A     -0.347933

  @DF-RHF Final Energy:  -886.37099928535361

   => Energetics <=

    Nuclear Repulsion Energy =           1323.1518106876631009
    One-Electron Energy =               -3843.9289498306388850
    Two-Electron Energy =                1634.4061398576222928
    Total Energy =                       -886.3709992853537187
  Basis Set: (AUG-CC-PVTZ AUX)
    Blend: AUG-CC-PVTZ-RI
    Molecular point group: c1

    Geometry (in Angstrom), charge = 0, multiplicity = 1:

       Center              X                  Y                   Z               Mass
    ------------   -----------------  -----------------  -----------------  -----------------
         O           -1.248739690312    -0.650517711799     1.032525180193    15.994914619570
         O           -1.245613690312     2.485001288201    -0.686152819807    15.994914619570
         O           -3.217168690312     1.523249288201     0.744897180193    15.994914619570
         O           -2.357667690312    -3.064686711799     0.094950180193    15.994914619570
         O            1.359891309688     2.249184288201    -0.076531819807    15.994914619570
         N            0.842765309688     0.047373288201     0.255953180193    14.003074004430
         N            3.056587309688     0.722653288201    -0.293716819807    14.003074004430
         N            4.711178109688    -0.857817011799    -0.569437819807    14.003074004430
         C           -1.290122690312     1.080580288201    -0.592066819807    12.000000000000
         C           -2.715809690312     0.657357288201    -0.257382819807    12.000000000000
         C           -0.526046690312     0.483670288201     0.600104180193    12.000000000000
         C           -2.529894690312    -0.714735711799     0.361066180193    12.000000000000
         C           -2.528982690312    -1.848242711799    -0.639279819807    12.000000000000
         C            1.219136309688    -1.259257711799     0.311284180193    12.000000000000
         C            1.754955309688     1.069585288201    -0.059392819807    12.000000000000
         C            2.528821409688    -1.623344511799     0.043473380193    12.000000000000
         C            3.411344309688    -0.548502711799    -0.258914819807    12.000000000000
         H           -0.938244690312     0.593554288201    -1.514880819807     1.007825032230
         H           -3.363220690312     0.644815288201    -1.146454819807     1.007825032230
         H           -0.440928690312     1.224030288201     1.404008180193     1.007825032230
         H           -3.282595690312    -0.906583711799     1.130793180193     1.007825032230
         H           -1.713946690312    -1.698154711799    -1.369453819807     1.007825032230
         H           -3.486199690312    -1.831853711799    -1.184124819807     1.007825032230
         H           -0.298163690312     2.715329288201    -0.524989819807     1.007825032230
         H           -2.848194690312     2.401893288201     0.508673180193     1.007825032230
         H            0.433672309688    -1.961286711799     0.569078180193     1.007825032230
         H           -2.434512690312    -3.796281711799    -0.543222819807     1.007825032230
         H            2.828473309688    -2.643247711799     0.073932180193     1.007825032230
         H            5.124541309688    -1.668710711799    -0.162403819807     1.007825032230
         H            5.319175309688    -0.017903711799    -0.568283819807     1.007825032230

  Basis Set: AUG-CC-PVTZ
    Blend: AUG-CC-PVTZ
  Basis Set: (AUG-CC-PVTZ AUX)
    Blend: AUG-CC-PVTZ-JKFIT
	 Reference Energy          =    -886.3709992853536050 [Eh]
	 Singles Energy            =      -0.0000000000000000 [Eh]
	 Same-Spin Energy          =      -0.9014154693592580 [Eh]
	 Opposite-Spin Energy      =      -2.7153124031674998 [Eh]
	 Correlation Energy        =      -3.6167278725267575 [Eh]
	 Total Energy              =    -889.9877271578803857 [Eh]

	 ================> DF-SCS-MP2 Energies <==================
	-----------------------------------------------------------
	 SCS Same-Spin Scale       =       0.3333333333333333 [-]
	 SCS Opposite-Spin Scale   =       1.2000000000000000 [-]
	 SCS Same-Spin Energy      =      -0.3004718231197526 [Eh]
	 SCS Opposite-Spin Energy  =      -3.2583748838009998 [Eh]
	 SCS Correlation Energy    =      -3.5588467069207526 [Eh]
	 SCS Total Energy          =    -889.9298459922744087 [Eh]
	-----------------------------------------------------------

  Dipole Moment: [D]
     X:     1.6541      Y:    -5.9100      Z:    -1.8132     Total:     6.3993

*** Psi4 exiting successfully. Buy a developer a beer!
