                               Psi4 1.4a3.dev225

  ==> Input File <==

--------------------------------------------------------------------------
#psi4
#
memory 32 gb

molecule  {
0 1
  O       -1.3191770     0.6538360    -1.0992360
  O       -1.5735610    -2.4640850     0.5135810
  O       -3.5606630    -1.0699430    -0.4600060
  O       -1.4399290     3.1254620     0.1265180
  O        1.1065530    -2.3833650     0.0076020
  N        0.7686360    -0.1579440    -0.3706350
  N        2.9363770    -0.9938720     0.1460080
  N        4.7058880     0.4431110     0.3611260
  C       -1.3768610    -1.0680440     0.5552780
  C       -2.7379840    -0.3746360     0.4578480
  C       -0.6377490    -0.5042940    -0.6790150
  C       -2.3707440     0.9655450    -0.1585060
  C       -1.8831054     2.0293880     0.8315296
  C        1.2309690     1.1190800    -0.4442230
  C        1.6104480    -1.2470590    -0.0585760
  C        2.5474650     1.3753690    -0.1998620
  C        3.3802090     0.2523040     0.0808410
  H       -0.8441360    -0.7686950     1.4698480
  H       -3.2257400    -0.2778790     1.4400230
  H       -0.6227070    -1.2428120    -1.4883720
  H       -3.1941750     1.3785730    -0.7472070
  H       -1.0952130     1.5703990     1.4802000
  H       -2.7410530     2.2466610     1.5166010
  H       -0.6710550    -2.8260740     0.3542250
  H       -3.3063470    -2.0105220    -0.3629290
  H        0.4929290     1.8778260    -0.6840360
  H       -1.2098800     3.8154810     0.7720340
  H        2.9334840     2.3875570    -0.2389120
  H        5.1589650     1.2712730    -0.0008400
  H        5.2635310    -0.4031270     0.3606700
units angstrom
no_reorient  #important for SAPT in psi4, default
symmetry c1  #important for SAPT in psi4, default
}

set PROPERTIES_ORIGIN ["COM"]
properties('MP2/aug-cc-pvtz', properties = ['dipole'])
--------------------------------------------------------------------------

    Molecular point group: c1
  Charge       = 0
  Multiplicity = 1
  Basis Set: AUG-CC-PVTZ
    Blend: AUG-CC-PVTZ
  Basis Set: (AUG-CC-PVTZ AUX)
    Blend: AUG-CC-PVTZ-JKFIT

    Orbital Energies [Eh]
    ---------------------

    Doubly Occupied:

       1A    -20.591892     2A    -20.580118     3A    -20.558722
       4A    -20.556133     5A    -20.519446     6A    -15.632688
       7A    -15.599607     8A    -15.551625     9A    -11.385728
      10A    -11.357987    11A    -11.338945    12A    -11.325325
      13A    -11.304762    14A    -11.297094    15A    -11.296184
      16A    -11.293259    17A    -11.246600    18A     -1.429716
      19A     -1.404311    20A     -1.390838    21A     -1.376567
      22A     -1.346072    23A     -1.303486    24A     -1.271113
      25A     -1.181047    26A     -1.079190    27A     -1.063766
      28A     -1.016076    29A     -0.934679    30A     -0.906221
      31A     -0.876436    32A     -0.829548    33A     -0.810720
      34A     -0.766160    35A     -0.750928    36A     -0.738198
      37A     -0.725347    38A     -0.713425    39A     -0.702273
      40A     -0.685361    41A     -0.674903    42A     -0.654324
      43A     -0.648980    44A     -0.633455    45A     -0.621943
      46A     -0.616938    47A     -0.608682    48A     -0.593555
      49A     -0.580893    50A     -0.565677    51A     -0.556329
      52A     -0.547580    53A     -0.536081    54A     -0.529405
      55A     -0.495039    56A     -0.477092    57A     -0.471283
      58A     -0.460699    59A     -0.457503    60A     -0.451148
      61A     -0.440564    62A     -0.429701    63A     -0.392029
      64A     -0.348089

  @DF-RHF Final Energy:  -886.37248936150627

   => Energetics <=

    Nuclear Repulsion Energy =           1334.7156937409711190
    One-Electron Energy =               -3867.1174051173766202
    Two-Electron Energy =                1646.0292220148994602
    Total Energy =                       -886.3724893615062683
  Basis Set: (AUG-CC-PVTZ AUX)
    Blend: AUG-CC-PVTZ-RI
    Molecular point group: c1

    Geometry (in Angstrom), charge = 0, multiplicity = 1:

       Center              X                  Y                   Z               Mass
    ------------   -----------------  -----------------  -----------------  -----------------
         O           -1.332715318335     0.680482084362    -1.082191621654    15.994914619570
         O           -1.587099318335    -2.437438915638     0.530625378346    15.994914619570
         O           -3.574201318335    -1.043296915638    -0.442961621654    15.994914619570
         O           -1.453467318335     3.152108084362     0.143562378346    15.994914619570
         O            1.093014681665    -2.356718915638     0.024646378346    15.994914619570
         N            0.755097681665    -0.131297915638    -0.353590621654    14.003074004430
         N            2.922838681665    -0.967225915638     0.163052378346    14.003074004430
         N            4.692349681665     0.469757084362     0.378170378346    14.003074004430
         C           -1.390399318335    -1.041397915638     0.572322378346    12.000000000000
         C           -2.751522318335    -0.347989915638     0.474892378346    12.000000000000
         C           -0.651287318335    -0.477647915638    -0.661970621654    12.000000000000
         C           -2.384282318335     0.992191084362    -0.141461621654    12.000000000000
         C           -1.896643718335     2.056034084362     0.848573978346    12.000000000000
         C            1.217430681665     1.145726084362    -0.427178621654    12.000000000000
         C            1.596909681665    -1.220412915638    -0.041531621654    12.000000000000
         C            2.533926681665     1.402015084362    -0.182817621654    12.000000000000
         C            3.366670681665     0.278950084362     0.097885378346    12.000000000000
         H           -0.857674318335    -0.742048915638     1.486892378346     1.007825032230
         H           -3.239278318335    -0.251232915638     1.457067378346     1.007825032230
         H           -0.636245318335    -1.216165915638    -1.471327621654     1.007825032230
         H           -3.207713318335     1.405219084362    -0.730162621654     1.007825032230
         H           -1.108751318335     1.597045084362     1.497244378346     1.007825032230
         H           -2.754591318335     2.273307084362     1.533645378346     1.007825032230
         H           -0.684593318335    -2.799427915638     0.371269378346     1.007825032230
         H           -3.319885318335    -1.983875915638    -0.345884621654     1.007825032230
         H            0.479390681665     1.904472084362    -0.666991621654     1.007825032230
         H           -1.223418318335     3.842127084362     0.789078378346     1.007825032230
         H            2.919945681665     2.414203084362    -0.221867621654     1.007825032230
         H            5.145426681665     1.297919084362     0.016204378346     1.007825032230
         H            5.249992681665    -0.376480915638     0.377714378346     1.007825032230

  Basis Set: AUG-CC-PVTZ
    Blend: AUG-CC-PVTZ
  Basis Set: (AUG-CC-PVTZ AUX)
    Blend: AUG-CC-PVTZ-JKFIT
	 Reference Energy          =    -886.3724893615062683 [Eh]
	 Singles Energy            =      -0.0000000000000000 [Eh]
	 Same-Spin Energy          =      -0.9017544706326919 [Eh]
	 Opposite-Spin Energy      =      -2.7152207503376102 [Eh]
	 Correlation Energy        =      -3.6169752209703021 [Eh]
	 Total Energy              =    -889.9894645824765576 [Eh]

	 ================> DF-SCS-MP2 Energies <==================
	-----------------------------------------------------------
	 SCS Same-Spin Scale       =       0.3333333333333333 [-]
	 SCS Opposite-Spin Scale   =       1.2000000000000000 [-]
	 SCS Same-Spin Energy      =      -0.3005848235442306 [Eh]
	 SCS Opposite-Spin Energy  =      -3.2582649004051323 [Eh]
	 SCS Correlation Energy    =      -3.5588497239493631 [Eh]
	 SCS Total Energy          =    -889.9313390854556474 [Eh]
	-----------------------------------------------------------

  Dipole Moment: [D]
     X:     2.7833      Y:     5.9552      Z:     1.8730     Total:     6.8352

*** Psi4 exiting successfully. Buy a developer a beer!
