                               Psi4 1.3.2 release

  ==> Input File <==

--------------------------------------------------------------------------
#psi4
#
memory 32 gb

molecule  {
0 1
  O       -1.2481010    -0.6526680     1.0325150
  O       -1.2449750     2.4828510    -0.6861630
  O       -3.2165300     1.5210990     0.7448870
  O       -2.3570290    -3.0668370     0.0949400
  O        1.3605300     2.2470340    -0.0765420
  N        0.8434040     0.0452230     0.2559430
  N        3.0572260     0.7205030    -0.2937270
  N        4.7164630    -0.8366550    -0.5722980
  C       -1.2894840     1.0784300    -0.5920770
  C       -2.7151710     0.6552070    -0.2573930
  C       -0.5254080     0.4815200     0.6000940
  C       -2.5292560    -0.7168860     0.3610560
  C       -2.5283440    -1.8503930    -0.6392900
  C        1.2197750    -1.2614080     0.3112740
  C        1.7555940     1.0674350    -0.0594030
  C        2.5111010    -1.6091400     0.0469950
  C        3.4119830    -0.5506530    -0.2589250
  H       -0.9376060     0.5914040    -1.5148910
  H       -3.3625820     0.6426650    -1.1464650
  H       -0.4402900     1.2218800     1.4039980
  H       -3.2819570    -0.9087340     1.1307830
  H       -1.7133080    -1.7003050    -1.3694640
  H       -3.4855610    -1.8340040    -1.1841350
  H       -0.2975250     2.7131790    -0.5250000
  H       -2.8475560     2.3997430     0.5086630
  H        0.4343110    -1.9634370     0.5690680
  H       -2.4338740    -3.7984320    -0.5432330
  H        2.8291120    -2.6453980     0.0739220
  H        5.1326169    -1.6663457    -0.1607358
  H        5.3261576    -0.0248085    -0.5643368
units angstrom
no_reorient  #important for SAPT in psi4, default
symmetry c1  #important for SAPT in psi4, default
}

set PROPERTIES_ORIGIN ["COM"]
properties('MP2/aug-cc-pvtz', properties = ['dipole'])
--------------------------------------------------------------------------

    Molecular point group: c1
  Charge       = 0
  Multiplicity = 1
  Basis Set: AUG-CC-PVTZ
    Blend: AUG-CC-PVTZ
  Basis Set: (AUG-CC-PVTZ AUX)
    Blend: AUG-CC-PVTZ-JKFIT

    Orbital Energies [Eh]
    ---------------------

    Doubly Occupied:

       1A    -20.582246     2A    -20.581617     3A    -20.557789
       4A    -20.557243     5A    -20.522008     6A    -15.636969
       7A    -15.599801     8A    -15.553412     9A    -11.388280
      10A    -11.358086    11A    -11.341572    12A    -11.328536
      13A    -11.301185    14A    -11.296930    15A    -11.296654
      16A    -11.292967    17A    -11.248587    18A     -1.429372
      19A     -1.396402    20A     -1.380119    21A     -1.372815
      22A     -1.346304    23A     -1.306025    24A     -1.273741
      25A     -1.182301    26A     -1.081991    27A     -1.067738
      28A     -1.021410    29A     -0.935558    30A     -0.909470
      31A     -0.877505    32A     -0.832440    33A     -0.811814
      34A     -0.766556    35A     -0.752402    36A     -0.736221
      37A     -0.720788    38A     -0.703050    39A     -0.698472
      40A     -0.684786    41A     -0.672853    42A     -0.654485
      43A     -0.651553    44A     -0.638435    45A     -0.620576
      46A     -0.614420    47A     -0.606740    48A     -0.593883
      49A     -0.575763    50A     -0.569744    51A     -0.554030
      52A     -0.545689    53A     -0.537544    54A     -0.531822
      55A     -0.498098    56A     -0.477505    57A     -0.474446
      58A     -0.462199    59A     -0.460047    60A     -0.452840
      61A     -0.440700    62A     -0.433168    63A     -0.395324
      64A     -0.350004

  @DF-RHF Final Energy:  -886.37341780025895

   => Energetics <=

    Nuclear Repulsion Energy =           1323.6800405480712470
    One-Electron Energy =               -3845.0208552503263491
    Two-Electron Energy =                1634.9673969019961532
    Total Energy =                       -886.3734178002589488
  Basis Set: (AUG-CC-PVTZ AUX)
    Blend: AUG-CC-PVTZ-RI
    Molecular point group: c1

    Geometry (in Angstrom), charge = 0, multiplicity = 1:

       Center              X                  Y                   Z               Mass
    ------------   -----------------  -----------------  -----------------  -----------------
         O           -1.248158167462    -0.652666998145     1.032491643287    15.994914619570
         O           -1.245032167462     2.482852001855    -0.686186356713    15.994914619570
         O           -3.216587167462     1.521100001855     0.744863643287    15.994914619570
         O           -2.357086167462    -3.066835998145     0.094916643287    15.994914619570
         O            1.360472832538     2.247035001855    -0.076565356713    15.994914619570
         N            0.843346832538     0.045224001855     0.255919643287    14.003074004430
         N            3.057168832538     0.720504001855    -0.293750356713    14.003074004430
         N            4.716405832538    -0.836653998145    -0.572321356713    14.003074004430
         C           -1.289541167462     1.078431001855    -0.592100356713    12.000000000000
         C           -2.715228167462     0.655208001855    -0.257416356713    12.000000000000
         C           -0.525465167462     0.481521001855     0.600070643287    12.000000000000
         C           -2.529313167462    -0.716884998145     0.361032643287    12.000000000000
         C           -2.528401167462    -1.850391998145    -0.639313356713    12.000000000000
         C            1.219717832538    -1.261406998145     0.311250643287    12.000000000000
         C            1.755536832538     1.067436001855    -0.059426356713    12.000000000000
         C            2.511043832538    -1.609138998145     0.046971643287    12.000000000000
         C            3.411925832538    -0.550651998145    -0.258948356713    12.000000000000
         H           -0.937663167462     0.591405001855    -1.514914356713     1.007825032230
         H           -3.362639167462     0.642666001855    -1.146488356713     1.007825032230
         H           -0.440347167462     1.221881001855     1.403974643287     1.007825032230
         H           -3.282014167462    -0.908732998145     1.130759643287     1.007825032230
         H           -1.713365167462    -1.700303998145    -1.369487356713     1.007825032230
         H           -3.485618167462    -1.834002998145    -1.184158356713     1.007825032230
         H           -0.297582167462     2.713180001855    -0.525023356713     1.007825032230
         H           -2.847613167462     2.399744001855     0.508639643287     1.007825032230
         H            0.434253832538    -1.963435998145     0.569044643287     1.007825032230
         H           -2.433931167462    -3.798430998145    -0.543256356713     1.007825032230
         H            2.829054832538    -2.645396998145     0.073898643287     1.007825032230
         H            5.132559732538    -1.666344698145    -0.160759156713     1.007825032230
         H            5.326100432538    -0.024807498145    -0.564360156713     1.007825032230

  Basis Set: AUG-CC-PVTZ
    Blend: AUG-CC-PVTZ
  Basis Set: (AUG-CC-PVTZ AUX)
    Blend: AUG-CC-PVTZ-JKFIT
	 Reference Energy          =    -886.3734178002589488 [Eh]
	 Singles Energy            =      -0.0000000000000000 [Eh]
	 Same-Spin Energy          =      -0.9012352406812068 [Eh]
	 Opposite-Spin Energy      =      -2.7149407688840563 [Eh]
	 Correlation Energy        =      -3.6161760095652631 [Eh]
	 Total Energy              =    -889.9895938098242141 [Eh]

	 ================> DF-SCS-MP2 Energies <==================
	-----------------------------------------------------------
	 SCS Same-Spin Scale       =       0.3333333333333333 [-]
	 SCS Opposite-Spin Scale   =       1.2000000000000000 [-]
	 SCS Same-Spin Energy      =      -0.3004117468937356 [Eh]
	 SCS Opposite-Spin Energy  =      -3.2579289226608674 [Eh]
	 SCS Correlation Energy    =      -3.5583406695546032 [Eh]
	 SCS Total Energy          =    -889.9317584698135306 [Eh]
	-----------------------------------------------------------

  Dipole Moment: [D]
     X:     1.7147      Y:    -5.9479      Z:    -1.8135     Total:     6.4503

*** Psi4 exiting successfully. Buy a developer a beer!
