                               Psi4 1.3.2 release

  ==> Input File <==

--------------------------------------------------------------------------
#psi4
#
memory 32 gb

molecule  {
0 1
  O       -1.2481010    -0.6526680     1.0325150
  O       -1.2449750     2.4828510    -0.6861630
  O       -3.2165300     1.5210990     0.7448870
  O       -2.3570290    -3.0668370     0.0949400
  O        1.3605300     2.2470340    -0.0765420
  N        0.8434040     0.0452230     0.2559430
  N        3.0572260     0.7205030    -0.2937270
  N        4.7164630    -0.8366550    -0.5722980
  C       -1.2941000     1.0899126    -0.5969556
  C       -2.7151710     0.6552070    -0.2573930
  C       -0.5254080     0.4815200     0.6000940
  C       -2.5423454    -0.7178265     0.3627626
  C       -2.5283440    -1.8503930    -0.6392900
  C        1.2197750    -1.2614080     0.3112740
  C        1.7555940     1.0674350    -0.0594030
  C        2.5111010    -1.6091400     0.0469950
  C        3.4119830    -0.5506530    -0.2589250
  H       -0.9376060     0.5914040    -1.5148910
  H       -3.3625820     0.6426650    -1.1464650
  H       -0.4402900     1.2218800     1.4039980
  H       -3.2819570    -0.9087340     1.1307830
  H       -1.7133080    -1.7003050    -1.3694640
  H       -3.4855610    -1.8340040    -1.1841350
  H       -0.2975250     2.7131790    -0.5250000
  H       -2.8475560     2.3997430     0.5086630
  H        0.4343110    -1.9634370     0.5690680
  H       -2.4338740    -3.7984320    -0.5432330
  H        2.8291120    -2.6453980     0.0739220
  H        5.1251800    -1.6708610    -0.1624140
  H        5.3198140    -0.0200540    -0.5682940
units angstrom
no_reorient  #important for SAPT in psi4, default
symmetry c1  #important for SAPT in psi4, default
}

set PROPERTIES_ORIGIN ["COM"]
properties('MP2/aug-cc-pvtz', properties = ['dipole'])
--------------------------------------------------------------------------

    Molecular point group: c1
  Charge       = 0
  Multiplicity = 1
  Basis Set: AUG-CC-PVTZ
    Blend: AUG-CC-PVTZ
  Basis Set: (AUG-CC-PVTZ AUX)
    Blend: AUG-CC-PVTZ-JKFIT

    Orbital Energies [Eh]
    ---------------------

    Doubly Occupied:

       1A    -20.582387     2A    -20.580099     3A    -20.558167
       4A    -20.557780     5A    -20.521828     6A    -15.636500
       7A    -15.599600     8A    -15.553069     9A    -11.387981
      10A    -11.357551    11A    -11.340673    12A    -11.328082
      13A    -11.301537    14A    -11.297179    15A    -11.297049
      16A    -11.293003    17A    -11.248176    18A     -1.426906
      19A     -1.395520    20A     -1.381950    21A     -1.372900
      22A     -1.348298    23A     -1.305676    24A     -1.273147
      25A     -1.181885    26A     -1.081182    27A     -1.067441
      28A     -1.019555    29A     -0.934977    30A     -0.908889
      31A     -0.877277    32A     -0.832625    33A     -0.811290
      34A     -0.766701    35A     -0.751719    36A     -0.736840
      37A     -0.719721    38A     -0.703476    39A     -0.698718
      40A     -0.685212    41A     -0.673169    42A     -0.654047
      43A     -0.651370    44A     -0.637675    45A     -0.620669
      46A     -0.614326    47A     -0.606427    48A     -0.594046
      49A     -0.575503    50A     -0.570347    51A     -0.554513
      52A     -0.545680    53A     -0.537845    54A     -0.531565
      55A     -0.498390    56A     -0.477712    57A     -0.475080
      58A     -0.462485    59A     -0.459898    60A     -0.451598
      61A     -0.439195    62A     -0.432837    63A     -0.394675
      64A     -0.349497

  @DF-RHF Final Energy:  -886.37325459255612

   => Energetics <=

    Nuclear Repulsion Energy =           1323.2950402780888908
    One-Electron Energy =               -3844.2743586747974405
    Two-Electron Energy =                1634.6060638041524271
    Total Energy =                       -886.3732545925561226
  Basis Set: (AUG-CC-PVTZ AUX)
    Blend: AUG-CC-PVTZ-RI
    Molecular point group: c1

    Geometry (in Angstrom), charge = 0, multiplicity = 1:

       Center              X                  Y                   Z               Mass
    ------------   -----------------  -----------------  -----------------  -----------------
         O           -1.247227000800    -0.653188404239     1.032671594347    15.994914619570
         O           -1.244101000800     2.482330595761    -0.686006405653    15.994914619570
         O           -3.215656000800     1.520578595761     0.745043594347    15.994914619570
         O           -2.356155000800    -3.067357404239     0.095096594347    15.994914619570
         O            1.361403999200     2.246513595761    -0.076385405653    15.994914619570
         N            0.844277999200     0.044702595761     0.256099594347    14.003074004430
         N            3.058099999200     0.719982595761    -0.293570405653    14.003074004430
         N            4.717336999200    -0.837175404239    -0.572141405653    14.003074004430
         C           -1.293226000800     1.089392195761    -0.596799005653    12.000000000000
         C           -2.714297000800     0.654686595761    -0.257236405653    12.000000000000
         C           -0.524534000800     0.480999595761     0.600250594347    12.000000000000
         C           -2.541471400800    -0.718346904239     0.362919194347    12.000000000000
         C           -2.527470000800    -1.850913404239    -0.639133405653    12.000000000000
         C            1.220648999200    -1.261928404239     0.311430594347    12.000000000000
         C            1.756467999200     1.066914595761    -0.059246405653    12.000000000000
         C            2.511974999200    -1.609660404239     0.047151594347    12.000000000000
         C            3.412856999200    -0.551173404239    -0.258768405653    12.000000000000
         H           -0.936732000800     0.590883595761    -1.514734405653     1.007825032230
         H           -3.361708000800     0.642144595761    -1.146308405653     1.007825032230
         H           -0.439416000800     1.221359595761     1.404154594347     1.007825032230
         H           -3.281083000800    -0.909254404239     1.130939594347     1.007825032230
         H           -1.712434000800    -1.700825404239    -1.369307405653     1.007825032230
         H           -3.484687000800    -1.834524404239    -1.183978405653     1.007825032230
         H           -0.296651000800     2.712658595761    -0.524843405653     1.007825032230
         H           -2.846682000800     2.399222595761     0.508819594347     1.007825032230
         H            0.435184999200    -1.963957404239     0.569224594347     1.007825032230
         H           -2.433000000800    -3.798952404239    -0.543076405653     1.007825032230
         H            2.829985999200    -2.645918404239     0.074078594347     1.007825032230
         H            5.126053999200    -1.671381404239    -0.162257405653     1.007825032230
         H            5.320687999200    -0.020574404239    -0.568137405653     1.007825032230

  Basis Set: AUG-CC-PVTZ
    Blend: AUG-CC-PVTZ
  Basis Set: (AUG-CC-PVTZ AUX)
    Blend: AUG-CC-PVTZ-JKFIT
	 Reference Energy          =    -886.3732545925561226 [Eh]
	 Singles Energy            =      -0.0000000000000000 [Eh]
	 Same-Spin Energy          =      -0.9011582723121233 [Eh]
	 Opposite-Spin Energy      =      -2.7147891768087296 [Eh]
	 Correlation Energy        =      -3.6159474491208528 [Eh]
	 Total Energy              =    -889.9892020416770038 [Eh]

	 ================> DF-SCS-MP2 Energies <==================
	-----------------------------------------------------------
	 SCS Same-Spin Scale       =       0.3333333333333333 [-]
	 SCS Opposite-Spin Scale   =       1.2000000000000000 [-]
	 SCS Same-Spin Energy      =      -0.3003860907707078 [Eh]
	 SCS Opposite-Spin Energy  =      -3.2577470121704755 [Eh]
	 SCS Correlation Energy    =      -3.5581331029411833 [Eh]
	 SCS Total Energy          =    -889.9313876954972784 [Eh]
	-----------------------------------------------------------

  Dipole Moment: [D]
     X:     1.6616      Y:    -5.9309      Z:    -1.8335     Total:     6.4264

*** Psi4 exiting successfully. Buy a developer a beer!
