                               Psi4 1.3.2 release

  ==> Input File <==

--------------------------------------------------------------------------
#psi4
#
memory 32 gb

molecule  {
0 1
  O       -1.2481010    -0.6526680     1.0325150
  O       -1.2449750     2.4828510    -0.6861630
  O       -3.2165300     1.5210990     0.7448870
  O       -2.3570290    -3.0668370     0.0949400
  O        1.3805537     2.2534618    -0.0819472
  N        0.8613240     0.0286854     0.2532176
  N        3.0572260     0.7205030    -0.2937270
  N        4.7164630    -0.8366550    -0.5722980
  C       -1.2894840     1.0784300    -0.5920770
  C       -2.7151710     0.6552070    -0.2573930
  C       -0.5254080     0.4815200     0.6000940
  C       -2.5292560    -0.7168860     0.3610560
  C       -2.5283440    -1.8503930    -0.6392900
  C        1.2197750    -1.2614080     0.3112740
  C        1.7555940     1.0674350    -0.0594030
  C        2.5111010    -1.6091400     0.0469950
  C        3.4119830    -0.5506530    -0.2589250
  H       -0.9376060     0.5914040    -1.5148910
  H       -3.3625820     0.6426650    -1.1464650
  H       -0.4402900     1.2218800     1.4039980
  H       -3.2819570    -0.9087340     1.1307830
  H       -1.7133080    -1.7003050    -1.3694640
  H       -3.4855610    -1.8340040    -1.1841350
  H       -0.2975250     2.7131790    -0.5250000
  H       -2.8475560     2.3997430     0.5086630
  H        0.4343110    -1.9634370     0.5690680
  H       -2.4338740    -3.7984320    -0.5432330
  H        2.8291120    -2.6453980     0.0739220
  H        5.1251800    -1.6708610    -0.1624140
  H        5.3198140    -0.0200540    -0.5682940
units angstrom
no_reorient  #important for SAPT in psi4, default
symmetry c1  #important for SAPT in psi4, default
}

set PROPERTIES_ORIGIN ["COM"]
properties('MP2/aug-cc-pvtz', properties = ['dipole'])
--------------------------------------------------------------------------

    Molecular point group: c1
  Charge       = 0
  Multiplicity = 1
  Basis Set: AUG-CC-PVTZ
    Blend: AUG-CC-PVTZ
  Basis Set: (AUG-CC-PVTZ AUX)
    Blend: AUG-CC-PVTZ-JKFIT

    Orbital Energies [Eh]
    ---------------------

    Doubly Occupied:

       1A    -20.582992     2A    -20.582796     3A    -20.559196
       4A    -20.559012     5A    -20.523008     6A    -15.638204
       7A    -15.597902     8A    -15.551144     9A    -11.388055
      10A    -11.355431    11A    -11.344794    12A    -11.326331
      13A    -11.301912    14A    -11.298627    15A    -11.297960
      16A    -11.294350    17A    -11.245981    18A     -1.429904
      19A     -1.396561    20A     -1.381421    21A     -1.373565
      22A     -1.347781    23A     -1.307725    24A     -1.274812
      25A     -1.180163    26A     -1.080728    27A     -1.068859
      28A     -1.022383    29A     -0.934956    30A     -0.911543
      31A     -0.877023    32A     -0.832641    33A     -0.812579
      34A     -0.766050    35A     -0.753905    36A     -0.737199
      37A     -0.719112    38A     -0.703065    39A     -0.699456
      40A     -0.684902    41A     -0.672843    42A     -0.655073
      43A     -0.650912    44A     -0.639030    45A     -0.621310
      46A     -0.615138    47A     -0.607128    48A     -0.594018
      49A     -0.576412    50A     -0.570341    51A     -0.554570
      52A     -0.545901    53A     -0.538180    54A     -0.532166
      55A     -0.500815    56A     -0.478539    57A     -0.475755
      58A     -0.463351    59A     -0.459699    60A     -0.454270
      61A     -0.441312    62A     -0.431960    63A     -0.394127
      64A     -0.348364

  @DF-RHF Final Energy:  -886.37233652441410

   => Energetics <=

    Nuclear Repulsion Energy =           1323.2046411424471444
    One-Electron Energy =               -3844.0234709726132678
    Two-Electron Energy =                1634.4464933057520284
    Total Energy =                       -886.3723365244140950
  Basis Set: (AUG-CC-PVTZ AUX)
    Blend: AUG-CC-PVTZ-RI
    Molecular point group: c1

    Geometry (in Angstrom), charge = 0, multiplicity = 1:

       Center              X                  Y                   Z               Mass
    ------------   -----------------  -----------------  -----------------  -----------------
         O           -1.250450875493    -0.652138278654     1.033027665290    15.994914619570
         O           -1.247324875493     2.483380721346    -0.685650334710    15.994914619570
         O           -3.218879875493     1.521628721346     0.745399665290    15.994914619570
         O           -2.359378875493    -3.066307278654     0.095452665290    15.994914619570
         O            1.378203824507     2.253991521346    -0.081434534710    15.994914619570
         N            0.858974124507     0.029215121346     0.253730265290    14.003074004430
         N            3.054876124507     0.721032721346    -0.293214334710    14.003074004430
         N            4.714113124507    -0.836125278654    -0.571785334710    14.003074004430
         C           -1.291833875493     1.078959721346    -0.591564334710    12.000000000000
         C           -2.717520875493     0.655736721346    -0.256880334710    12.000000000000
         C           -0.527757875493     0.482049721346     0.600606665290    12.000000000000
         C           -2.531605875493    -0.716356278654     0.361568665290    12.000000000000
         C           -2.530693875493    -1.849863278654    -0.638777334710    12.000000000000
         C            1.217425124507    -1.260878278654     0.311786665290    12.000000000000
         C            1.753244124507     1.067964721346    -0.058890334710    12.000000000000
         C            2.508751124507    -1.608610278654     0.047507665290    12.000000000000
         C            3.409633124507    -0.550123278654    -0.258412334710    12.000000000000
         H           -0.939955875493     0.591933721346    -1.514378334710     1.007825032230
         H           -3.364931875493     0.643194721346    -1.145952334710     1.007825032230
         H           -0.442639875493     1.222409721346     1.404510665290     1.007825032230
         H           -3.284306875493    -0.908204278654     1.131295665290     1.007825032230
         H           -1.715657875493    -1.699775278654    -1.368951334710     1.007825032230
         H           -3.487910875493    -1.833474278654    -1.183622334710     1.007825032230
         H           -0.299874875493     2.713708721346    -0.524487334710     1.007825032230
         H           -2.849905875493     2.400272721346     0.509175665290     1.007825032230
         H            0.431961124507    -1.962907278654     0.569580665290     1.007825032230
         H           -2.436223875493    -3.797902278654    -0.542720334710     1.007825032230
         H            2.826762124507    -2.644868278654     0.074434665290     1.007825032230
         H            5.122830124507    -1.670331278654    -0.161901334710     1.007825032230
         H            5.317464124507    -0.019524278654    -0.567781334710     1.007825032230

  Basis Set: AUG-CC-PVTZ
    Blend: AUG-CC-PVTZ
  Basis Set: (AUG-CC-PVTZ AUX)
    Blend: AUG-CC-PVTZ-JKFIT
	 Reference Energy          =    -886.3723365244140950 [Eh]
	 Singles Energy            =      -0.0000000000000000 [Eh]
	 Same-Spin Energy          =      -0.9013572042125284 [Eh]
	 Opposite-Spin Energy      =      -2.7150103353131110 [Eh]
	 Correlation Energy        =      -3.6163675395256396 [Eh]
	 Total Energy              =    -889.9887040639397355 [Eh]

	 ================> DF-SCS-MP2 Energies <==================
	-----------------------------------------------------------
	 SCS Same-Spin Scale       =       0.3333333333333333 [-]
	 SCS Opposite-Spin Scale   =       1.2000000000000000 [-]
	 SCS Same-Spin Energy      =      -0.3004524014041761 [Eh]
	 SCS Opposite-Spin Energy  =      -3.2580124023757331 [Eh]
	 SCS Correlation Energy    =      -3.5584648037799091 [Eh]
	 SCS Total Energy          =    -889.9308013281939793 [Eh]
	-----------------------------------------------------------

  Dipole Moment: [D]
     X:     1.5077      Y:    -5.9001      Z:    -1.8000     Total:     6.3502

*** Psi4 exiting successfully. Buy a developer a beer!
