                               Psi4 1.3.2 release

  ==> Input File <==

--------------------------------------------------------------------------
#psi4
#
memory 32 gb

molecule  {
0 1
  O       -1.2481010    -0.6526680     1.0325150
  O       -1.2449750     2.4828510    -0.6861630
  O       -3.2165300     1.5210990     0.7448870
  O       -2.3570290    -3.0668370     0.0949400
  O        1.3605300     2.2470340    -0.0765420
  N        0.8434040     0.0452230     0.2559430
  N        3.0572260     0.7205030    -0.2937270
  N        4.7164630    -0.8366550    -0.5722980
  C       -1.2894840     1.0784300    -0.5920770
  C       -2.7151710     0.6552070    -0.2573930
  C       -0.5254080     0.4815200     0.6000940
  C       -2.5292560    -0.7168860     0.3610560
  C       -2.5283440    -1.8503930    -0.6392900
  C        1.2197750    -1.2614080     0.3112740
  C        1.7555940     1.0674350    -0.0594030
  C        2.5111010    -1.6091400     0.0469950
  C        3.2853858    -0.6993978    -0.2159353
  H       -0.9376060     0.5914040    -1.5148910
  H       -3.3625820     0.6426650    -1.1464650
  H       -0.4402900     1.2218800     1.4039980
  H       -3.2819570    -0.9087340     1.1307830
  H       -1.7133080    -1.7003050    -1.3694640
  H       -3.4855610    -1.8340040    -1.1841350
  H       -0.2975250     2.7131790    -0.5250000
  H       -2.8475560     2.3997430     0.5086630
  H        0.4343110    -1.9634370     0.5690680
  H       -2.4338740    -3.7984320    -0.5432330
  H        2.8291120    -2.6453980     0.0739220
  H        5.1251800    -1.6708610    -0.1624140
  H        5.3198140    -0.0200540    -0.5682940
units angstrom
no_reorient  #important for SAPT in psi4, default
symmetry c1  #important for SAPT in psi4, default
}

set PROPERTIES_ORIGIN ["COM"]
properties('MP2/aug-cc-pvtz', properties = ['dipole'])
--------------------------------------------------------------------------

    Molecular point group: c1
  Charge       = 0
  Multiplicity = 1
  Basis Set: AUG-CC-PVTZ
    Blend: AUG-CC-PVTZ
  Basis Set: (AUG-CC-PVTZ AUX)
    Blend: AUG-CC-PVTZ-JKFIT

    Orbital Energies [Eh]
    ---------------------

    Doubly Occupied:

       1A    -20.589593     2A    -20.588106     3A    -20.562045
       4A    -20.559952     5A    -20.512325     6A    -15.658903
       7A    -15.580611     8A    -15.553496     9A    -11.376522
      10A    -11.359582    11A    -11.350410    12A    -11.344119
      13A    -11.307053    14A    -11.302923    15A    -11.302836
      16A    -11.298180    17A    -11.241414    18A     -1.436690
      19A     -1.394918    20A     -1.384618    21A     -1.378248
      22A     -1.349644    23A     -1.307415    24A     -1.244480
      25A     -1.144154    26A     -1.120747    27A     -1.073504
      28A     -1.035183    29A     -0.957190    30A     -0.924120
      31A     -0.862920    32A     -0.836369    33A     -0.816539
      34A     -0.769166    35A     -0.758215    36A     -0.741931
      37A     -0.715949    38A     -0.706317    39A     -0.701231
      40A     -0.676443    41A     -0.671766    42A     -0.664853
      43A     -0.649346    44A     -0.640662    45A     -0.631698
      46A     -0.617825    47A     -0.610757    48A     -0.581228
      49A     -0.574971    50A     -0.569630    51A     -0.557002
      52A     -0.546421    53A     -0.541605    54A     -0.526601
      55A     -0.497907    56A     -0.482891    57A     -0.478782
      58A     -0.468664    59A     -0.457546    60A     -0.456129
      61A     -0.444296    62A     -0.432842    63A     -0.387872
      64A     -0.357979

  @DF-RHF Final Energy:  -886.30353716019545

   => Energetics <=

    Nuclear Repulsion Energy =           1324.8187882805525533
    One-Electron Energy =               -3846.8979781847160666
    Two-Electron Energy =                1635.7756527439678393
    Total Energy =                       -886.3035371601954466
  Basis Set: (AUG-CC-PVTZ AUX)
    Blend: AUG-CC-PVTZ-RI
    Molecular point group: c1

    Geometry (in Angstrom), charge = 0, multiplicity = 1:

       Center              X                  Y                   Z               Mass
    ------------   -----------------  -----------------  -----------------  -----------------
         O           -1.241851519787    -0.645325151851     1.030392806212    15.994914619570
         O           -1.238725519787     2.490193848149    -0.688285193788    15.994914619570
         O           -3.210280519787     1.528441848149     0.742764806212    15.994914619570
         O           -2.350779519787    -3.059494151851     0.092817806212    15.994914619570
         O            1.366779480213     2.254376848149    -0.078664193788    15.994914619570
         N            0.849653480213     0.052565848149     0.253820806212    14.003074004430
         N            3.063475480213     0.727845848149    -0.295849193788    14.003074004430
         N            4.722712480213    -0.829312151851    -0.574420193788    14.003074004430
         C           -1.283234519787     1.085772848149    -0.594199193788    12.000000000000
         C           -2.708921519787     0.662549848149    -0.259515193788    12.000000000000
         C           -0.519158519787     0.488862848149     0.597971806212    12.000000000000
         C           -2.523006519787    -0.709543151851     0.358933806212    12.000000000000
         C           -2.522094519787    -1.843050151851    -0.641412193788    12.000000000000
         C            1.226024480213    -1.254065151851     0.309151806212    12.000000000000
         C            1.761843480213     1.074777848149    -0.061525193788    12.000000000000
         C            2.517350480213    -1.601797151851     0.044872806212    12.000000000000
         C            3.291635280213    -0.692054951851    -0.218057493788    12.000000000000
         H           -0.931356519787     0.598746848149    -1.517013193788     1.007825032230
         H           -3.356332519787     0.650007848149    -1.148587193788     1.007825032230
         H           -0.434040519787     1.229222848149     1.401875806212     1.007825032230
         H           -3.275707519787    -0.901391151851     1.128660806212     1.007825032230
         H           -1.707058519787    -1.692962151851    -1.371586193788     1.007825032230
         H           -3.479311519787    -1.826661151851    -1.186257193788     1.007825032230
         H           -0.291275519787     2.720521848149    -0.527122193788     1.007825032230
         H           -2.841306519787     2.407085848149     0.506540806212     1.007825032230
         H            0.440560480213    -1.956094151851     0.566945806212     1.007825032230
         H           -2.427624519787    -3.791089151851    -0.545355193788     1.007825032230
         H            2.835361480213    -2.638055151851     0.071799806212     1.007825032230
         H            5.131429480213    -1.663518151851    -0.164536193788     1.007825032230
         H            5.326063480213    -0.012711151851    -0.570416193788     1.007825032230

  Basis Set: AUG-CC-PVTZ
    Blend: AUG-CC-PVTZ
  Basis Set: (AUG-CC-PVTZ AUX)
    Blend: AUG-CC-PVTZ-JKFIT
	 Reference Energy          =    -886.3035371601954466 [Eh]
	 Singles Energy            =      -0.0000000000000000 [Eh]
	 Same-Spin Energy          =      -0.9047366057846264 [Eh]
	 Opposite-Spin Energy      =      -2.7213049252659616 [Eh]
	 Correlation Energy        =      -3.6260415310505882 [Eh]
	 Total Energy              =    -889.9295786912459789 [Eh]

	 ================> DF-SCS-MP2 Energies <==================
	-----------------------------------------------------------
	 SCS Same-Spin Scale       =       0.3333333333333333 [-]
	 SCS Opposite-Spin Scale   =       1.2000000000000000 [-]
	 SCS Same-Spin Energy      =      -0.3015788685948755 [Eh]
	 SCS Opposite-Spin Energy  =      -3.2655659103191539 [Eh]
	 SCS Correlation Energy    =      -3.5671447789140291 [Eh]
	 SCS Total Energy          =    -889.8706819391094314 [Eh]
	-----------------------------------------------------------

  Dipole Moment: [D]
     X:     0.2610      Y:    -6.3279      Z:    -1.5032     Total:     6.5092

*** Psi4 exiting successfully. Buy a developer a beer!
