                               Psi4 1.3.2 release

  ==> Input File <==

--------------------------------------------------------------------------
#psi4
#
memory 32 gb

molecule  {
0 1
  O       -1.2481010    -0.6526680     1.0325150
  O       -1.2449750     2.4828510    -0.6861630
  O       -3.2165300     1.5210990     0.7448870
  O       -2.3570290    -3.0668370     0.0949400
  O        1.3605300     2.2470340    -0.0765420
  N        0.8434040     0.0452230     0.2559430
  N        3.0572260     0.7205030    -0.2937270
  N        4.7164630    -0.8366550    -0.5722980
  C       -1.2894840     1.0784300    -0.5920770
  C       -2.7151710     0.6552070    -0.2573930
  C       -0.5254080     0.4815200     0.6000940
  C       -2.5292560    -0.7168860     0.3610560
  C       -2.5283440    -1.8503930    -0.6392900
  C        1.2197750    -1.2614080     0.3112740
  C        1.7555940     1.0674350    -0.0594030
  C        2.5111010    -1.6091400     0.0469950
  C        3.4119830    -0.5506530    -0.2589250
  H       -0.9376060     0.5914040    -1.5148910
  H       -3.3625820     0.6426650    -1.1464650
  H       -0.4402900     1.2218800     1.4039980
  H       -3.2819570    -0.9087340     1.1307830
  H       -1.6395170    -1.6867165    -1.4355718
  H       -3.4855610    -1.8340040    -1.1841350
  H       -0.2975250     2.7131790    -0.5250000
  H       -2.8475560     2.3997430     0.5086630
  H        0.4343110    -1.9634370     0.5690680
  H       -2.4338740    -3.7984320    -0.5432330
  H        2.8291120    -2.6453980     0.0739220
  H        5.1251800    -1.6708610    -0.1624140
  H        5.3198140    -0.0200540    -0.5682940
units angstrom
no_reorient  #important for SAPT in psi4, default
symmetry c1  #important for SAPT in psi4, default
}

set PROPERTIES_ORIGIN ["COM"]
properties('MP2/aug-cc-pvtz', properties = ['dipole'])
--------------------------------------------------------------------------

    Molecular point group: c1
  Charge       = 0
  Multiplicity = 1
  Basis Set: AUG-CC-PVTZ
    Blend: AUG-CC-PVTZ
  Basis Set: (AUG-CC-PVTZ AUX)
    Blend: AUG-CC-PVTZ-JKFIT

    Orbital Energies [Eh]
    ---------------------

    Doubly Occupied:

       1A    -20.584788     2A    -20.581707     3A    -20.557920
       4A    -20.556910     5A    -20.521769     6A    -15.636682
       7A    -15.599665     8A    -15.553118     9A    -11.388041
      10A    -11.357638    11A    -11.341407    12A    -11.328266
      13A    -11.313322    14A    -11.298348    15A    -11.296191
      16A    -11.293127    17A    -11.248289    18A     -1.429352
      19A     -1.396300    20A     -1.380551    21A     -1.373917
      22A     -1.346241    23A     -1.305846    24A     -1.273592
      25A     -1.182043    26A     -1.081713    27A     -1.066916
      28A     -1.020770    29A     -0.932638    30A     -0.908299
      31A     -0.875766    32A     -0.831718    33A     -0.810077
      34A     -0.766308    35A     -0.751829    36A     -0.735237
      37A     -0.719367    38A     -0.704045    39A     -0.698788
      40A     -0.684672    41A     -0.670236    42A     -0.652498
      43A     -0.649703    44A     -0.638230    45A     -0.619268
      46A     -0.614750    47A     -0.606098    48A     -0.593724
      49A     -0.575938    50A     -0.569370    51A     -0.553668
      52A     -0.545682    53A     -0.537422    54A     -0.530979
      55A     -0.497808    56A     -0.475268    57A     -0.473772
      58A     -0.461869    59A     -0.459422    60A     -0.451249
      61A     -0.440651    62A     -0.433034    63A     -0.395001
      64A     -0.349774

  @DF-RHF Final Energy:  -886.36635404404240

   => Energetics <=

    Nuclear Repulsion Energy =           1323.3334511505231603
    One-Electron Energy =               -3844.3424394057547033
    Two-Electron Energy =                1634.6426342111892609
    Total Energy =                       -886.3663540440422821
  Basis Set: (AUG-CC-PVTZ AUX)
    Blend: AUG-CC-PVTZ-RI
    Molecular point group: c1

    Geometry (in Angstrom), charge = 0, multiplicity = 1:

       Center              X                  Y                   Z               Mass
    ------------   -----------------  -----------------  -----------------  -----------------
         O           -1.248406969135    -0.652724327361     1.032789088370    15.994914619570
         O           -1.245280969135     2.482794672639    -0.685888911630    15.994914619570
         O           -3.216835969135     1.521042672639     0.745161088370    15.994914619570
         O           -2.357334969135    -3.066893327361     0.095214088370    15.994914619570
         O            1.360224030865     2.246977672639    -0.076267911630    15.994914619570
         N            0.843098030865     0.045166672639     0.256217088370    14.003074004430
         N            3.056920030865     0.720446672639    -0.293452911630    14.003074004430
         N            4.716157030865    -0.836711327361    -0.572023911630    14.003074004430
         C           -1.289789969135     1.078373672639    -0.591802911630    12.000000000000
         C           -2.715476969135     0.655150672639    -0.257118911630    12.000000000000
         C           -0.525713969135     0.481463672639     0.600368088370    12.000000000000
         C           -2.529561969135    -0.716942327361     0.361330088370    12.000000000000
         C           -2.528649969135    -1.850449327361    -0.639015911630    12.000000000000
         C            1.219469030865    -1.261464327361     0.311548088370    12.000000000000
         C            1.755288030865     1.067378672639    -0.059128911630    12.000000000000
         C            2.510795030865    -1.609196327361     0.047269088370    12.000000000000
         C            3.411677030865    -0.550709327361    -0.258650911630    12.000000000000
         H           -0.937911969135     0.591347672639    -1.514616911630     1.007825032230
         H           -3.362887969135     0.642608672639    -1.146190911630     1.007825032230
         H           -0.440595969135     1.221823672639     1.404272088370     1.007825032230
         H           -3.282262969135    -0.908790327361     1.131057088370     1.007825032230
         H           -1.639822969135    -1.686772827361    -1.435297711630     1.007825032230
         H           -3.485866969135    -1.834060327361    -1.183860911630     1.007825032230
         H           -0.297830969135     2.713122672639    -0.524725911630     1.007825032230
         H           -2.847861969135     2.399686672639     0.508937088370     1.007825032230
         H            0.434005030865    -1.963493327361     0.569342088370     1.007825032230
         H           -2.434179969135    -3.798488327361    -0.542958911630     1.007825032230
         H            2.828806030865    -2.645454327361     0.074196088370     1.007825032230
         H            5.124874030865    -1.670917327361    -0.162139911630     1.007825032230
         H            5.319508030865    -0.020110327361    -0.568019911630     1.007825032230

  Basis Set: AUG-CC-PVTZ
    Blend: AUG-CC-PVTZ
  Basis Set: (AUG-CC-PVTZ AUX)
    Blend: AUG-CC-PVTZ-JKFIT
	 Reference Energy          =    -886.3663540440423958 [Eh]
	 Singles Energy            =      -0.0000000000000000 [Eh]
	 Same-Spin Energy          =      -0.9014407351591813 [Eh]
	 Opposite-Spin Energy      =      -2.7158723846530002 [Eh]
	 Correlation Energy        =      -3.6173131198121817 [Eh]
	 Total Energy              =    -889.9836671638545340 [Eh]

	 ================> DF-SCS-MP2 Energies <==================
	-----------------------------------------------------------
	 SCS Same-Spin Scale       =       0.3333333333333333 [-]
	 SCS Opposite-Spin Scale   =       1.2000000000000000 [-]
	 SCS Same-Spin Energy      =      -0.3004802450530604 [Eh]
	 SCS Opposite-Spin Energy  =      -3.2590468615836001 [Eh]
	 SCS Correlation Energy    =      -3.5595271066366605 [Eh]
	 SCS Total Energy          =    -889.9258811506790607 [Eh]
	-----------------------------------------------------------

  Dipole Moment: [D]
     X:     1.6549      Y:    -5.9904      Z:    -1.7613     Total:     6.4595

*** Psi4 exiting successfully. Buy a developer a beer!
