                               Psi4 1.3.2 release

  ==> Input File <==

--------------------------------------------------------------------------
#psi4
#
memory 32 gb

molecule  {
0 1
  O       -1.2481010    -0.6526680     1.0325150
  O       -1.2449750     2.4828510    -0.6861630
  O       -3.2165300     1.5210990     0.7448870
  O       -2.3570290    -3.0668370     0.0949400
  O        1.3605300     2.2470340    -0.0765420
  N        0.8434040     0.0452230     0.2559430
  N        3.0572260     0.7205030    -0.2937270
  N        4.7164630    -0.8366550    -0.5722980
  C       -1.2943897     1.1243220    -0.5647485
  C       -2.7151710     0.6552070    -0.2573930
  C       -0.5254080     0.4815200     0.6000940
  C       -2.5292560    -0.7168860     0.3610560
  C       -2.5283440    -1.8503930    -0.6392900
  C        1.2197750    -1.2614080     0.3112740
  C        1.7555940     1.0674350    -0.0594030
  C        2.5111010    -1.6091400     0.0469950
  C        3.4119830    -0.5506530    -0.2589250
  H       -0.9376060     0.5914040    -1.5148910
  H       -3.3625820     0.6426650    -1.1464650
  H       -0.4595173     1.2467665     1.3822039
  H       -3.2819570    -0.9087340     1.1307830
  H       -1.7133080    -1.7003050    -1.3694640
  H       -3.4855610    -1.8340040    -1.1841350
  H       -0.2975250     2.7131790    -0.5250000
  H       -2.8475560     2.3997430     0.5086630
  H        0.4343110    -1.9634370     0.5690680
  H       -2.4338740    -3.7984320    -0.5432330
  H        2.8291120    -2.6453980     0.0739220
  H        5.1251800    -1.6708610    -0.1624140
  H        5.3198140    -0.0200540    -0.5682940
units angstrom
no_reorient  #important for SAPT in psi4, default
symmetry c1  #important for SAPT in psi4, default
}

set PROPERTIES_ORIGIN ["COM"]
properties('MP2/aug-cc-pvtz', properties = ['dipole'])
--------------------------------------------------------------------------

    Molecular point group: c1
  Charge       = 0
  Multiplicity = 1
  Basis Set: AUG-CC-PVTZ
    Blend: AUG-CC-PVTZ
  Basis Set: (AUG-CC-PVTZ AUX)
    Blend: AUG-CC-PVTZ-JKFIT

    Orbital Energies [Eh]
    ---------------------

    Doubly Occupied:

       1A    -20.582190     2A    -20.581740     3A    -20.561767
       4A    -20.556972     5A    -20.522817     6A    -15.637645
       7A    -15.599922     8A    -15.553517     9A    -11.388753
      10A    -11.357982    11A    -11.340674    12A    -11.328615
      13A    -11.300431    14A    -11.298160    15A    -11.296987
      16A    -11.292096    17A    -11.248590    18A     -1.430597
      19A     -1.396797    20A     -1.390904    21A     -1.373559
      22A     -1.352707    23A     -1.306387    24A     -1.273806
      25A     -1.182360    26A     -1.081812    27A     -1.065431
      28A     -1.020290    29A     -0.934992    30A     -0.909377
      31A     -0.877384    32A     -0.831517    33A     -0.811593
      34A     -0.766840    35A     -0.753964    36A     -0.738565
      37A     -0.719796    38A     -0.704351    39A     -0.698563
      40A     -0.685881    41A     -0.673009    42A     -0.654944
      43A     -0.652079    44A     -0.638231    45A     -0.622196
      46A     -0.617021    47A     -0.606469    48A     -0.596391
      49A     -0.576732    50A     -0.570034    51A     -0.557812
      52A     -0.545917    53A     -0.541025    54A     -0.532122
      55A     -0.498807    56A     -0.477438    57A     -0.472122
      58A     -0.462735    59A     -0.460546    60A     -0.445538
      61A     -0.438176    62A     -0.432335    63A     -0.394893
      64A     -0.350022

  @DF-RHF Final Energy:  -886.37024820590409

   => Energetics <=

    Nuclear Repulsion Energy =           1323.9569097705061722
    One-Electron Energy =               -3845.5084691629663212
    Two-Electron Energy =                1635.1813111865560586
    Total Energy =                       -886.3702482059040904
  Basis Set: (AUG-CC-PVTZ AUX)
    Blend: AUG-CC-PVTZ-RI
    Molecular point group: c1

    Geometry (in Angstrom), charge = 0, multiplicity = 1:

       Center              X                  Y                   Z               Mass
    ------------   -----------------  -----------------  -----------------  -----------------
         O           -1.247779146585    -0.655036642821     1.031256284379    15.994914619570
         O           -1.244653146585     2.480482357179    -0.687421715621    15.994914619570
         O           -3.216208146585     1.518730357179     0.743628284379    15.994914619570
         O           -2.356707146585    -3.069205642821     0.093681284379    15.994914619570
         O            1.360851853415     2.244665357179    -0.077800715621    15.994914619570
         N            0.843725853415     0.042854357179     0.254684284379    14.003074004430
         N            3.057547853415     0.718134357179    -0.294985715621    14.003074004430
         N            4.716784853415    -0.839023642821    -0.573556715621    14.003074004430
         C           -1.294067846585     1.121953357179    -0.566007215621    12.000000000000
         C           -2.714849146585     0.652838357179    -0.258651715621    12.000000000000
         C           -0.525086146585     0.479151357179     0.598835284379    12.000000000000
         C           -2.528934146585    -0.719254642821     0.359797284379    12.000000000000
         C           -2.528022146585    -1.852761642821    -0.640548715621    12.000000000000
         C            1.220096853415    -1.263776642821     0.310015284379    12.000000000000
         C            1.755915853415     1.065066357179    -0.060661715621    12.000000000000
         C            2.511422853415    -1.611508642821     0.045736284379    12.000000000000
         C            3.412304853415    -0.553021642821    -0.260183715621    12.000000000000
         H           -0.937284146585     0.589035357179    -1.516149715621     1.007825032230
         H           -3.362260146585     0.640296357179    -1.147723715621     1.007825032230
         H           -0.459195446585     1.244397857179     1.380945184379     1.007825032230
         H           -3.281635146585    -0.911102642821     1.129524284379     1.007825032230
         H           -1.712986146585    -1.702673642821    -1.370722715621     1.007825032230
         H           -3.485239146585    -1.836372642821    -1.185393715621     1.007825032230
         H           -0.297203146585     2.710810357179    -0.526258715621     1.007825032230
         H           -2.847234146585     2.397374357179     0.507404284379     1.007825032230
         H            0.434632853415    -1.965805642821     0.567809284379     1.007825032230
         H           -2.433552146585    -3.800800642821    -0.544491715621     1.007825032230
         H            2.829433853415    -2.647766642821     0.072663284379     1.007825032230
         H            5.125501853415    -1.673229642821    -0.163672715621     1.007825032230
         H            5.320135853415    -0.022422642821    -0.569552715621     1.007825032230

  Basis Set: AUG-CC-PVTZ
    Blend: AUG-CC-PVTZ
  Basis Set: (AUG-CC-PVTZ AUX)
    Blend: AUG-CC-PVTZ-JKFIT
	 Reference Energy          =    -886.3702482059040904 [Eh]
	 Singles Energy            =      -0.0000000000000000 [Eh]
	 Same-Spin Energy          =      -0.9013743535906720 [Eh]
	 Opposite-Spin Energy      =      -2.7145578337400700 [Eh]
	 Correlation Energy        =      -3.6159321873307420 [Eh]
	 Total Energy              =    -889.9861803932348039 [Eh]

	 ================> DF-SCS-MP2 Energies <==================
	-----------------------------------------------------------
	 SCS Same-Spin Scale       =       0.3333333333333333 [-]
	 SCS Opposite-Spin Scale   =       1.2000000000000000 [-]
	 SCS Same-Spin Energy      =      -0.3004581178635573 [Eh]
	 SCS Opposite-Spin Energy  =      -3.2574694004880840 [Eh]
	 SCS Correlation Energy    =      -3.5579275183516414 [Eh]
	 SCS Total Energy          =    -889.9281757242557660 [Eh]
	-----------------------------------------------------------

  Dipole Moment: [D]
     X:     1.7252      Y:    -5.8170      Z:    -1.8050     Total:     6.3302

*** Psi4 exiting successfully. Buy a developer a beer!
