                               Psi4 1.3.2 release

  ==> Input File <==

--------------------------------------------------------------------------
#psi4
#
memory 32 gb

molecule  {
0 1
  O       -1.2481010    -0.6526680     1.0325150
  O       -1.2449750     2.4828510    -0.6861630
  O       -3.2165300     1.5210990     0.7448870
  O       -2.3570290    -3.0668370     0.0949400
  O        1.3605300     2.2470340    -0.0765420
  N        0.8434040     0.0452230     0.2559430
  N        3.0358631     0.7145021    -0.2875204
  N        4.7119885    -0.8599104    -0.5687855
  C       -1.2894840     1.0784300    -0.5920770
  C       -2.7151710     0.6552070    -0.2573930
  C       -0.5254080     0.4815200     0.6000940
  C       -2.5292560    -0.7168860     0.3610560
  C       -2.5283440    -1.8503930    -0.6392900
  C        1.2197750    -1.2614080     0.3112740
  C        1.7555940     1.0674350    -0.0594030
  C        2.5111010    -1.6091400     0.0469950
  C        3.4119830    -0.5506530    -0.2589250
  H       -0.9376060     0.5914040    -1.5148910
  H       -3.3625820     0.6426650    -1.1464650
  H       -0.4402900     1.2218800     1.4039980
  H       -3.2819570    -0.9087340     1.1307830
  H       -1.7133080    -1.7003050    -1.3694640
  H       -3.4855610    -1.8340040    -1.1841350
  H       -0.2975250     2.7131790    -0.5250000
  H       -2.8475560     2.3997430     0.5086630
  H        0.4343110    -1.9634370     0.5690680
  H       -2.4338740    -3.7984320    -0.5432330
  H        2.8291120    -2.6453980     0.0739220
  H        5.1251800    -1.6708610    -0.1624140
  H        5.3198140    -0.0200540    -0.5682940
units angstrom
no_reorient  #important for SAPT in psi4, default
symmetry c1  #important for SAPT in psi4, default
}

set PROPERTIES_ORIGIN ["COM"]
properties('MP2/aug-cc-pvtz', properties = ['dipole'])
--------------------------------------------------------------------------

    Molecular point group: c1
  Charge       = 0
  Multiplicity = 1
  Basis Set: AUG-CC-PVTZ
    Blend: AUG-CC-PVTZ
  Basis Set: (AUG-CC-PVTZ AUX)
    Blend: AUG-CC-PVTZ-JKFIT

    Orbital Energies [Eh]
    ---------------------

    Doubly Occupied:

       1A    -20.581942     2A    -20.580980     3A    -20.557377
       4A    -20.556623     5A    -20.519954     6A    -15.635802
       7A    -15.602163     8A    -15.551843     9A    -11.386198
      10A    -11.360001    11A    -11.340755    12A    -11.327778
      13A    -11.300832    14A    -11.296475    15A    -11.296106
      16A    -11.292517    17A    -11.247526    18A     -1.428889
      19A     -1.396514    20A     -1.379681    21A     -1.372409
      22A     -1.345854    23A     -1.306363    24A     -1.273260
      25A     -1.187456    26A     -1.081537    27A     -1.067271
      28A     -1.021087    29A     -0.935988    30A     -0.908187
      31A     -0.880692    32A     -0.832752    33A     -0.811288
      34A     -0.766941    35A     -0.752324    36A     -0.735663
      37A     -0.723459    38A     -0.703000    39A     -0.698026
      40A     -0.686546    41A     -0.671752    42A     -0.655750
      43A     -0.650910    44A     -0.638517    45A     -0.619498
      46A     -0.614242    47A     -0.605631    48A     -0.594316
      49A     -0.575367    50A     -0.569475    51A     -0.553594
      52A     -0.545465    53A     -0.537205    54A     -0.531713
      55A     -0.497744    56A     -0.477102    57A     -0.473942
      58A     -0.461667    59A     -0.458042    60A     -0.452309
      61A     -0.439801    62A     -0.432342    63A     -0.396838
      64A     -0.349647

  @DF-RHF Final Energy:  -886.37272364712578

   => Energetics <=

    Nuclear Repulsion Energy =           1324.3517606034965866
    One-Electron Energy =               -3846.3831008882739297
    Two-Electron Energy =                1635.6586166376514484
    Total Energy =                       -886.3727236471258948
  Basis Set: (AUG-CC-PVTZ AUX)
    Blend: AUG-CC-PVTZ-RI
    Molecular point group: c1

    Geometry (in Angstrom), charge = 0, multiplicity = 1:

       Center              X                  Y                   Z               Mass
    ------------   -----------------  -----------------  -----------------  -----------------
         O           -1.246612656416    -0.650982664741     1.031955133424    15.994914619570
         O           -1.243486656416     2.484536335259    -0.686722866576    15.994914619570
         O           -3.215041656416     1.522784335259     0.744327133424    15.994914619570
         O           -2.355540656416    -3.065151664741     0.094380133424    15.994914619570
         O            1.362018343584     2.248719335259    -0.077101866576    15.994914619570
         N            0.844892343584     0.046908335259     0.255383133424    14.003074004430
         N            3.037351443584     0.716187435259    -0.288080266576    14.003074004430
         N            4.713476843584    -0.858225064741    -0.569345366576    14.003074004430
         C           -1.287995656416     1.080115335259    -0.592636866576    12.000000000000
         C           -2.713682656416     0.656892335259    -0.257952866576    12.000000000000
         C           -0.523919656416     0.483205335259     0.599534133424    12.000000000000
         C           -2.527767656416    -0.715200664741     0.360496133424    12.000000000000
         C           -2.526855656416    -1.848707664741    -0.639849866576    12.000000000000
         C            1.221263343584    -1.259722664741     0.310714133424    12.000000000000
         C            1.757082343584     1.069120335259    -0.059962866576    12.000000000000
         C            2.512589343584    -1.607454664741     0.046435133424    12.000000000000
         C            3.413471343584    -0.548967664741    -0.259484866576    12.000000000000
         H           -0.936117656416     0.593089335259    -1.515450866576     1.007825032230
         H           -3.361093656416     0.644350335259    -1.147024866576     1.007825032230
         H           -0.438801656416     1.223565335259     1.403438133424     1.007825032230
         H           -3.280468656416    -0.907048664741     1.130223133424     1.007825032230
         H           -1.711819656416    -1.698619664741    -1.370023866576     1.007825032230
         H           -3.484072656416    -1.832318664741    -1.184694866576     1.007825032230
         H           -0.296036656416     2.714864335259    -0.525559866576     1.007825032230
         H           -2.846067656416     2.401428335259     0.508103133424     1.007825032230
         H            0.435799343584    -1.961751664741     0.568508133424     1.007825032230
         H           -2.432385656416    -3.796746664741    -0.543792866576     1.007825032230
         H            2.830600343584    -2.643712664741     0.073362133424     1.007825032230
         H            5.126668343584    -1.669175664741    -0.162973866576     1.007825032230
         H            5.321302343584    -0.018368664741    -0.568853866576     1.007825032230

  Basis Set: AUG-CC-PVTZ
    Blend: AUG-CC-PVTZ
  Basis Set: (AUG-CC-PVTZ AUX)
    Blend: AUG-CC-PVTZ-JKFIT
	 Reference Energy          =    -886.3727236471257811 [Eh]
	 Singles Energy            =      -0.0000000000000000 [Eh]
	 Same-Spin Energy          =      -0.9013680629773703 [Eh]
	 Opposite-Spin Energy      =      -2.7146754194241520 [Eh]
	 Correlation Energy        =      -3.6160434824015222 [Eh]
	 Total Energy              =    -889.9887671295273321 [Eh]

	 ================> DF-SCS-MP2 Energies <==================
	-----------------------------------------------------------
	 SCS Same-Spin Scale       =       0.3333333333333333 [-]
	 SCS Opposite-Spin Scale   =       1.2000000000000000 [-]
	 SCS Same-Spin Energy      =      -0.3004560209924567 [Eh]
	 SCS Opposite-Spin Energy  =      -3.2576105033089822 [Eh]
	 SCS Correlation Energy    =      -3.5580665243014389 [Eh]
	 SCS Total Energy          =    -889.9307901714272475 [Eh]
	-----------------------------------------------------------

  Dipole Moment: [D]
     X:     1.8232      Y:    -5.9651      Z:    -1.8399     Total:     6.5032

*** Psi4 exiting successfully. Buy a developer a beer!
