                               Psi4 1.3.2 release

  ==> Input File <==

--------------------------------------------------------------------------
#psi4
#
memory 32 gb

molecule  {
0 1
  O       -1.2481010    -0.6526680     1.0325150
  O       -1.2449750     2.4828510    -0.6861630
  O       -3.2165300     1.5210990     0.7448870
  O       -2.3570290    -3.0668370     0.0949400
  O        1.3605300     2.2470340    -0.0765420
  N        0.8434040     0.0452230     0.2559430
  N        3.0572260     0.7205030    -0.2937270
  N        4.7164630    -0.8366550    -0.5722980
  C       -1.2894840     1.0784300    -0.5920770
  C       -2.7151710     0.6552070    -0.2573930
  C       -0.5254080     0.4815200     0.6000940
  C       -2.5292560    -0.7168860     0.3610560
  C       -2.5283440    -1.8503930    -0.6392900
  C        1.2197750    -1.2614080     0.3112740
  C        1.6907093     0.9947244    -0.0369722
  C        2.5111010    -1.6091400     0.0469950
  C        3.4119830    -0.5506530    -0.2589250
  H       -0.9376060     0.5914040    -1.5148910
  H       -3.3625820     0.6426650    -1.1464650
  H       -0.4402900     1.2218800     1.4039980
  H       -3.2819570    -0.9087340     1.1307830
  H       -1.7133080    -1.7003050    -1.3694640
  H       -3.4855610    -1.8340040    -1.1841350
  H       -0.2975250     2.7131790    -0.5250000
  H       -2.8475560     2.3997430     0.5086630
  H        0.4343110    -1.9634370     0.5690680
  H       -2.4338740    -3.7984320    -0.5432330
  H        2.8291120    -2.6453980     0.0739220
  H        5.1251800    -1.6708610    -0.1624140
  H        5.3198140    -0.0200540    -0.5682940
units angstrom
no_reorient  #important for SAPT in psi4, default
symmetry c1  #important for SAPT in psi4, default
}

set PROPERTIES_ORIGIN ["COM"]
properties('MP2/aug-cc-pvtz', properties = ['dipole'])
--------------------------------------------------------------------------

    Molecular point group: c1
  Charge       = 0
  Multiplicity = 1
  Basis Set: AUG-CC-PVTZ
    Blend: AUG-CC-PVTZ
  Basis Set: (AUG-CC-PVTZ AUX)
    Blend: AUG-CC-PVTZ-JKFIT

    Orbital Energies [Eh]
    ---------------------

    Doubly Occupied:

       1A    -20.585370     2A    -20.584154     3A    -20.558925
       4A    -20.555332     5A    -20.509389     6A    -15.647524
       7A    -15.598554     8A    -15.558733     9A    -11.383665
      10A    -11.353511    11A    -11.347009    12A    -11.332208
      13A    -11.303254    14A    -11.299313    15A    -11.299044
      16A    -11.294764    17A    -11.258151    18A     -1.434966
      19A     -1.391575    20A     -1.381133    21A     -1.373342
      22A     -1.346089    23A     -1.293700    24A     -1.282052
      25A     -1.174275    26A     -1.088408    27A     -1.070329
      28A     -1.029218    29A     -0.939080    30A     -0.932540
      31A     -0.872917    32A     -0.832518    33A     -0.814244
      34A     -0.769541    35A     -0.759431    36A     -0.739016
      37A     -0.719283    38A     -0.705194    39A     -0.700188
      40A     -0.684979    41A     -0.675686    42A     -0.658780
      43A     -0.647752    44A     -0.643628    45A     -0.623248
      46A     -0.615552    47A     -0.608455    48A     -0.580671
      49A     -0.575700    50A     -0.571423    51A     -0.555640
      52A     -0.546759    53A     -0.537343    54A     -0.532148
      55A     -0.486356    56A     -0.478878    57A     -0.474705
      58A     -0.464268    59A     -0.453546    60A     -0.450213
      61A     -0.444634    62A     -0.433122    63A     -0.393422
      64A     -0.354990

  @DF-RHF Final Energy:  -886.35726526560552

   => Energetics <=

    Nuclear Repulsion Energy =           1325.0292025207802453
    One-Electron Energy =               -3847.5532643227752487
    Two-Electron Energy =                1636.1667965363897110
    Total Energy =                       -886.3572652656055197
  Basis Set: (AUG-CC-PVTZ AUX)
    Blend: AUG-CC-PVTZ-RI
    Molecular point group: c1

    Geometry (in Angstrom), charge = 0, multiplicity = 1:

       Center              X                  Y                   Z               Mass
    ------------   -----------------  -----------------  -----------------  -----------------
         O           -1.244897978492    -0.649078606182     1.031407703354    15.994914619570
         O           -1.241771978492     2.486440393818    -0.687270296646    15.994914619570
         O           -3.213326978492     1.524688393818     0.743779703354    15.994914619570
         O           -2.353825978492    -3.063247606182     0.093832703354    15.994914619570
         O            1.363733021508     2.250623393818    -0.077649296646    15.994914619570
         N            0.846607021508     0.048812393818     0.254835703354    14.003074004430
         N            3.060429021508     0.724092393818    -0.294834296646    14.003074004430
         N            4.719666021508    -0.833065606182    -0.573405296646    14.003074004430
         C           -1.286280978492     1.082019393818    -0.593184296646    12.000000000000
         C           -2.711967978492     0.658796393818    -0.258500296646    12.000000000000
         C           -0.522204978492     0.485109393818     0.598986703354    12.000000000000
         C           -2.526052978492    -0.713296606182     0.359948703354    12.000000000000
         C           -2.525140978492    -1.846803606182    -0.640397296646    12.000000000000
         C            1.222978021508    -1.257818606182     0.310166703354    12.000000000000
         C            1.693912321508     0.998313793818    -0.038079496646    12.000000000000
         C            2.514304021508    -1.605550606182     0.045887703354    12.000000000000
         C            3.415186021508    -0.547063606182    -0.260032296646    12.000000000000
         H           -0.934402978492     0.594993393818    -1.515998296646     1.007825032230
         H           -3.359378978492     0.646254393818    -1.147572296646     1.007825032230
         H           -0.437086978492     1.225469393818     1.402890703354     1.007825032230
         H           -3.278753978492    -0.905144606182     1.129675703354     1.007825032230
         H           -1.710104978492    -1.696715606182    -1.370571296646     1.007825032230
         H           -3.482357978492    -1.830414606182    -1.185242296646     1.007825032230
         H           -0.294321978492     2.716768393818    -0.526107296646     1.007825032230
         H           -2.844352978492     2.403332393818     0.507555703354     1.007825032230
         H            0.437514021508    -1.959847606182     0.567960703354     1.007825032230
         H           -2.430670978492    -3.794842606182    -0.544340296646     1.007825032230
         H            2.832315021508    -2.641808606182     0.072814703354     1.007825032230
         H            5.128383021508    -1.667271606182    -0.163521296646     1.007825032230
         H            5.323017021508    -0.016464606182    -0.569401296646     1.007825032230

  Basis Set: AUG-CC-PVTZ
    Blend: AUG-CC-PVTZ
  Basis Set: (AUG-CC-PVTZ AUX)
    Blend: AUG-CC-PVTZ-JKFIT
	 Reference Energy          =    -886.3572652656055197 [Eh]
	 Singles Energy            =      -0.0000000000000000 [Eh]
	 Same-Spin Energy          =      -0.9022746536301640 [Eh]
	 Opposite-Spin Energy      =      -2.7177065142590990 [Eh]
	 Correlation Energy        =      -3.6199811678892631 [Eh]
	 Total Energy              =    -889.9772464334947699 [Eh]

	 ================> DF-SCS-MP2 Energies <==================
	-----------------------------------------------------------
	 SCS Same-Spin Scale       =       0.3333333333333333 [-]
	 SCS Opposite-Spin Scale   =       1.2000000000000000 [-]
	 SCS Same-Spin Energy      =      -0.3007582178767213 [Eh]
	 SCS Opposite-Spin Energy  =      -3.2612478171109189 [Eh]
	 SCS Correlation Energy    =      -3.5620060349876401 [Eh]
	 SCS Total Energy          =    -889.9192713005932092 [Eh]
	-----------------------------------------------------------

  Dipole Moment: [D]
     X:     1.5269      Y:    -6.4936      Z:    -1.7324     Total:     6.8920

*** Psi4 exiting successfully. Buy a developer a beer!
