                               Psi4 1.3.2 release

  ==> Input File <==

--------------------------------------------------------------------------
#psi4
#
memory 32 gb

molecule  {
0 1
  O       -1.2481010    -0.6526680     1.0325150
  O       -1.2449750     2.4828510    -0.6861630
  O       -3.2165300     1.5210990     0.7448870
  O       -2.3570290    -3.0668370     0.0949400
  O        1.3605300     2.2470340    -0.0765420
  N        0.8304612     0.0686987     0.1833944
  N        3.0572260     0.7205030    -0.2937270
  N        4.7164630    -0.8366550    -0.5722980
  C       -1.2245132     1.0651813    -0.6376365
  C       -2.7151710     0.6552070    -0.2573930
  C       -0.5254080     0.4815200     0.6000940
  C       -2.5292560    -0.7168860     0.3610560
  C       -2.5283440    -1.8503930    -0.6392900
  C        1.2197750    -1.2614080     0.3112740
  C        1.7555940     1.0674350    -0.0594030
  C        2.5111010    -1.6091400     0.0469950
  C        3.4119830    -0.5506530    -0.2589250
  H       -0.9376060     0.5914040    -1.5148910
  H       -3.3625820     0.6426650    -1.1464650
  H       -0.4402900     1.2218800     1.4039980
  H       -3.2819570    -0.9087340     1.1307830
  H       -1.7133080    -1.7003050    -1.3694640
  H       -3.4855610    -1.8340040    -1.1841350
  H       -0.2975250     2.7131790    -0.5250000
  H       -2.8475560     2.3997430     0.5086630
  H        0.4343110    -1.9634370     0.5690680
  H       -2.4338740    -3.7984320    -0.5432330
  H        2.8291120    -2.6453980     0.0739220
  H        5.1251800    -1.6708610    -0.1624140
  H        5.3198140    -0.0200540    -0.5682940
units angstrom
no_reorient  #important for SAPT in psi4, default
symmetry c1  #important for SAPT in psi4, default
}

set PROPERTIES_ORIGIN ["COM"]
properties('MP2/aug-cc-pvtz', properties = ['dipole'])
--------------------------------------------------------------------------

    Molecular point group: c1
  Charge       = 0
  Multiplicity = 1
  Basis Set: AUG-CC-PVTZ
    Blend: AUG-CC-PVTZ
  Basis Set: (AUG-CC-PVTZ AUX)
    Blend: AUG-CC-PVTZ-JKFIT

    Orbital Energies [Eh]
    ---------------------

    Doubly Occupied:

       1A    -20.582234     2A    -20.581971     3A    -20.557023
       4A    -20.556215     5A    -20.518075     6A    -15.634398
       7A    -15.601258     8A    -15.553648     9A    -11.384529
      10A    -11.359236    11A    -11.341376    12A    -11.330825
      13A    -11.300709    14A    -11.295238    15A    -11.292901
      16A    -11.292209    17A    -11.252429    18A     -1.427722
      19A     -1.396301    20A     -1.376776    21A     -1.371000
      22A     -1.343715    23A     -1.304196    24A     -1.271022
      25A     -1.182495    26A     -1.083352    27A     -1.062301
      28A     -1.019038    29A     -0.931391    30A     -0.910372
      31A     -0.876248    32A     -0.834356    33A     -0.810485
      34A     -0.768304    35A     -0.747697    36A     -0.734564
      37A     -0.720542    38A     -0.701134    39A     -0.699509
      40A     -0.686561    41A     -0.672352    42A     -0.654622
      43A     -0.650795    44A     -0.639133    45A     -0.620741
      46A     -0.615698    47A     -0.606862    48A     -0.589389
      49A     -0.572267    50A     -0.568877    51A     -0.554099
      52A     -0.546990    53A     -0.537171    54A     -0.531703
      55A     -0.492825    56A     -0.476553    57A     -0.468202
      58A     -0.459971    59A     -0.458881    60A     -0.454364
      61A     -0.435902    62A     -0.434179    63A     -0.394819
      64A     -0.352857

  @DF-RHF Final Energy:  -886.36248643887302

   => Energetics <=

    Nuclear Repulsion Energy =           1323.5066834049187037
    One-Electron Energy =               -3844.7731261101253040
    Two-Electron Energy =                1634.9039562663338074
    Total Energy =                       -886.3624864388730202
  Basis Set: (AUG-CC-PVTZ AUX)
    Blend: AUG-CC-PVTZ-RI
    Molecular point group: c1

    Geometry (in Angstrom), charge = 0, multiplicity = 1:

       Center              X                  Y                   Z               Mass
    ------------   -----------------  -----------------  -----------------  -----------------
         O           -1.250562762683    -0.653366293750     1.038943269482    15.994914619570
         O           -1.247436762683     2.482152706250    -0.679734730518    15.994914619570
         O           -3.218991762683     1.520400706250     0.751315269482    15.994914619570
         O           -2.359490762683    -3.067535293750     0.101368269482    15.994914619570
         O            1.358068237317     2.246335706250    -0.070113730518    15.994914619570
         N            0.827999437317     0.068000406250     0.189822669482    14.003074004430
         N            3.054764237317     0.719804706250    -0.287298730518    14.003074004430
         N            4.714001237317    -0.837353293750    -0.565869730518    14.003074004430
         C           -1.226974962683     1.064483006250    -0.631208230518    12.000000000000
         C           -2.717632762683     0.654508706250    -0.250964730518    12.000000000000
         C           -0.527869762683     0.480821706250     0.606522269482    12.000000000000
         C           -2.531717762683    -0.717584293750     0.367484269482    12.000000000000
         C           -2.530805762683    -1.851091293750    -0.632861730518    12.000000000000
         C            1.217313237317    -1.262106293750     0.317702269482    12.000000000000
         C            1.753132237317     1.066736706250    -0.052974730518    12.000000000000
         C            2.508639237317    -1.609838293750     0.053423269482    12.000000000000
         C            3.409521237317    -0.551351293750    -0.252496730518    12.000000000000
         H           -0.940067762683     0.590705706250    -1.508462730518     1.007825032230
         H           -3.365043762683     0.641966706250    -1.140036730518     1.007825032230
         H           -0.442751762683     1.221181706250     1.410426269482     1.007825032230
         H           -3.284418762683    -0.909432293750     1.137211269482     1.007825032230
         H           -1.715769762683    -1.701003293750    -1.363035730518     1.007825032230
         H           -3.488022762683    -1.834702293750    -1.177706730518     1.007825032230
         H           -0.299986762683     2.712480706250    -0.518571730518     1.007825032230
         H           -2.850017762683     2.399044706250     0.515091269482     1.007825032230
         H            0.431849237317    -1.964135293750     0.575496269482     1.007825032230
         H           -2.436335762683    -3.799130293750    -0.536804730518     1.007825032230
         H            2.826650237317    -2.646096293750     0.080350269482     1.007825032230
         H            5.122718237317    -1.671559293750    -0.155985730518     1.007825032230
         H            5.317352237317    -0.020752293750    -0.561865730518     1.007825032230

  Basis Set: AUG-CC-PVTZ
    Blend: AUG-CC-PVTZ
  Basis Set: (AUG-CC-PVTZ AUX)
    Blend: AUG-CC-PVTZ-JKFIT
	 Reference Energy          =    -886.3624864388730202 [Eh]
	 Singles Energy            =      -0.0000000000000000 [Eh]
	 Same-Spin Energy          =      -0.9014261254753357 [Eh]
	 Opposite-Spin Energy      =      -2.7163312804740567 [Eh]
	 Correlation Energy        =      -3.6177574059493924 [Eh]
	 Total Energy              =    -889.9802438448224393 [Eh]

	 ================> DF-SCS-MP2 Energies <==================
	-----------------------------------------------------------
	 SCS Same-Spin Scale       =       0.3333333333333333 [-]
	 SCS Opposite-Spin Scale   =       1.2000000000000000 [-]
	 SCS Same-Spin Energy      =      -0.3004753751584452 [Eh]
	 SCS Opposite-Spin Energy  =      -3.2595975365688679 [Eh]
	 SCS Correlation Energy    =      -3.5600729117273131 [Eh]
	 SCS Total Energy          =    -889.9225593506002951 [Eh]
	-----------------------------------------------------------

  Dipole Moment: [D]
     X:     1.8516      Y:    -6.0834      Z:    -1.8332     Total:     6.6179

*** Psi4 exiting successfully. Buy a developer a beer!
