                               Psi4 1.4a3.dev225

  ==> Input File <==

--------------------------------------------------------------------------
#psi4
#
memory 32 gb

molecule  {
0 1
  O       -1.3191770     0.6538360    -1.0992360
  O       -1.5735610    -2.4640850     0.5135810
  O       -3.5606630    -1.0699430    -0.4600060
  O       -1.4399290     3.1254620     0.1265180
  O        1.1065530    -2.3833650     0.0076020
  N        0.7686360    -0.1579440    -0.3706350
  N        2.9363770    -0.9938720     0.1460080
  N        4.7058880     0.4431110     0.3611260
  C       -1.3768610    -1.0680440     0.5552780
  C       -2.7379840    -0.3746360     0.4578480
  C       -0.6377490    -0.5042940    -0.6790150
  C       -2.3707440     0.9655450    -0.1585060
  C       -1.8992030     1.9895750     0.8571380
  C        1.2309690     1.1190800    -0.4442230
  C        1.6104480    -1.2470590    -0.0585760
  C        2.5474650     1.3753690    -0.1998620
  C        3.3802090     0.2523040     0.0808410
  H       -0.8441360    -0.7686950     1.4698480
  H       -3.2257400    -0.2778790     1.4400230
  H       -0.6227070    -1.2428120    -1.4883720
  H       -3.1941750     1.3785730    -0.7472070
  H       -1.0805969     1.5627786     1.4915269
  H       -2.7410530     2.2466610     1.5166010
  H       -0.6710550    -2.8260740     0.3542250
  H       -3.3063470    -2.0105220    -0.3629290
  H        0.4929290     1.8778260    -0.6840360
  H       -1.2098800     3.8154810     0.7720340
  H        2.9334840     2.3875570    -0.2389120
  H        5.1589650     1.2712730    -0.0008400
  H        5.2635310    -0.4031270     0.3606700
units angstrom
no_reorient  #important for SAPT in psi4, default
symmetry c1  #important for SAPT in psi4, default
}

set PROPERTIES_ORIGIN ["COM"]
properties('MP2/aug-cc-pvtz', properties = ['dipole'])
--------------------------------------------------------------------------

    Molecular point group: c1
  Charge       = 0
  Multiplicity = 1
  Basis Set: AUG-CC-PVTZ
    Blend: AUG-CC-PVTZ
  Basis Set: (AUG-CC-PVTZ AUX)
    Blend: AUG-CC-PVTZ-JKFIT

    Orbital Energies [Eh]
    ---------------------

    Doubly Occupied:

       1A    -20.587176     2A    -20.581429     3A    -20.559269
       4A    -20.556437     5A    -20.519648     6A    -15.632888
       7A    -15.599612     8A    -15.551687     9A    -11.385891
      10A    -11.357998    11A    -11.339541    12A    -11.325051
      13A    -11.306020    14A    -11.298184    15A    -11.296873
      16A    -11.293512    17A    -11.246480    18A     -1.429223
      19A     -1.394071    20A     -1.383177    21A     -1.375560
      22A     -1.346510    23A     -1.303588    24A     -1.271262
      25A     -1.181129    26A     -1.079267    27A     -1.067790
      28A     -1.017097    29A     -0.935709    30A     -0.906402
      31A     -0.876500    32A     -0.829937    33A     -0.811887
      34A     -0.766333    35A     -0.750243    36A     -0.734792
      37A     -0.721785    38A     -0.708151    39A     -0.703345
      40A     -0.684726    41A     -0.674741    42A     -0.652426
      43A     -0.649006    44A     -0.633364    45A     -0.620160
      46A     -0.614974    47A     -0.607766    48A     -0.593087
      49A     -0.577058    50A     -0.564950    51A     -0.555723
      52A     -0.548241    53A     -0.536606    54A     -0.530913
      55A     -0.495612    56A     -0.480215    57A     -0.473419
      58A     -0.463424    59A     -0.457896    60A     -0.452798
      61A     -0.442014    62A     -0.430201    63A     -0.392192
      64A     -0.348161

  @DF-RHF Final Energy:  -886.37358858434084

   => Energetics <=

    Nuclear Repulsion Energy =           1334.4994705115643683
    One-Electron Energy =               -3866.7238594056348120
    Two-Electron Energy =                1645.8508003097294932
    Total Energy =                       -886.3735885843407232
  Basis Set: (AUG-CC-PVTZ AUX)
    Blend: AUG-CC-PVTZ-RI
    Molecular point group: c1

    Geometry (in Angstrom), charge = 0, multiplicity = 1:

       Center              X                  Y                   Z               Mass
    ------------   -----------------  -----------------  -----------------  -----------------
         O           -1.331981252694     0.682479060689    -1.083502750070    15.994914619570
         O           -1.586365252694    -2.435441939311     0.529314249930    15.994914619570
         O           -3.573467252694    -1.041299939311    -0.444272750070    15.994914619570
         O           -1.452733252694     3.154105060689     0.142251249930    15.994914619570
         O            1.093748747306    -2.354721939311     0.023335249930    15.994914619570
         N            0.755831747306    -0.129300939311    -0.354901750070    14.003074004430
         N            2.923572747306    -0.965228939311     0.161741249930    14.003074004430
         N            4.693083747306     0.471754060689     0.376859249930    14.003074004430
         C           -1.389665252694    -1.039400939311     0.571011249930    12.000000000000
         C           -2.750788252694    -0.345992939311     0.473581249930    12.000000000000
         C           -0.650553252694    -0.475650939311    -0.663281750070    12.000000000000
         C           -2.383548252694     0.994188060689    -0.142772750070    12.000000000000
         C           -1.912007252694     2.018218060689     0.872871249930    12.000000000000
         C            1.218164747306     1.147723060689    -0.428489750070    12.000000000000
         C            1.597643747306    -1.218415939311    -0.042842750070    12.000000000000
         C            2.534660747306     1.404012060689    -0.184128750070    12.000000000000
         C            3.367404747306     0.280947060689     0.096574249930    12.000000000000
         H           -0.856940252694    -0.740051939311     1.485581249930     1.007825032230
         H           -3.238544252694    -0.249235939311     1.455756249930     1.007825032230
         H           -0.635511252694    -1.214168939311    -1.472638750070     1.007825032230
         H           -3.206979252694     1.407216060689    -0.731473750070     1.007825032230
         H           -1.093401152694     1.591421660689     1.507260149930     1.007825032230
         H           -2.753857252694     2.275304060689     1.532334249930     1.007825032230
         H           -0.683859252694    -2.797430939311     0.369958249930     1.007825032230
         H           -3.319151252694    -1.981878939311    -0.347195750070     1.007825032230
         H            0.480124747306     1.906469060689    -0.668302750070     1.007825032230
         H           -1.222684252694     3.844124060689     0.787767249930     1.007825032230
         H            2.920679747306     2.416200060689    -0.223178750070     1.007825032230
         H            5.146160747306     1.299916060689     0.014893249930     1.007825032230
         H            5.250726747306    -0.374483939311     0.376403249930     1.007825032230

  Basis Set: AUG-CC-PVTZ
    Blend: AUG-CC-PVTZ
  Basis Set: (AUG-CC-PVTZ AUX)
    Blend: AUG-CC-PVTZ-JKFIT
	 Reference Energy          =    -886.3735885843408369 [Eh]
	 Singles Energy            =      -0.0000000000000000 [Eh]
	 Same-Spin Energy          =      -0.9018605147980499 [Eh]
	 Opposite-Spin Energy      =      -2.7160891113852532 [Eh]
	 Correlation Energy        =      -3.6179496261833028 [Eh]
	 Total Energy              =    -889.9915382105241406 [Eh]

	 ================> DF-SCS-MP2 Energies <==================
	-----------------------------------------------------------
	 SCS Same-Spin Scale       =       0.3333333333333333 [-]
	 SCS Opposite-Spin Scale   =       1.2000000000000000 [-]
	 SCS Same-Spin Energy      =      -0.3006201715993500 [Eh]
	 SCS Opposite-Spin Energy  =      -3.2593069336623040 [Eh]
	 SCS Correlation Energy    =      -3.5599271052616537 [Eh]
	 SCS Total Energy          =    -889.9335156896024728 [Eh]
	-----------------------------------------------------------

  Dipole Moment: [D]
     X:     2.7271      Y:     5.8100      Z:     1.9383     Total:     6.7045

*** Psi4 exiting successfully. Buy a developer a beer!
