                               Psi4 1.3.2 release

  ==> Input File <==

--------------------------------------------------------------------------
#psi4
#
memory 32 gb

molecule  {
0 1
  O       -1.2481010    -0.6526680     1.0325150
  O       -1.2449750     2.4828510    -0.6861630
  O       -3.2165300     1.5210990     0.7448870
  O       -2.3570290    -3.0668370     0.0949400
  O        1.3605300     2.2470340    -0.0765420
  N        0.8434040     0.0452230     0.2559430
  N        3.0572260     0.7205030    -0.2937270
  N        4.7164630    -0.8366550    -0.5722980
  C       -1.3187961     1.1468119    -0.6209536
  C       -2.7151710     0.6552070    -0.2573930
  C       -0.5254080     0.4815200     0.6000940
  C       -2.6079699    -0.7209597     0.3705846
  C       -2.5283440    -1.8503930    -0.6392900
  C        1.2197750    -1.2614080     0.3112740
  C        1.7555940     1.0674350    -0.0594030
  C        2.5111010    -1.6091400     0.0469950
  C        3.4119830    -0.5506530    -0.2589250
  H       -0.9376060     0.5914040    -1.5148910
  H       -3.3625820     0.6426650    -1.1464650
  H       -0.4402900     1.2218800     1.4039980
  H       -3.2819570    -0.9087340     1.1307830
  H       -1.7133080    -1.7003050    -1.3694640
  H       -3.4855610    -1.8340040    -1.1841350
  H       -0.2975250     2.7131790    -0.5250000
  H       -2.8475560     2.3997430     0.5086630
  H        0.4343110    -1.9634370     0.5690680
  H       -2.4338740    -3.7984320    -0.5432330
  H        2.8291120    -2.6453980     0.0739220
  H        5.1251800    -1.6708610    -0.1624140
  H        5.3198140    -0.0200540    -0.5682940
units angstrom
no_reorient  #important for SAPT in psi4, default
symmetry c1  #important for SAPT in psi4, default
}

set PROPERTIES_ORIGIN ["COM"]
properties('MP2/aug-cc-pvtz', properties = ['dipole'])
--------------------------------------------------------------------------

    Molecular point group: c1
  Charge       = 0
  Multiplicity = 1
  Basis Set: AUG-CC-PVTZ
    Blend: AUG-CC-PVTZ
  Basis Set: (AUG-CC-PVTZ AUX)
    Blend: AUG-CC-PVTZ-JKFIT

    Orbital Energies [Eh]
    ---------------------

    Doubly Occupied:

       1A    -20.583072     2A    -20.572315     3A    -20.563107
       4A    -20.557894     5A    -20.520999     6A    -15.634295
       7A    -15.598267     8A    -15.551625     9A    -11.386522
      10A    -11.355934    11A    -11.335670    12A    -11.325767
      13A    -11.303664    14A    -11.299978    15A    -11.299312
      16A    -11.293831    17A    -11.246183    18A     -1.421996
      19A     -1.395575    20A     -1.388356    21A     -1.372177
      22A     -1.353948    23A     -1.303654    24A     -1.269735
      25A     -1.180012    26A     -1.077810    27A     -1.066568
      28A     -1.010638    29A     -0.932537    30A     -0.906060
      31A     -0.877883    32A     -0.834761    33A     -0.809622
      34A     -0.765884    35A     -0.750968    36A     -0.738753
      37A     -0.717238    38A     -0.706950    39A     -0.700172
      40A     -0.683062    41A     -0.675194    42A     -0.652295
      43A     -0.649918    44A     -0.634413    45A     -0.621506
      46A     -0.617640    47A     -0.604874    48A     -0.594541
      49A     -0.578323    50A     -0.571543    51A     -0.554188
      52A     -0.545236    53A     -0.539388    54A     -0.528969
      55A     -0.499107    56A     -0.479247    57A     -0.476075
      58A     -0.462696    59A     -0.458898    60A     -0.445034
      61A     -0.432911    62A     -0.427050    63A     -0.391372
      64A     -0.346546

  @DF-RHF Final Energy:  -886.36059639949030

   => Energetics <=

    Nuclear Repulsion Energy =           1321.2753981640241818
    One-Electron Energy =               -3840.3124789295766277
    Two-Electron Energy =                1632.6764843660623683
    Total Energy =                       -886.3605963994903050
  Basis Set: (AUG-CC-PVTZ AUX)
    Blend: AUG-CC-PVTZ-RI
    Molecular point group: c1

    Geometry (in Angstrom), charge = 0, multiplicity = 1:

       Center              X                  Y                   Z               Mass
    ------------   -----------------  -----------------  -----------------  -----------------
         O           -1.242768293438    -0.655842586186     1.033470128129    15.994914619570
         O           -1.239642293438     2.479676413814    -0.685207871871    15.994914619570
         O           -3.211197293438     1.517924413814     0.745842128129    15.994914619570
         O           -2.351696293438    -3.070011586186     0.095895128129    15.994914619570
         O            1.365862706562     2.243859413814    -0.075586871871    15.994914619570
         N            0.848736706562     0.042048413814     0.256898128129    14.003074004430
         N            3.062558706562     0.717328413814    -0.292771871871    14.003074004430
         N            4.721795706562    -0.839829586186    -0.571342871871    14.003074004430
         C           -1.313463393438     1.143637313814    -0.619998471871    12.000000000000
         C           -2.709838293438     0.652032413814    -0.256437871871    12.000000000000
         C           -0.520075293438     0.478345413814     0.601049128129    12.000000000000
         C           -2.602637193438    -0.724134286186     0.371539728129    12.000000000000
         C           -2.523011293438    -1.853567586186    -0.638334871871    12.000000000000
         C            1.225107706562    -1.264582586186     0.312229128129    12.000000000000
         C            1.760926706562     1.064260413814    -0.058447871871    12.000000000000
         C            2.516433706562    -1.612314586186     0.047950128129    12.000000000000
         C            3.417315706562    -0.553827586186    -0.257969871871    12.000000000000
         H           -0.932273293438     0.588229413814    -1.513935871871     1.007825032230
         H           -3.357249293438     0.639490413814    -1.145509871871     1.007825032230
         H           -0.434957293438     1.218705413814     1.404953128129     1.007825032230
         H           -3.276624293438    -0.911908586186     1.131738128129     1.007825032230
         H           -1.707975293438    -1.703479586186    -1.368508871871     1.007825032230
         H           -3.480228293438    -1.837178586186    -1.183179871871     1.007825032230
         H           -0.292192293438     2.710004413814    -0.524044871871     1.007825032230
         H           -2.842223293438     2.396568413814     0.509618128129     1.007825032230
         H            0.439643706562    -1.966611586186     0.570023128129     1.007825032230
         H           -2.428541293438    -3.801606586186    -0.542277871871     1.007825032230
         H            2.834444706562    -2.648572586186     0.074877128129     1.007825032230
         H            5.130512706562    -1.674035586186    -0.161458871871     1.007825032230
         H            5.325146706562    -0.023228586186    -0.567338871871     1.007825032230

  Basis Set: AUG-CC-PVTZ
    Blend: AUG-CC-PVTZ
  Basis Set: (AUG-CC-PVTZ AUX)
    Blend: AUG-CC-PVTZ-JKFIT
	 Reference Energy          =    -886.3605963994903050 [Eh]
	 Singles Energy            =      -0.0000000000000000 [Eh]
	 Same-Spin Energy          =      -0.9012359640163525 [Eh]
	 Opposite-Spin Energy      =      -2.7148772739191616 [Eh]
	 Correlation Energy        =      -3.6161132379355143 [Eh]
	 Total Energy              =    -889.9767096374258699 [Eh]

	 ================> DF-SCS-MP2 Energies <==================
	-----------------------------------------------------------
	 SCS Same-Spin Scale       =       0.3333333333333333 [-]
	 SCS Opposite-Spin Scale   =       1.2000000000000000 [-]
	 SCS Same-Spin Energy      =      -0.3004119880054508 [Eh]
	 SCS Opposite-Spin Energy  =      -3.2578527287029937 [Eh]
	 SCS Correlation Energy    =      -3.5582647167084445 [Eh]
	 SCS Total Energy          =    -889.9188611161987410 [Eh]
	-----------------------------------------------------------

  Dipole Moment: [D]
     X:     1.4245      Y:    -5.8090      Z:    -1.8909     Total:     6.2729

*** Psi4 exiting successfully. Buy a developer a beer!
