                               Psi4 1.3.2 release

  ==> Input File <==

--------------------------------------------------------------------------
#psi4
#
memory 32 gb

molecule  {
0 1
  O       -1.2481010    -0.6526680     1.0325150
  O       -1.2449750     2.4828510    -0.6861630
  O       -3.2165300     1.5210990     0.7448870
  O       -2.3570290    -3.0668370     0.0949400
  O        1.3605300     2.2470340    -0.0765420
  N        0.8434040     0.0452230     0.2559430
  N        3.0572260     0.7205030    -0.2937270
  N        4.7164630    -0.8366550    -0.5722980
  C       -1.2894840     1.0784300    -0.5920770
  C       -2.7151710     0.6552070    -0.2573930
  C       -0.5254080     0.4815200     0.6000940
  C       -2.5292560    -0.7168860     0.3610560
  C       -2.5283440    -1.8503930    -0.6392900
  C        1.2197750    -1.2614080     0.3112740
  C        1.7555940     1.0674350    -0.0594030
  C        2.5111010    -1.6091400     0.0469950
  C        3.3934134    -0.5343710    -0.2562651
  H       -0.9376060     0.5914040    -1.5148910
  H       -3.3625820     0.6426650    -1.1464650
  H       -0.4402900     1.2218800     1.4039980
  H       -3.2819570    -0.9087340     1.1307830
  H       -1.7133080    -1.7003050    -1.3694640
  H       -3.4855610    -1.8340040    -1.1841350
  H       -0.2975250     2.7131790    -0.5250000
  H       -2.8475560     2.3997430     0.5086630
  H        0.4343110    -1.9634370     0.5690680
  H       -2.4338740    -3.7984320    -0.5432330
  H        2.8114602    -2.6505253     0.0784222
  H        5.1251800    -1.6708610    -0.1624140
  H        5.3198140    -0.0200540    -0.5682940
units angstrom
no_reorient  #important for SAPT in psi4, default
symmetry c1  #important for SAPT in psi4, default
}

set PROPERTIES_ORIGIN ["COM"]
properties('MP2/aug-cc-pvtz', properties = ['dipole'])
--------------------------------------------------------------------------

    Molecular point group: c1
  Charge       = 0
  Multiplicity = 1
  Basis Set: AUG-CC-PVTZ
    Blend: AUG-CC-PVTZ
  Basis Set: (AUG-CC-PVTZ AUX)
    Blend: AUG-CC-PVTZ-JKFIT

    Orbital Energies [Eh]
    ---------------------

    Doubly Occupied:

       1A    -20.582541     2A    -20.582193     3A    -20.558311
       4A    -20.558094     5A    -20.524517     6A    -15.637931
       7A    -15.595413     8A    -15.555516     9A    -11.390736
      10A    -11.356879    11A    -11.342385    12A    -11.327904
      13A    -11.301552    14A    -11.297412    15A    -11.297354
      16A    -11.293512    17A    -11.248726    18A     -1.430297
      19A     -1.398712    20A     -1.380750    21A     -1.373257
      22A     -1.347049    23A     -1.307506    24A     -1.271753
      25A     -1.182904    26A     -1.082973    27A     -1.068270
      28A     -1.021870    29A     -0.935658    30A     -0.910191
      31A     -0.878850    32A     -0.832802    33A     -0.812251
      34A     -0.765798    35A     -0.753505    36A     -0.736909
      37A     -0.716961    38A     -0.702404    39A     -0.698783
      40A     -0.684589    41A     -0.672015    42A     -0.655527
      43A     -0.652797    44A     -0.640249    45A     -0.621171
      46A     -0.615280    47A     -0.605839    48A     -0.594384
      49A     -0.576247    50A     -0.569894    51A     -0.554353
      52A     -0.545616    53A     -0.537779    54A     -0.530558
      55A     -0.499192    56A     -0.477989    57A     -0.475134
      58A     -0.463871    59A     -0.462176    60A     -0.453519
      61A     -0.441345    62A     -0.435589    63A     -0.398104
      64A     -0.350672

  @DF-RHF Final Energy:  -886.37294061634032

   => Energetics <=

    Nuclear Repulsion Energy =           1324.0930196639149017
    One-Electron Energy =               -3845.7832842163006717
    Two-Electron Energy =                1635.3173239360457956
    Total Energy =                       -886.3729406163402018
  Basis Set: (AUG-CC-PVTZ AUX)
    Blend: AUG-CC-PVTZ-RI
    Molecular point group: c1

    Geometry (in Angstrom), charge = 0, multiplicity = 1:

       Center              X                  Y                   Z               Mass
    ------------   -----------------  -----------------  -----------------  -----------------
         O           -1.247111155455    -0.653450498742     1.032365042916    15.994914619570
         O           -1.243985155455     2.482068501258    -0.686312957084    15.994914619570
         O           -3.215540155455     1.520316501258     0.744737042916    15.994914619570
         O           -2.356039155455    -3.067619498742     0.094790042916    15.994914619570
         O            1.361519844545     2.246251501258    -0.076691957084    15.994914619570
         N            0.844393844545     0.044440501258     0.255793042916    14.003074004430
         N            3.058215844545     0.719720501258    -0.293876957084    14.003074004430
         N            4.717452844545    -0.837437498742    -0.572447957084    14.003074004430
         C           -1.288494155455     1.077647501258    -0.592226957084    12.000000000000
         C           -2.714181155455     0.654424501258    -0.257542957084    12.000000000000
         C           -0.524418155455     0.480737501258     0.599944042916    12.000000000000
         C           -2.528266155455    -0.717668498742     0.360906042916    12.000000000000
         C           -2.527354155455    -1.851175498742    -0.639439957084    12.000000000000
         C            1.220764844545    -1.262190498742     0.311124042916    12.000000000000
         C            1.756583844545     1.066652501258    -0.059552957084    12.000000000000
         C            2.512090844545    -1.609922498742     0.046845042916    12.000000000000
         C            3.394403244545    -0.535153498742    -0.256415057084    12.000000000000
         H           -0.936616155455     0.590621501258    -1.515040957084     1.007825032230
         H           -3.361592155455     0.641882501258    -1.146614957084     1.007825032230
         H           -0.439300155455     1.221097501258     1.403848042916     1.007825032230
         H           -3.280967155455    -0.909516498742     1.130633042916     1.007825032230
         H           -1.712318155455    -1.701087498742    -1.369613957084     1.007825032230
         H           -3.484571155455    -1.834786498742    -1.184284957084     1.007825032230
         H           -0.296535155455     2.712396501258    -0.525149957084     1.007825032230
         H           -2.846566155455     2.398960501258     0.508513042916     1.007825032230
         H            0.435300844545    -1.964219498742     0.568918042916     1.007825032230
         H           -2.432884155455    -3.799214498742    -0.543382957084     1.007825032230
         H            2.812450044545    -2.651307798742     0.078272242916     1.007825032230
         H            5.126169844545    -1.671643498742    -0.162563957084     1.007825032230
         H            5.320803844545    -0.020836498742    -0.568443957084     1.007825032230

  Basis Set: AUG-CC-PVTZ
    Blend: AUG-CC-PVTZ
  Basis Set: (AUG-CC-PVTZ AUX)
    Blend: AUG-CC-PVTZ-JKFIT
	 Reference Energy          =    -886.3729406163403155 [Eh]
	 Singles Energy            =      -0.0000000000000000 [Eh]
	 Same-Spin Energy          =      -0.9010592456399860 [Eh]
	 Opposite-Spin Energy      =      -2.7148029111235679 [Eh]
	 Correlation Energy        =      -3.6158621567635540 [Eh]
	 Total Energy              =    -889.9888027731038846 [Eh]

	 ================> DF-SCS-MP2 Energies <==================
	-----------------------------------------------------------
	 SCS Same-Spin Scale       =       0.3333333333333333 [-]
	 SCS Opposite-Spin Scale   =       1.2000000000000000 [-]
	 SCS Same-Spin Energy      =      -0.3003530818799953 [Eh]
	 SCS Opposite-Spin Energy  =      -3.2577634933482815 [Eh]
	 SCS Correlation Energy    =      -3.5581165752282766 [Eh]
	 SCS Total Energy          =    -889.9310571915685841 [Eh]
	-----------------------------------------------------------

  Dipole Moment: [D]
     X:     1.5040      Y:    -5.8424      Z:    -1.7873     Total:     6.2921

*** Psi4 exiting successfully. Buy a developer a beer!
