                               Psi4 1.3.2 release

  ==> Input File <==

--------------------------------------------------------------------------
#psi4
#
memory 32 gb

molecule  {
0 1
  O       -1.2481010    -0.6526680     1.0325150
  O       -1.2449750     2.4828510    -0.6861630
  O       -3.2165300     1.5210990     0.7448870
  O       -2.3570290    -3.0668370     0.0949400
  O        1.3605300     2.2470340    -0.0765420
  N        0.8434040     0.0452230     0.2559430
  N        3.0572260     0.7205030    -0.2937270
  N        4.7164630    -0.8366550    -0.5722980
  C       -1.2894840     1.0784300    -0.5920770
  C       -2.7144463     0.6606654    -0.2453593
  C       -0.5254080     0.4815200     0.6000940
  C       -2.5292560    -0.7168860     0.3610560
  C       -2.5265755    -1.8589998    -0.6294489
  C        1.2197750    -1.2614080     0.3112740
  C        1.7555940     1.0674350    -0.0594030
  C        2.5111010    -1.6091400     0.0469950
  C        3.4119830    -0.5506530    -0.2589250
  H       -0.9376060     0.5914040    -1.5148910
  H       -3.3625820     0.6426650    -1.1464650
  H       -0.4402900     1.2218800     1.4039980
  H       -3.2819570    -0.9087340     1.1307830
  H       -1.7133080    -1.7003050    -1.3694640
  H       -3.4855610    -1.8340040    -1.1841350
  H       -0.2975250     2.7131790    -0.5250000
  H       -2.8475560     2.3997430     0.5086630
  H        0.4343110    -1.9634370     0.5690680
  H       -2.4338740    -3.7984320    -0.5432330
  H        2.8291120    -2.6453980     0.0739220
  H        5.1251800    -1.6708610    -0.1624140
  H        5.3198140    -0.0200540    -0.5682940
units angstrom
no_reorient  #important for SAPT in psi4, default
symmetry c1  #important for SAPT in psi4, default
}

set PROPERTIES_ORIGIN ["COM"]
properties('MP2/aug-cc-pvtz', properties = ['dipole'])
--------------------------------------------------------------------------

    Molecular point group: c1
  Charge       = 0
  Multiplicity = 1
  Basis Set: AUG-CC-PVTZ
    Blend: AUG-CC-PVTZ
  Basis Set: (AUG-CC-PVTZ AUX)
    Blend: AUG-CC-PVTZ-JKFIT

    Orbital Energies [Eh]
    ---------------------

    Doubly Occupied:

       1A    -20.583438     2A    -20.581036     3A    -20.558912
       4A    -20.557140     5A    -20.521880     6A    -15.636759
       7A    -15.599774     8A    -15.553248     9A    -11.388143
      10A    -11.357762    11A    -11.341211    12A    -11.328432
      13A    -11.301629    14A    -11.296285    15A    -11.296161
      16A    -11.293260    17A    -11.248456    18A     -1.429622
      19A     -1.396708    20A     -1.383265    21A     -1.376097
      22A     -1.348687    23A     -1.305955    24A     -1.273682
      25A     -1.182150    26A     -1.081852    27A     -1.066333
      28A     -1.021206    29A     -0.934842    30A     -0.909231
      31A     -0.877155    32A     -0.832379    33A     -0.810460
      34A     -0.766806    35A     -0.752147    36A     -0.736763
      37A     -0.720547    38A     -0.706113    39A     -0.699176
      40A     -0.685630    41A     -0.673224    42A     -0.654191
      43A     -0.651600    44A     -0.638467    45A     -0.620599
      46A     -0.614927    47A     -0.607486    48A     -0.593841
      49A     -0.576886    50A     -0.570104    51A     -0.555421
      52A     -0.546602    53A     -0.537828    54A     -0.531428
      55A     -0.497946    56A     -0.475929    57A     -0.473794
      58A     -0.461614    59A     -0.459274    60A     -0.452492
      61A     -0.439534    62A     -0.432943    63A     -0.395014
      64A     -0.349837

  @DF-RHF Final Energy:  -886.37344775277916

   => Energetics <=

    Nuclear Repulsion Energy =           1323.9398518572727426
    One-Electron Energy =               -3845.5239670065752762
    Two-Electron Energy =                1635.2106673965231494
    Total Energy =                       -886.3734477527791569
  Basis Set: (AUG-CC-PVTZ AUX)
    Blend: AUG-CC-PVTZ-RI
    Molecular point group: c1

    Geometry (in Angstrom), charge = 0, multiplicity = 1:

       Center              X                  Y                   Z               Mass
    ------------   -----------------  -----------------  -----------------  -----------------
         O           -1.248224111608    -0.652512568017     1.031435150485    15.994914619570
         O           -1.245098111608     2.483006431983    -0.687242849515    15.994914619570
         O           -3.216653111608     1.521254431983     0.743807150485    15.994914619570
         O           -2.357152111608    -3.066681568017     0.093860150485    15.994914619570
         O            1.360406888392     2.247189431983    -0.077621849515    15.994914619570
         N            0.843280888392     0.045378431983     0.254863150485    14.003074004430
         N            3.057102888392     0.720658431983    -0.294806849515    14.003074004430
         N            4.716339888392    -0.836499568017    -0.573377849515    14.003074004430
         C           -1.289607111608     1.078585431983    -0.593156849515    12.000000000000
         C           -2.714569411608     0.660820831983    -0.246439149515    12.000000000000
         C           -0.525531111608     0.481675431983     0.599014150485    12.000000000000
         C           -2.529379111608    -0.716730568017     0.359976150485    12.000000000000
         C           -2.526698611608    -1.858844368017    -0.630528749515    12.000000000000
         C            1.219651888392    -1.261252568017     0.310194150485    12.000000000000
         C            1.755470888392     1.067590431983    -0.060482849515    12.000000000000
         C            2.510977888392    -1.608984568017     0.045915150485    12.000000000000
         C            3.411859888392    -0.550497568017    -0.260004849515    12.000000000000
         H           -0.937729111608     0.591559431983    -1.515970849515     1.007825032230
         H           -3.362705111608     0.642820431983    -1.147544849515     1.007825032230
         H           -0.440413111608     1.222035431983     1.402918150485     1.007825032230
         H           -3.282080111608    -0.908578568017     1.129703150485     1.007825032230
         H           -1.713431111608    -1.700149568017    -1.370543849515     1.007825032230
         H           -3.485684111608    -1.833848568017    -1.185214849515     1.007825032230
         H           -0.297648111608     2.713334431983    -0.526079849515     1.007825032230
         H           -2.847679111608     2.399898431983     0.507583150485     1.007825032230
         H            0.434187888392    -1.963281568017     0.567988150485     1.007825032230
         H           -2.433997111608    -3.798276568017    -0.544312849515     1.007825032230
         H            2.828988888392    -2.645242568017     0.072842150485     1.007825032230
         H            5.125056888392    -1.670705568017    -0.163493849515     1.007825032230
         H            5.319690888392    -0.019898568017    -0.569373849515     1.007825032230

  Basis Set: AUG-CC-PVTZ
    Blend: AUG-CC-PVTZ
  Basis Set: (AUG-CC-PVTZ AUX)
    Blend: AUG-CC-PVTZ-JKFIT
	 Reference Energy          =    -886.3734477527791569 [Eh]
	 Singles Energy            =      -0.0000000000000000 [Eh]
	 Same-Spin Energy          =      -0.9012475621330350 [Eh]
	 Opposite-Spin Energy      =      -2.7145809529992615 [Eh]
	 Correlation Energy        =      -3.6158285151322964 [Eh]
	 Total Energy              =    -889.9892762679114639 [Eh]

	 ================> DF-SCS-MP2 Energies <==================
	-----------------------------------------------------------
	 SCS Same-Spin Scale       =       0.3333333333333333 [-]
	 SCS Opposite-Spin Scale   =       1.2000000000000000 [-]
	 SCS Same-Spin Energy      =      -0.3004158540443450 [Eh]
	 SCS Opposite-Spin Energy  =      -3.2574971435991138 [Eh]
	 SCS Correlation Energy    =      -3.5579129976434589 [Eh]
	 SCS Total Energy          =    -889.9313607504226411 [Eh]
	-----------------------------------------------------------

  Dipole Moment: [D]
     X:     1.7010      Y:    -5.9671      Z:    -1.7730     Total:     6.4532

*** Psi4 exiting successfully. Buy a developer a beer!
