                               Psi4 1.3.2 release

  ==> Input File <==

--------------------------------------------------------------------------
#psi4
#
memory 32 gb

molecule  {
0 1
  O       -1.2481010    -0.6526680     1.0325150
  O       -1.2449750     2.4828510    -0.6861630
  O       -3.2165300     1.5210990     0.7448870
  O       -2.3570290    -3.0668370     0.0949400
  O        1.3605300     2.2470340    -0.0765420
  N        0.8434040     0.0452230     0.2559430
  N        3.0572260     0.7205030    -0.2937270
  N        4.7164630    -0.8366550    -0.5722980
  C       -1.2894840     1.0784300    -0.5920770
  C       -2.7151710     0.6552070    -0.2573930
  C       -0.5254080     0.4815200     0.6000940
  C       -2.5292560    -0.7168860     0.3610560
  C       -2.5283440    -1.8503930    -0.6392900
  C        1.2197750    -1.2614080     0.3112740
  C        1.7555940     1.0674350    -0.0594030
  C        2.5111010    -1.6091400     0.0469950
  C        3.4119830    -0.5506530    -0.2589250
  H       -0.9376060     0.5914040    -1.5148910
  H       -3.3625820     0.6426650    -1.1464650
  H       -0.4402900     1.2218800     1.4039980
  H       -3.2819570    -0.9087340     1.1307830
  H       -1.7133080    -1.7003050    -1.3694640
  H       -3.4855610    -1.8340040    -1.1841350
  H       -0.2975250     2.7131790    -0.5250000
  H       -2.8475560     2.3997430     0.5086630
  H        0.4343110    -1.9634370     0.5690680
  H       -2.4338740    -3.7984320    -0.5432330
  H        2.7997831    -2.5498279     0.0714386
  H        5.1251800    -1.6708610    -0.1624140
  H        5.3198140    -0.0200540    -0.5682940
units angstrom
no_reorient  #important for SAPT in psi4, default
symmetry c1  #important for SAPT in psi4, default
}

set PROPERTIES_ORIGIN ["COM"]
properties('MP2/aug-cc-pvtz', properties = ['dipole'])
--------------------------------------------------------------------------

    Molecular point group: c1
  Charge       = 0
  Multiplicity = 1
  Basis Set: AUG-CC-PVTZ
    Blend: AUG-CC-PVTZ
  Basis Set: (AUG-CC-PVTZ AUX)
    Blend: AUG-CC-PVTZ-JKFIT

    Orbital Energies [Eh]
    ---------------------

    Doubly Occupied:

       1A    -20.582252     2A    -20.581514     3A    -20.557720
       4A    -20.557139     5A    -20.521814     6A    -15.636609
       7A    -15.599982     8A    -15.552743     9A    -11.387993
      10A    -11.357060    11A    -11.341371    12A    -11.328072
      13A    -11.301168    14A    -11.296872    15A    -11.296542
      16A    -11.292891    17A    -11.237031    18A     -1.429231
      19A     -1.396174    20A     -1.380048    21A     -1.372783
      22A     -1.346213    23A     -1.305908    24A     -1.273622
      25A     -1.182043    26A     -1.085356    27A     -1.067670
      28A     -1.022411    29A     -0.935840    30A     -0.910883
      31A     -0.878433    32A     -0.833523    33A     -0.811770
      34A     -0.767044    35A     -0.757354    36A     -0.736826
      37A     -0.720138    38A     -0.703138    39A     -0.698894
      40A     -0.686952    41A     -0.676385    42A     -0.660559
      43A     -0.654382    44A     -0.640271    45A     -0.620643
      46A     -0.614623    47A     -0.606582    48A     -0.597545
      49A     -0.575702    50A     -0.569644    51A     -0.554036
      52A     -0.545828    53A     -0.537628    54A     -0.531782
      55A     -0.497853    56A     -0.477503    57A     -0.474391
      58A     -0.462125    59A     -0.460050    60A     -0.452753
      61A     -0.440644    62A     -0.433052    63A     -0.394995
      64A     -0.349881

  @DF-RHF Final Energy:  -886.36757195381040

   => Energetics <=

    Nuclear Repulsion Energy =           1324.3324251496744637
    One-Electron Energy =               -3846.2802314767359348
    Two-Electron Energy =                1635.5802343732511872
    Total Energy =                       -886.3675719538105113
  Basis Set: (AUG-CC-PVTZ AUX)
    Blend: AUG-CC-PVTZ-RI
    Molecular point group: c1

    Geometry (in Angstrom), charge = 0, multiplicity = 1:

       Center              X                  Y                   Z               Mass
    ------------   -----------------  -----------------  -----------------  -----------------
         O           -1.247979437226    -0.653064220533     1.032525303580    15.994914619570
         O           -1.244853437226     2.482454779467    -0.686152696420    15.994914619570
         O           -3.216408437226     1.520702779467     0.744897303580    15.994914619570
         O           -2.356907437226    -3.067233220533     0.094950303580    15.994914619570
         O            1.360651562774     2.246637779467    -0.076531696420    15.994914619570
         N            0.843525562774     0.044826779467     0.255953303580    14.003074004430
         N            3.057347562774     0.720106779467    -0.293716696420    14.003074004430
         N            4.716584562774    -0.837051220533    -0.572287696420    14.003074004430
         C           -1.289362437226     1.078033779467    -0.592066696420    12.000000000000
         C           -2.715049437226     0.654810779467    -0.257382696420    12.000000000000
         C           -0.525286437226     0.481123779467     0.600104303580    12.000000000000
         C           -2.529134437226    -0.717282220533     0.361066303580    12.000000000000
         C           -2.528222437226    -1.850789220533    -0.639279696420    12.000000000000
         C            1.219896562774    -1.261804220533     0.311284303580    12.000000000000
         C            1.755715562774     1.067038779467    -0.059392696420    12.000000000000
         C            2.511222562774    -1.609536220533     0.047005303580    12.000000000000
         C            3.412104562774    -0.551049220533    -0.258914696420    12.000000000000
         H           -0.937484437226     0.591007779467    -1.514880696420     1.007825032230
         H           -3.362460437226     0.642268779467    -1.146454696420     1.007825032230
         H           -0.440168437226     1.221483779467     1.404008303580     1.007825032230
         H           -3.281835437226    -0.909130220533     1.130793303580     1.007825032230
         H           -1.713186437226    -1.700701220533    -1.369453696420     1.007825032230
         H           -3.485439437226    -1.834400220533    -1.184124696420     1.007825032230
         H           -0.297403437226     2.712782779467    -0.524989696420     1.007825032230
         H           -2.847434437226     2.399346779467     0.508673303580     1.007825032230
         H            0.434432562774    -1.963833220533     0.569078303580     1.007825032230
         H           -2.433752437226    -3.798828220533    -0.543222696420     1.007825032230
         H            2.799904662774    -2.550224120533     0.071448903580     1.007825032230
         H            5.125301562774    -1.671257220533    -0.162403696420     1.007825032230
         H            5.319935562774    -0.020450220533    -0.568283696420     1.007825032230

  Basis Set: AUG-CC-PVTZ
    Blend: AUG-CC-PVTZ
  Basis Set: (AUG-CC-PVTZ AUX)
    Blend: AUG-CC-PVTZ-JKFIT
	 Reference Energy          =    -886.3675719538103976 [Eh]
	 Singles Energy            =      -0.0000000000000000 [Eh]
	 Same-Spin Energy          =      -0.9010749268243925 [Eh]
	 Opposite-Spin Energy      =      -2.7144292887528945 [Eh]
	 Correlation Energy        =      -3.6155042155772872 [Eh]
	 Total Energy              =    -889.9830761693876866 [Eh]

	 ================> DF-SCS-MP2 Energies <==================
	-----------------------------------------------------------
	 SCS Same-Spin Scale       =       0.3333333333333333 [-]
	 SCS Opposite-Spin Scale   =       1.2000000000000000 [-]
	 SCS Same-Spin Energy      =      -0.3003583089414641 [Eh]
	 SCS Opposite-Spin Energy  =      -3.2573151465034731 [Eh]
	 SCS Correlation Energy    =      -3.5576734554449372 [Eh]
	 SCS Total Energy          =    -889.9252454092553535 [Eh]
	-----------------------------------------------------------

  Dipole Moment: [D]
     X:     1.7108      Y:    -5.9544      Z:    -1.8204     Total:     6.4572

*** Psi4 exiting successfully. Buy a developer a beer!
