                               Psi4 1.3.2 release

  ==> Input File <==

--------------------------------------------------------------------------
#psi4
#
memory 32 gb

molecule  {
0 1
  O       -1.2481010    -0.6526680     1.0325150
  O       -1.2449750     2.4828510    -0.6861630
  O       -3.2165300     1.5210990     0.7448870
  O       -2.3570290    -3.0668370     0.0949400
  O        1.3605300     2.2470340    -0.0765420
  N        0.8656411     0.0511643     0.2500820
  N        3.0572260     0.7205030    -0.2937270
  N        4.7164630    -0.8366550    -0.5722980
  C       -1.2894840     1.0784300    -0.5920770
  C       -2.7151710     0.6552070    -0.2573930
  C       -0.5254080     0.4815200     0.6000940
  C       -2.5292560    -0.7168860     0.3610560
  C       -2.5283440    -1.8503930    -0.6392900
  C        1.2197750    -1.2614080     0.3112740
  C        1.7555940     1.0674350    -0.0594030
  C        2.5162893    -1.5862226     0.0432631
  C        3.4119830    -0.5506530    -0.2589250
  H       -0.9376060     0.5914040    -1.5148910
  H       -3.3625820     0.6426650    -1.1464650
  H       -0.4402900     1.2218800     1.4039980
  H       -3.2819570    -0.9087340     1.1307830
  H       -1.7133080    -1.7003050    -1.3694640
  H       -3.4855610    -1.8340040    -1.1841350
  H       -0.2975250     2.7131790    -0.5250000
  H       -2.8475560     2.3997430     0.5086630
  H        0.4343110    -1.9634370     0.5690680
  H       -2.4338740    -3.7984320    -0.5432330
  H        2.8291120    -2.6453980     0.0739220
  H        5.1251800    -1.6708610    -0.1624140
  H        5.3198140    -0.0200540    -0.5682940
units angstrom
no_reorient  #important for SAPT in psi4, default
symmetry c1  #important for SAPT in psi4, default
}

set PROPERTIES_ORIGIN ["COM"]
properties('MP2/aug-cc-pvtz', properties = ['dipole'])
--------------------------------------------------------------------------

    Molecular point group: c1
  Charge       = 0
  Multiplicity = 1
  Basis Set: AUG-CC-PVTZ
    Blend: AUG-CC-PVTZ
  Basis Set: (AUG-CC-PVTZ AUX)
    Blend: AUG-CC-PVTZ-JKFIT

    Orbital Energies [Eh]
    ---------------------

    Doubly Occupied:

       1A    -20.583310     2A    -20.583005     3A    -20.558287
       4A    -20.557333     5A    -20.519197     6A    -15.637576
       7A    -15.598418     8A    -15.551506     9A    -11.385099
      10A    -11.354565    11A    -11.343558    12A    -11.329817
      13A    -11.301967    14A    -11.297915    15A    -11.297429
      16A    -11.293631    17A    -11.248691    18A     -1.429781
      19A     -1.397164    20A     -1.380609    21A     -1.373404
      22A     -1.346642    23A     -1.306848    24A     -1.273503
      25A     -1.180615    26A     -1.082793    27A     -1.068528
      28A     -1.023009    29A     -0.935439    30A     -0.914696
      31A     -0.876555    32A     -0.831741    33A     -0.812555
      34A     -0.768035    35A     -0.752443    36A     -0.736156
      37A     -0.720228    38A     -0.703290    39A     -0.698775
      40A     -0.685596    41A     -0.672477    42A     -0.655100
      43A     -0.649338    44A     -0.638773    45A     -0.623965
      46A     -0.615672    47A     -0.608500    48A     -0.588516
      49A     -0.576413    50A     -0.570524    51A     -0.553959
      52A     -0.545510    53A     -0.537639    54A     -0.532424
      55A     -0.497222    56A     -0.478127    57A     -0.474894
      58A     -0.462590    59A     -0.458869    60A     -0.453310
      61A     -0.441019    62A     -0.432687    63A     -0.394546
      64A     -0.350630

  @DF-RHF Final Energy:  -886.37164896642139

   => Energetics <=

    Nuclear Repulsion Energy =           1324.0994643744913901
    One-Electron Energy =               -3845.8374043813332719
    Two-Electron Energy =                1635.3662910404207196
    Total Energy =                       -886.3716489664213896
  Basis Set: (AUG-CC-PVTZ AUX)
    Blend: AUG-CC-PVTZ-RI
    Molecular point group: c1

    Geometry (in Angstrom), charge = 0, multiplicity = 1:

       Center              X                  Y                   Z               Mass
    ------------   -----------------  -----------------  -----------------  -----------------
         O           -1.249638136418    -0.654141566991     1.033036860105    15.994914619570
         O           -1.246512136418     2.481377433009    -0.685641139895    15.994914619570
         O           -3.218067136418     1.519625433009     0.745408860105    15.994914619570
         O           -2.358566136418    -3.068310566991     0.095461860105    15.994914619570
         O            1.358992863582     2.245560433009    -0.076020139895    15.994914619570
         N            0.864103963582     0.049690733009     0.250603860105    14.003074004430
         N            3.055688863582     0.719029433009    -0.293205139895    14.003074004430
         N            4.714925863582    -0.838128566991    -0.571776139895    14.003074004430
         C           -1.291021136418     1.076956433009    -0.591555139895    12.000000000000
         C           -2.716708136418     0.653733433009    -0.256871139895    12.000000000000
         C           -0.526945136418     0.480046433009     0.600615860105    12.000000000000
         C           -2.530793136418    -0.718359566991     0.361577860105    12.000000000000
         C           -2.529881136418    -1.851866566991    -0.638768139895    12.000000000000
         C            1.218237863582    -1.262881566991     0.311795860105    12.000000000000
         C            1.754056863582     1.065961433009    -0.058881139895    12.000000000000
         C            2.514752163582    -1.587696166991     0.043784960105    12.000000000000
         C            3.410445863582    -0.552126566991    -0.258403139895    12.000000000000
         H           -0.939143136418     0.589930433009    -1.514369139895     1.007825032230
         H           -3.364119136418     0.641191433009    -1.145943139895     1.007825032230
         H           -0.441827136418     1.220406433009     1.404519860105     1.007825032230
         H           -3.283494136418    -0.910207566991     1.131304860105     1.007825032230
         H           -1.714845136418    -1.701778566991    -1.368942139895     1.007825032230
         H           -3.487098136418    -1.835477566991    -1.183613139895     1.007825032230
         H           -0.299062136418     2.711705433009    -0.524478139895     1.007825032230
         H           -2.849093136418     2.398269433009     0.509184860105     1.007825032230
         H            0.432773863582    -1.964910566991     0.569589860105     1.007825032230
         H           -2.435411136418    -3.799905566991    -0.542711139895     1.007825032230
         H            2.827574863582    -2.646871566991     0.074443860105     1.007825032230
         H            5.123642863582    -1.672334566991    -0.161892139895     1.007825032230
         H            5.318276863582    -0.021527566991    -0.567772139895     1.007825032230

  Basis Set: AUG-CC-PVTZ
    Blend: AUG-CC-PVTZ
  Basis Set: (AUG-CC-PVTZ AUX)
    Blend: AUG-CC-PVTZ-JKFIT
	 Reference Energy          =    -886.3716489664213896 [Eh]
	 Singles Energy            =      -0.0000000000000000 [Eh]
	 Same-Spin Energy          =      -0.9016140983839609 [Eh]
	 Opposite-Spin Energy      =      -2.7152093584196946 [Eh]
	 Correlation Energy        =      -3.6168234568036555 [Eh]
	 Total Energy              =    -889.9884724232250619 [Eh]

	 ================> DF-SCS-MP2 Energies <==================
	-----------------------------------------------------------
	 SCS Same-Spin Scale       =       0.3333333333333333 [-]
	 SCS Opposite-Spin Scale   =       1.2000000000000000 [-]
	 SCS Same-Spin Energy      =      -0.3005380327946536 [Eh]
	 SCS Opposite-Spin Energy  =      -3.2582512301036335 [Eh]
	 SCS Correlation Energy    =      -3.5587892628982871 [Eh]
	 SCS Total Energy          =    -889.9304382293196340 [Eh]
	-----------------------------------------------------------

  Dipole Moment: [D]
     X:     1.5799      Y:    -6.0343      Z:    -1.7918     Total:     6.4900

*** Psi4 exiting successfully. Buy a developer a beer!
