                               Psi4 1.4a3.dev225

  ==> Input File <==

--------------------------------------------------------------------------
#psi4
#
memory 32 gb

molecule  {
0 1
  O       -1.3191770     0.6538360    -1.0992360
  O       -1.5735610    -2.4640850     0.5135810
  O       -3.5606630    -1.0699430    -0.4600060
  O       -1.4399290     3.1254620     0.1265180
  O        1.1065530    -2.3833650     0.0076020
  N        0.7686360    -0.1579440    -0.3706350
  N        2.9363770    -0.9938720     0.1460080
  N        4.7058880     0.4431110     0.3611260
  C       -1.3768610    -1.0680440     0.5552780
  C       -2.7379840    -0.3746360     0.4578480
  C       -0.6377490    -0.5042940    -0.6790150
  C       -2.3707440     0.9655450    -0.1585060
  C       -1.8992030     1.9895750     0.8571380
  C        1.2309690     1.1190800    -0.4442230
  C        1.6104480    -1.2470590    -0.0585760
  C        2.5474650     1.3753690    -0.1998620
  C        3.3802090     0.2523040     0.0808410
  H       -0.8441360    -0.7686950     1.4698480
  H       -3.2257400    -0.2778790     1.4400230
  H       -0.6227070    -1.2428120    -1.4883720
  H       -3.1941750     1.3785730    -0.7472070
  H       -1.0952130     1.5703990     1.4802000
  H       -2.7410530     2.2466610     1.5166010
  H       -0.6710550    -2.8260740     0.3542250
  H       -3.3063470    -2.0105220    -0.3629290
  H        0.4929290     1.8778260    -0.6840360
  H       -1.2098800     3.8154810     0.7720340
  H        2.9406061     2.4062320    -0.2396325
  H        5.1589650     1.2712730    -0.0008400
  H        5.2635310    -0.4031270     0.3606700
units angstrom
no_reorient  #important for SAPT in psi4, default
symmetry c1  #important for SAPT in psi4, default
}

set PROPERTIES_ORIGIN ["COM"]
properties('MP2/aug-cc-pvtz', properties = ['dipole'])
--------------------------------------------------------------------------

    Molecular point group: c1
  Charge       = 0
  Multiplicity = 1
  Basis Set: AUG-CC-PVTZ
    Blend: AUG-CC-PVTZ
  Basis Set: (AUG-CC-PVTZ AUX)
    Blend: AUG-CC-PVTZ-JKFIT

    Orbital Energies [Eh]
    ---------------------

    Doubly Occupied:

       1A    -20.586721     2A    -20.581429     3A    -20.559368
       4A    -20.556441     5A    -20.519750     6A    -15.633038
       7A    -15.599630     8A    -15.551877     9A    -11.386014
      10A    -11.358235    11A    -11.339625    12A    -11.325231
      13A    -11.303559    14A    -11.297943    15A    -11.296994
      16A    -11.293514    17A    -11.248775    18A     -1.429256
      19A     -1.394133    20A     -1.383030    21A     -1.375522
      22A     -1.346550    23A     -1.303686    24A     -1.271363
      25A     -1.181231    26A     -1.078820    27A     -1.068067
      28A     -1.017085    29A     -0.936486    30A     -0.906464
      31A     -0.876598    32A     -0.829873    33A     -0.812387
      34A     -0.766484    35A     -0.749616    36A     -0.735030
      37A     -0.722009    38A     -0.707930    39A     -0.703281
      40A     -0.684937    41A     -0.674667    42A     -0.653341
      43A     -0.647300    44A     -0.633183    45A     -0.619778
      46A     -0.615160    47A     -0.607793    48A     -0.592082
      49A     -0.577078    50A     -0.565001    51A     -0.555822
      52A     -0.548162    53A     -0.536614    54A     -0.531054
      55A     -0.495714    56A     -0.480803    57A     -0.473722
      58A     -0.463396    59A     -0.457940    60A     -0.453002
      61A     -0.442074    62A     -0.430268    63A     -0.392291
      64A     -0.348271

  @DF-RHF Final Energy:  -886.37353105527416

   => Energetics <=

    Nuclear Repulsion Energy =           1334.4581557450017044
    One-Electron Energy =               -3866.6383718372635485
    Two-Electron Energy =                1645.8066850369875738
    Total Energy =                       -886.3735310552740430
  Basis Set: (AUG-CC-PVTZ AUX)
    Blend: AUG-CC-PVTZ-RI
    Molecular point group: c1

    Geometry (in Angstrom), charge = 0, multiplicity = 1:

       Center              X                  Y                   Z               Mass
    ------------   -----------------  -----------------  -----------------  -----------------
         O           -1.331950182802     0.682370040776    -1.083452801923    15.994914619570
         O           -1.586334182802    -2.435550959224     0.529364198077    15.994914619570
         O           -3.573436182802    -1.041408959224    -0.444222801923    15.994914619570
         O           -1.452702182802     3.153996040776     0.142301198077    15.994914619570
         O            1.093779817198    -2.354830959224     0.023385198077    15.994914619570
         N            0.755862817198    -0.129409959224    -0.354851801923    14.003074004430
         N            2.923603817198    -0.965337959224     0.161791198077    14.003074004430
         N            4.693114817198     0.471645040776     0.376909198077    14.003074004430
         C           -1.389634182802    -1.039509959224     0.571061198077    12.000000000000
         C           -2.750757182802    -0.346101959224     0.473631198077    12.000000000000
         C           -0.650522182802    -0.475759959224    -0.663231801923    12.000000000000
         C           -2.383517182802     0.994079040776    -0.142722801923    12.000000000000
         C           -1.911976182802     2.018109040776     0.872921198077    12.000000000000
         C            1.218195817198     1.147614040776    -0.428439801923    12.000000000000
         C            1.597674817198    -1.218524959224    -0.042792801923    12.000000000000
         C            2.534691817198     1.403903040776    -0.184078801923    12.000000000000
         C            3.367435817198     0.280838040776     0.096624198077    12.000000000000
         H           -0.856909182802    -0.740160959224     1.485631198077     1.007825032230
         H           -3.238513182802    -0.249344959224     1.455806198077     1.007825032230
         H           -0.635480182802    -1.214277959224    -1.472588801923     1.007825032230
         H           -3.206948182802     1.407107040776    -0.731423801923     1.007825032230
         H           -1.107986182802     1.598933040776     1.495983198077     1.007825032230
         H           -2.753826182802     2.275195040776     1.532384198077     1.007825032230
         H           -0.683828182802    -2.797539959224     0.370008198077     1.007825032230
         H           -3.319120182802    -1.981987959224    -0.347145801923     1.007825032230
         H            0.480155817198     1.906360040776    -0.668252801923     1.007825032230
         H           -1.222653182802     3.844015040776     0.787817198077     1.007825032230
         H            2.927832917198     2.434766040776    -0.223849301923     1.007825032230
         H            5.146191817198     1.299807040776     0.014943198077     1.007825032230
         H            5.250757817198    -0.374592959224     0.376453198077     1.007825032230

  Basis Set: AUG-CC-PVTZ
    Blend: AUG-CC-PVTZ
  Basis Set: (AUG-CC-PVTZ AUX)
    Blend: AUG-CC-PVTZ-JKFIT
	 Reference Energy          =    -886.3735310552741566 [Eh]
	 Singles Energy            =      -0.0000000000000000 [Eh]
	 Same-Spin Energy          =      -0.9018580393337881 [Eh]
	 Opposite-Spin Energy      =      -2.7160671530269105 [Eh]
	 Correlation Energy        =      -3.6179251923606985 [Eh]
	 Total Energy              =    -889.9914562476348010 [Eh]

	 ================> DF-SCS-MP2 Energies <==================
	-----------------------------------------------------------
	 SCS Same-Spin Scale       =       0.3333333333333333 [-]
	 SCS Opposite-Spin Scale   =       1.2000000000000000 [-]
	 SCS Same-Spin Energy      =      -0.3006193464445960 [Eh]
	 SCS Opposite-Spin Energy  =      -3.2592805836322927 [Eh]
	 SCS Correlation Energy    =      -3.5598999300768885 [Eh]
	 SCS Total Energy          =    -889.9334309853510376 [Eh]
	-----------------------------------------------------------

  Dipole Moment: [D]
     X:     2.7346      Y:     5.7975      Z:     1.9479     Total:     6.6995

*** Psi4 exiting successfully. Buy a developer a beer!
