                               Psi4 1.3.2 release

  ==> Input File <==

--------------------------------------------------------------------------
#psi4
#
memory 32 gb

molecule  {
0 1
  O       -1.2481010    -0.6526680     1.0325150
  O       -1.2449750     2.4828510    -0.6861630
  O       -3.2165300     1.5210990     0.7448870
  O       -2.3570290    -3.0668370     0.0949400
  O        1.3605300     2.2470340    -0.0765420
  N        0.8351904     0.0607445     0.2074601
  N        3.0572260     0.7205030    -0.2937270
  N        4.7164630    -0.8366550    -0.5722980
  C       -1.2463920     1.0697772    -0.6228210
  C       -2.7151710     0.6552070    -0.2573930
  C       -0.5254080     0.4815200     0.6000940
  C       -2.5292560    -0.7168860     0.3610560
  C       -2.5283440    -1.8503930    -0.6392900
  C        1.2197750    -1.2614080     0.3112740
  C        1.7555940     1.0674350    -0.0594030
  C        2.5111010    -1.6091400     0.0469950
  C        3.4119830    -0.5506530    -0.2589250
  H       -0.9376060     0.5914040    -1.5148910
  H       -3.3625820     0.6426650    -1.1464650
  H       -0.4402900     1.2218800     1.4039980
  H       -3.2819570    -0.9087340     1.1307830
  H       -1.7133080    -1.7003050    -1.3694640
  H       -3.4855610    -1.8340040    -1.1841350
  H       -0.2975250     2.7131790    -0.5250000
  H       -2.8475560     2.3997430     0.5086630
  H        0.4343110    -1.9634370     0.5690680
  H       -2.4338740    -3.7984320    -0.5432330
  H        2.8291120    -2.6453980     0.0739220
  H        5.1251800    -1.6708610    -0.1624140
  H        5.3198140    -0.0200540    -0.5682940
units angstrom
no_reorient  #important for SAPT in psi4, default
symmetry c1  #important for SAPT in psi4, default
}

set PROPERTIES_ORIGIN ["COM"]
properties('MP2/aug-cc-pvtz', properties = ['dipole'])
--------------------------------------------------------------------------

    Molecular point group: c1
  Charge       = 0
  Multiplicity = 1
  Basis Set: AUG-CC-PVTZ
    Blend: AUG-CC-PVTZ
  Basis Set: (AUG-CC-PVTZ AUX)
    Blend: AUG-CC-PVTZ-JKFIT

    Orbital Energies [Eh]
    ---------------------

    Doubly Occupied:

       1A    -20.582090     2A    -20.582052     3A    -20.557267
       4A    -20.556529     5A    -20.519285     6A    -15.635273
       7A    -15.600723     8A    -15.553514     9A    -11.385702
      10A    -11.358707    11A    -11.341376    12A    -11.330085
      13A    -11.300902    14A    -11.295805    15A    -11.293713
      16A    -11.292827    17A    -11.251101    18A     -1.428254
      19A     -1.396309    20A     -1.377788    21A     -1.371803
      22A     -1.344660    23A     -1.304747    24A     -1.272035
      25A     -1.182360    26A     -1.082896    27A     -1.063957
      28A     -1.019745    29A     -0.932714    30A     -0.910265
      31A     -0.876604    32A     -0.833316    33A     -0.811007
      34A     -0.767896    35A     -0.749283    36A     -0.735246
      37A     -0.720498    38A     -0.701776    39A     -0.699092
      40A     -0.686236    41A     -0.672564    42A     -0.654506
      43A     -0.651051    44A     -0.638895    45A     -0.620703
      46A     -0.615255    47A     -0.606919    48A     -0.590927
      49A     -0.573233    50A     -0.569170    51A     -0.554234
      52A     -0.546596    53A     -0.537362    54A     -0.531754
      55A     -0.494635    56A     -0.476775    57A     -0.470064
      58A     -0.460194    59A     -0.459572    60A     -0.454251
      61A     -0.438198    62A     -0.434025    63A     -0.394977
      64A     -0.351880

  @DF-RHF Final Energy:  -886.36857769039045

   => Energetics <=

    Nuclear Repulsion Energy =           1323.5844281971244527
    One-Electron Energy =               -3844.8996472752451155
    Two-Electron Energy =                1634.9466413877300965
    Total Energy =                       -886.3685776903905662
  Basis Set: (AUG-CC-PVTZ AUX)
    Blend: AUG-CC-PVTZ-RI
    Molecular point group: c1

    Geometry (in Angstrom), charge = 0, multiplicity = 1:

       Center              X                  Y                   Z               Mass
    ------------   -----------------  -----------------  -----------------  -----------------
         O           -1.249755136371    -0.653134965899     1.036825579473    15.994914619570
         O           -1.246629136371     2.482384034101    -0.681852420527    15.994914619570
         O           -3.218184136371     1.520632034101     0.749197579473    15.994914619570
         O           -2.358683136371    -3.067303965899     0.099250579473    15.994914619570
         O            1.358875863629     2.246567034101    -0.072231420527    15.994914619570
         N            0.833536263629     0.060277534101     0.211770679473    14.003074004430
         N            3.055571863629     0.720036034101    -0.289416420527    14.003074004430
         N            4.714808863629    -0.837121965899    -0.567987420527    14.003074004430
         C           -1.248046136371     1.069310234101    -0.618510420527    12.000000000000
         C           -2.716825136371     0.654740034101    -0.253082420527    12.000000000000
         C           -0.527062136371     0.481053034101     0.604404579473    12.000000000000
         C           -2.530910136371    -0.717352965899     0.365366579473    12.000000000000
         C           -2.529998136371    -1.850859965899    -0.634979420527    12.000000000000
         C            1.218120863629    -1.261874965899     0.315584579473    12.000000000000
         C            1.753939863629     1.066968034101    -0.055092420527    12.000000000000
         C            2.509446863629    -1.609606965899     0.051305579473    12.000000000000
         C            3.410328863629    -0.551119965899    -0.254614420527    12.000000000000
         H           -0.939260136371     0.590937034101    -1.510580420527     1.007825032230
         H           -3.364236136371     0.642198034101    -1.142154420527     1.007825032230
         H           -0.441944136371     1.221413034101     1.408308579473     1.007825032230
         H           -3.283611136371    -0.909200965899     1.135093579473     1.007825032230
         H           -1.714962136371    -1.700771965899    -1.365153420527     1.007825032230
         H           -3.487215136371    -1.834470965899    -1.179824420527     1.007825032230
         H           -0.299179136371     2.712712034101    -0.520689420527     1.007825032230
         H           -2.849210136371     2.399276034101     0.512973579473     1.007825032230
         H            0.432656863629    -1.963903965899     0.573378579473     1.007825032230
         H           -2.435528136371    -3.798898965899    -0.538922420527     1.007825032230
         H            2.827457863629    -2.645864965899     0.078232579473     1.007825032230
         H            5.123525863629    -1.671327965899    -0.158103420527     1.007825032230
         H            5.318159863629    -0.020520965899    -0.563983420527     1.007825032230

  Basis Set: AUG-CC-PVTZ
    Blend: AUG-CC-PVTZ
  Basis Set: (AUG-CC-PVTZ AUX)
    Blend: AUG-CC-PVTZ-JKFIT
	 Reference Energy          =    -886.3685776903904525 [Eh]
	 Singles Energy            =      -0.0000000000000000 [Eh]
	 Same-Spin Energy          =      -0.9012810023563518 [Eh]
	 Opposite-Spin Energy      =      -2.7156617705431843 [Eh]
	 Correlation Energy        =      -3.6169427728995363 [Eh]
	 Total Energy              =    -889.9855204632899586 [Eh]

	 ================> DF-SCS-MP2 Energies <==================
	-----------------------------------------------------------
	 SCS Same-Spin Scale       =       0.3333333333333333 [-]
	 SCS Opposite-Spin Scale   =       1.2000000000000000 [-]
	 SCS Same-Spin Energy      =      -0.3004270007854506 [Eh]
	 SCS Opposite-Spin Energy  =      -3.2587941246518208 [Eh]
	 SCS Correlation Energy    =      -3.5592211254372712 [Eh]
	 SCS Total Energy          =    -889.9277988158277140 [Eh]
	-----------------------------------------------------------

  Dipole Moment: [D]
     X:     1.7997      Y:    -6.0408      Z:    -1.8316     Total:     6.5639

*** Psi4 exiting successfully. Buy a developer a beer!
