                               Psi4 1.4a3.dev225

  ==> Input File <==

--------------------------------------------------------------------------
#psi4
#
memory 32 gb

molecule  {
0 1
  O       -1.3191770     0.6538360    -1.0992360
  O       -1.5735610    -2.4640850     0.5135810
  O       -3.5606630    -1.0699430    -0.4600060
  O       -1.4399290     3.1254620     0.1265180
  O        1.1065530    -2.3833650     0.0076020
  N        0.7686360    -0.1579440    -0.3706350
  N        2.9363770    -0.9938720     0.1460080
  N        4.7058880     0.4431110     0.3611260
  C       -1.3768610    -1.0680440     0.5552780
  C       -2.7379840    -0.3746360     0.4578480
  C       -0.6377490    -0.5042940    -0.6790150
  C       -2.3707440     0.9655450    -0.1585060
  C       -1.8992030     1.9895750     0.8571380
  C        1.2309690     1.1190800    -0.4442230
  C        1.6104480    -1.2470590    -0.0585760
  C        2.5474650     1.3753690    -0.1998620
  C        3.3802090     0.2523040     0.0808410
  H       -0.8441360    -0.7686950     1.4698480
  H       -3.2257400    -0.2778790     1.4400230
  H       -0.6227070    -1.2428120    -1.4883720
  H       -3.1941750     1.3785730    -0.7472070
  H       -1.0952130     1.5703990     1.4802000
  H       -2.7410530     2.2466610     1.5166010
  H       -0.6710550    -2.8260740     0.3542250
  H       -3.3063470    -2.0105220    -0.3629290
  H        0.4929290     1.8778260    -0.6840360
  H       -1.2098800     3.8154810     0.7720340
  H        2.9334840     2.3875570    -0.2389120
  H        5.1813720     1.3122300    -0.0187411
  H        5.2635310    -0.4031270     0.3606700
units angstrom
no_reorient  #important for SAPT in psi4, default
symmetry c1  #important for SAPT in psi4, default
}

set PROPERTIES_ORIGIN ["COM"]
properties('MP2/aug-cc-pvtz', properties = ['dipole'])
--------------------------------------------------------------------------

    Molecular point group: c1
  Charge       = 0
  Multiplicity = 1
  Basis Set: AUG-CC-PVTZ
    Blend: AUG-CC-PVTZ
  Basis Set: (AUG-CC-PVTZ AUX)
    Blend: AUG-CC-PVTZ-JKFIT

    Orbital Energies [Eh]
    ---------------------

    Doubly Occupied:

       1A    -20.586647     2A    -20.581289     3A    -20.559244
       4A    -20.556344     5A    -20.519564     6A    -15.632722
       7A    -15.604151     8A    -15.551631     9A    -11.385840
      10A    -11.357912    11A    -11.339444    12A    -11.324829
      13A    -11.303470    14A    -11.297838    15A    -11.296855
      16A    -11.293406    17A    -11.246292    18A     -1.429102
      19A     -1.393934    20A     -1.382929    21A     -1.375410
      22A     -1.346435    23A     -1.302490    24A     -1.269467
      25A     -1.177478    26A     -1.078976    27A     -1.067952
      28A     -1.016835    29A     -0.935834    30A     -0.906411
      31A     -0.874374    32A     -0.829375    33A     -0.812234
      34A     -0.764853    35A     -0.749451    36A     -0.735015
      37A     -0.719761    38A     -0.707682    39A     -0.703159
      40A     -0.678543    41A     -0.674940    42A     -0.652061
      43A     -0.648537    44A     -0.633168    45A     -0.620081
      46A     -0.614350    47A     -0.607537    48A     -0.592781
      49A     -0.576929    50A     -0.564787    51A     -0.555634
      52A     -0.548102    53A     -0.536474    54A     -0.530716
      55A     -0.495501    56A     -0.480706    57A     -0.473595
      58A     -0.463268    59A     -0.457806    60A     -0.452892
      61A     -0.441858    62A     -0.430063    63A     -0.391646
      64A     -0.347997

  @DF-RHF Final Energy:  -886.37052105201269

   => Energetics <=

    Nuclear Repulsion Energy =           1334.2963988790559142
    One-Electron Energy =               -3866.3606260422616288
    Two-Electron Energy =                1645.6937061111932508
    Total Energy =                       -886.3705210520126911
  Basis Set: (AUG-CC-PVTZ AUX)
    Blend: AUG-CC-PVTZ-RI
    Molecular point group: c1

    Geometry (in Angstrom), charge = 0, multiplicity = 1:

       Center              X                  Y                   Z               Mass
    ------------   -----------------  -----------------  -----------------  -----------------
         O           -1.332013553524     0.682277660295    -1.083381571688    15.994914619570
         O           -1.586397553524    -2.435643339705     0.529435428312    15.994914619570
         O           -3.573499553524    -1.041501339705    -0.444151571688    15.994914619570
         O           -1.452765553524     3.153903660295     0.142372428312    15.994914619570
         O            1.093716446476    -2.354923339705     0.023456428312    15.994914619570
         N            0.755799446476    -0.129502339705    -0.354780571688    14.003074004430
         N            2.923540446476    -0.965430339705     0.161862428312    14.003074004430
         N            4.693051446476     0.471552660295     0.376980428312    14.003074004430
         C           -1.389697553524    -1.039602339705     0.571132428312    12.000000000000
         C           -2.750820553524    -0.346194339705     0.473702428312    12.000000000000
         C           -0.650585553524    -0.475852339705    -0.663160571688    12.000000000000
         C           -2.383580553524     0.993986660295    -0.142651571688    12.000000000000
         C           -1.912039553524     2.018016660295     0.872992428312    12.000000000000
         C            1.218132446476     1.147521660295    -0.428368571688    12.000000000000
         C            1.597611446476    -1.218617339705    -0.042721571688    12.000000000000
         C            2.534628446476     1.403810660295    -0.184007571688    12.000000000000
         C            3.367372446476     0.280745660295     0.096695428312    12.000000000000
         H           -0.856972553524    -0.740253339705     1.485702428312     1.007825032230
         H           -3.238576553524    -0.249437339705     1.455877428312     1.007825032230
         H           -0.635543553524    -1.214370339705    -1.472517571688     1.007825032230
         H           -3.207011553524     1.407014660295    -0.731352571688     1.007825032230
         H           -1.108049553524     1.598840660295     1.496054428312     1.007825032230
         H           -2.753889553524     2.275102660295     1.532455428312     1.007825032230
         H           -0.683891553524    -2.797632339705     0.370079428312     1.007825032230
         H           -3.319183553524    -1.982080339705    -0.347074571688     1.007825032230
         H            0.480092446476     1.906267660295    -0.668181571688     1.007825032230
         H           -1.222716553524     3.843922660295     0.787888428312     1.007825032230
         H            2.920647446476     2.415998660295    -0.223057571688     1.007825032230
         H            5.168535446476     1.340671660295    -0.002886671688     1.007825032230
         H            5.250694446476    -0.374685339705     0.376524428312     1.007825032230

  Basis Set: AUG-CC-PVTZ
    Blend: AUG-CC-PVTZ
  Basis Set: (AUG-CC-PVTZ AUX)
    Blend: AUG-CC-PVTZ-JKFIT
	 Reference Energy          =    -886.3705210520126911 [Eh]
	 Singles Energy            =      -0.0000000000000000 [Eh]
	 Same-Spin Energy          =      -0.9021148649894661 [Eh]
	 Opposite-Spin Energy      =      -2.7167779452312200 [Eh]
	 Correlation Energy        =      -3.6188928102206859 [Eh]
	 Total Energy              =    -889.9894138622333912 [Eh]

	 ================> DF-SCS-MP2 Energies <==================
	-----------------------------------------------------------
	 SCS Same-Spin Scale       =       0.3333333333333333 [-]
	 SCS Opposite-Spin Scale   =       1.2000000000000000 [-]
	 SCS Same-Spin Energy      =      -0.3007049549964887 [Eh]
	 SCS Opposite-Spin Energy  =      -3.2601335342774638 [Eh]
	 SCS Correlation Energy    =      -3.5608384892739524 [Eh]
	 SCS Total Energy          =    -889.9313595412866107 [Eh]
	-----------------------------------------------------------

  Dipole Moment: [D]
     X:     2.7704      Y:     5.8349      Z:     1.9362     Total:     6.7432

*** Psi4 exiting successfully. Buy a developer a beer!
