                               Psi4 1.3.2 release

  ==> Input File <==

--------------------------------------------------------------------------
#psi4
#
memory 32 gb

molecule  {
0 1
  O       -1.2481010    -0.6526680     1.0325150
  O       -1.2449750     2.4828510    -0.6861630
  O       -3.2165300     1.5210990     0.7448870
  O       -2.3570290    -3.0668370     0.0949400
  O        1.3605300     2.2470340    -0.0765420
  N        0.8434040     0.0452230     0.2559430
  N        3.0572260     0.7205030    -0.2937270
  N        4.7164630    -0.8366550    -0.5722980
  C       -1.2894840     1.0784300    -0.5920770
  C       -2.7151710     0.6552070    -0.2573930
  C       -0.5254080     0.4815200     0.6000940
  C       -2.5292560    -0.7168860     0.3610560
  C       -2.5283440    -1.8503930    -0.6392900
  C        1.2197750    -1.2614080     0.3112740
  C        1.7555940     1.0674350    -0.0594030
  C        2.5111010    -1.6091400     0.0469950
  C        3.4119830    -0.5506530    -0.2589250
  H       -0.9376060     0.5914040    -1.5148910
  H       -3.3625820     0.6426650    -1.1464650
  H       -0.4402900     1.2218800     1.4039980
  H       -3.2819570    -0.9087340     1.1307830
  H       -1.7133080    -1.7003050    -1.3694640
  H       -3.4855610    -1.8340040    -1.1841350
  H       -0.1057867     2.7597912    -0.4923850
  H       -2.8475560     2.3997430     0.5086630
  H        0.4343110    -1.9634370     0.5690680
  H       -2.4338740    -3.7984320    -0.5432330
  H        2.8291120    -2.6453980     0.0739220
  H        5.1251800    -1.6708610    -0.1624140
  H        5.3198140    -0.0200540    -0.5682940
units angstrom
no_reorient  #important for SAPT in psi4, default
symmetry c1  #important for SAPT in psi4, default
}

set PROPERTIES_ORIGIN ["COM"]
properties('MP2/aug-cc-pvtz', properties = ['dipole'])
--------------------------------------------------------------------------

    Molecular point group: c1
  Charge       = 0
  Multiplicity = 1
  Basis Set: AUG-CC-PVTZ
    Blend: AUG-CC-PVTZ
  Basis Set: (AUG-CC-PVTZ AUX)
    Blend: AUG-CC-PVTZ-JKFIT

    Orbital Energies [Eh]
    ---------------------

    Doubly Occupied:

       1A    -20.580609     2A    -20.579356     3A    -20.551899
       4A    -20.545904     5A    -20.535832     6A    -15.641190
       7A    -15.603590     8A    -15.559545     9A    -11.398358
      10A    -11.362694    11A    -11.338826    12A    -11.331649
      13A    -11.298868    14A    -11.293612    15A    -11.288364
      16A    -11.287181    17A    -11.252204    18A     -1.428555
      19A     -1.404152    20A     -1.373757    21A     -1.362736
      22A     -1.315747    23A     -1.310716    24A     -1.277711
      25A     -1.187196    26A     -1.084760    27A     -1.062304
      28A     -1.014625    29A     -0.934494    30A     -0.913042
      31A     -0.879391    32A     -0.824507    33A     -0.808342
      34A     -0.770802    35A     -0.753687    36A     -0.726406
      37A     -0.720537    38A     -0.695397    39A     -0.691759
      40A     -0.688904    41A     -0.667102    42A     -0.660949
      43A     -0.652058    44A     -0.638845    45A     -0.620612
      46A     -0.608553    47A     -0.601230    48A     -0.592586
      49A     -0.569361    50A     -0.564207    51A     -0.545772
      52A     -0.543131    53A     -0.536195    54A     -0.526336
      55A     -0.500970    56A     -0.476853    57A     -0.472373
      58A     -0.458835    59A     -0.455899    60A     -0.440271
      61A     -0.438888    62A     -0.430943    63A     -0.399990
      64A     -0.354541

  @DF-RHF Final Energy:  -886.34316396223062

   => Energetics <=

    Nuclear Repulsion Energy =           1323.0258065580162565
    One-Electron Energy =               -3843.8665335329292247
    Two-Electron Energy =                1634.4975630126825763
    Total Energy =                       -886.3431639622306193
  Basis Set: (AUG-CC-PVTZ AUX)
    Blend: AUG-CC-PVTZ-RI
    Molecular point group: c1

    Geometry (in Angstrom), charge = 0, multiplicity = 1:

       Center              X                  Y                   Z               Mass
    ------------   -----------------  -----------------  -----------------  -----------------
         O           -1.248895974984    -0.652861242597     1.032379786702    15.994914619570
         O           -1.245769974984     2.482657757403    -0.686298213298    15.994914619570
         O           -3.217324974984     1.520905757403     0.744751786702    15.994914619570
         O           -2.357823974984    -3.067030242597     0.094804786702    15.994914619570
         O            1.359735025016     2.246840757403    -0.076677213298    15.994914619570
         N            0.842609025016     0.045029757403     0.255807786702    14.003074004430
         N            3.056431025016     0.720309757403    -0.293862213298    14.003074004430
         N            4.715668025016    -0.836848242597    -0.572433213298    14.003074004430
         C           -1.290278974984     1.078236757403    -0.592212213298    12.000000000000
         C           -2.715965974984     0.655013757403    -0.257528213298    12.000000000000
         C           -0.526202974984     0.481326757403     0.599958786702    12.000000000000
         C           -2.530050974984    -0.717079242597     0.360920786702    12.000000000000
         C           -2.529138974984    -1.850586242597    -0.639425213298    12.000000000000
         C            1.218980025016    -1.261601242597     0.311138786702    12.000000000000
         C            1.754799025016     1.067241757403    -0.059538213298    12.000000000000
         C            2.510306025016    -1.609333242597     0.046859786702    12.000000000000
         C            3.411188025016    -0.550846242597    -0.259060213298    12.000000000000
         H           -0.938400974984     0.591210757403    -1.515026213298     1.007825032230
         H           -3.363376974984     0.642471757403    -1.146600213298     1.007825032230
         H           -0.441084974984     1.221686757403     1.403862786702     1.007825032230
         H           -3.282751974984    -0.908927242597     1.130647786702     1.007825032230
         H           -1.714102974984    -1.700498242597    -1.369599213298     1.007825032230
         H           -3.486355974984    -1.834197242597    -1.184270213298     1.007825032230
         H           -0.106581674984     2.759597957403    -0.492520213298     1.007825032230
         H           -2.848350974984     2.399549757403     0.508527786702     1.007825032230
         H            0.433516025016    -1.963630242597     0.568932786702     1.007825032230
         H           -2.434668974984    -3.798625242597    -0.543368213298     1.007825032230
         H            2.828317025016    -2.645591242597     0.073786786702     1.007825032230
         H            5.124385025016    -1.671054242597    -0.162549213298     1.007825032230
         H            5.319019025016    -0.020247242597    -0.568429213298     1.007825032230

  Basis Set: AUG-CC-PVTZ
    Blend: AUG-CC-PVTZ
  Basis Set: (AUG-CC-PVTZ AUX)
    Blend: AUG-CC-PVTZ-JKFIT
	 Reference Energy          =    -886.3431639622306193 [Eh]
	 Singles Energy            =      -0.0000000000000000 [Eh]
	 Same-Spin Energy          =      -0.9047336880083239 [Eh]
	 Opposite-Spin Energy      =      -2.7208321822169514 [Eh]
	 Correlation Energy        =      -3.6255658702252753 [Eh]
	 Total Energy              =    -889.9687298324558924 [Eh]

	 ================> DF-SCS-MP2 Energies <==================
	-----------------------------------------------------------
	 SCS Same-Spin Scale       =       0.3333333333333333 [-]
	 SCS Opposite-Spin Scale   =       1.2000000000000000 [-]
	 SCS Same-Spin Energy      =      -0.3015778960027746 [Eh]
	 SCS Opposite-Spin Energy  =      -3.2649986186603415 [Eh]
	 SCS Correlation Energy    =      -3.5665765146631161 [Eh]
	 SCS Total Energy          =    -889.9097404768937167 [Eh]
	-----------------------------------------------------------

  Dipole Moment: [D]
     X:     2.5887      Y:    -6.1071      Z:    -1.6922     Total:     6.8456

*** Psi4 exiting successfully. Buy a developer a beer!
