                               Psi4 1.3.2 release

  ==> Input File <==

--------------------------------------------------------------------------
#psi4
#
memory 32 gb

molecule  {
0 1
  O       -1.2481010    -0.6526680     1.0325150
  O       -1.2449750     2.4828510    -0.6861630
  O       -3.2165300     1.5210990     0.7448870
  O       -2.3570290    -3.0668370     0.0949400
  O        1.3605300     2.2470340    -0.0765420
  N        0.8434040     0.0452230     0.2559430
  N        3.0572260     0.7205030    -0.2937270
  N        4.7164630    -0.8366550    -0.5722980
  C       -1.2894840     1.0784300    -0.5920770
  C       -2.7151710     0.6552070    -0.2573930
  C       -0.4987990     0.4498300     0.5659665
  C       -2.5292560    -0.7168860     0.3610560
  C       -2.5283440    -1.8503930    -0.6392900
  C        1.2197750    -1.2614080     0.3112740
  C        1.7555940     1.0674350    -0.0594030
  C        2.5111010    -1.6091400     0.0469950
  C        3.4119830    -0.5506530    -0.2589250
  H       -0.9135150     0.5702170    -1.4937227
  H       -3.3625820     0.6426650    -1.1464650
  H       -0.4402900     1.2218800     1.4039980
  H       -3.2819570    -0.9087340     1.1307830
  H       -1.7133080    -1.7003050    -1.3694640
  H       -3.4855610    -1.8340040    -1.1841350
  H       -0.2975250     2.7131790    -0.5250000
  H       -2.8475560     2.3997430     0.5086630
  H        0.4343110    -1.9634370     0.5690680
  H       -2.4338740    -3.7984320    -0.5432330
  H        2.8291120    -2.6453980     0.0739220
  H        5.1251800    -1.6708610    -0.1624140
  H        5.3198140    -0.0200540    -0.5682940
units angstrom
no_reorient  #important for SAPT in psi4, default
symmetry c1  #important for SAPT in psi4, default
}

set PROPERTIES_ORIGIN ["COM"]
properties('MP2/aug-cc-pvtz', properties = ['dipole'])
--------------------------------------------------------------------------

    Molecular point group: c1
  Charge       = 0
  Multiplicity = 1
  Basis Set: AUG-CC-PVTZ
    Blend: AUG-CC-PVTZ
  Basis Set: (AUG-CC-PVTZ AUX)
    Blend: AUG-CC-PVTZ-JKFIT

    Orbital Energies [Eh]
    ---------------------

    Doubly Occupied:

       1A    -20.582017     2A    -20.580287     3A    -20.557917
       4A    -20.556565     5A    -20.523752     6A    -15.639862
       7A    -15.601274     8A    -15.555295     9A    -11.390734
      10A    -11.359622    11A    -11.339753    12A    -11.330403
      13A    -11.300795    14A    -11.296332    15A    -11.295878
      16A    -11.292506    17A    -11.250540    18A     -1.430347
      19A     -1.397997    20A     -1.379596    21A     -1.372568
      22A     -1.345560    23A     -1.309000    24A     -1.279344
      25A     -1.185074    26A     -1.085305    27A     -1.067062
      28A     -1.020479    29A     -0.936853    30A     -0.912914
      31A     -0.879466    32A     -0.829687    33A     -0.812461
      34A     -0.770181    35A     -0.755241    36A     -0.734537
      37A     -0.721435    38A     -0.703865    39A     -0.697576
      40A     -0.686661    41A     -0.673828    42A     -0.652871
      43A     -0.652024    44A     -0.638083    45A     -0.620734
      46A     -0.616540    47A     -0.605400    48A     -0.596257
      49A     -0.575637    50A     -0.567471    51A     -0.554792
      52A     -0.546906    53A     -0.537364    54A     -0.528855
      55A     -0.498609    56A     -0.477322    57A     -0.474934
      58A     -0.462222    59A     -0.459921    60A     -0.451125
      61A     -0.439322    62A     -0.433663    63A     -0.394849
      64A     -0.350912

  @DF-RHF Final Energy:  -886.36936456262663

   => Energetics <=

    Nuclear Repulsion Energy =           1324.4207177728326315
    One-Electron Energy =               -3846.4274014086449824
    Two-Electron Energy =                1635.6373190731856084
    Total Energy =                       -886.3693645626267426
  Basis Set: (AUG-CC-PVTZ AUX)
    Blend: AUG-CC-PVTZ-RI
    Molecular point group: c1

    Geometry (in Angstrom), charge = 0, multiplicity = 1:

       Center              X                  Y                   Z               Mass
    ------------   -----------------  -----------------  -----------------  -----------------
         O           -1.249514476876    -0.651015761509     1.034111960094    15.994914619570
         O           -1.246388476876     2.484503238491    -0.684566039906    15.994914619570
         O           -3.217943476876     1.522751238491     0.746483960094    15.994914619570
         O           -2.358442476876    -3.065184761509     0.096536960094    15.994914619570
         O            1.359116523124     2.248686238491    -0.074945039906    15.994914619570
         N            0.841990523124     0.046875238491     0.257539960094    14.003074004430
         N            3.055812523124     0.722155238491    -0.292130039906    14.003074004430
         N            4.715049523124    -0.835002761509    -0.570701039906    14.003074004430
         C           -1.290897476876     1.080082238491    -0.590480039906    12.000000000000
         C           -2.716584476876     0.656859238491    -0.255796039906    12.000000000000
         C           -0.500212476876     0.451482238491     0.567563460094    12.000000000000
         C           -2.530669476876    -0.715233761509     0.362652960094    12.000000000000
         C           -2.529757476876    -1.848740761509    -0.637693039906    12.000000000000
         C            1.218361523124    -1.259755761509     0.312870960094    12.000000000000
         C            1.754180523124     1.069087238491    -0.057806039906    12.000000000000
         C            2.509687523124    -1.607487761509     0.048591960094    12.000000000000
         C            3.410569523124    -0.549000761509    -0.257328039906    12.000000000000
         H           -0.914928476876     0.571869238491    -1.492125739906     1.007825032230
         H           -3.363995476876     0.644317238491    -1.144868039906     1.007825032230
         H           -0.441703476876     1.223532238491     1.405594960094     1.007825032230
         H           -3.283370476876    -0.907081761509     1.132379960094     1.007825032230
         H           -1.714721476876    -1.698652761509    -1.367867039906     1.007825032230
         H           -3.486974476876    -1.832351761509    -1.182538039906     1.007825032230
         H           -0.298938476876     2.714831238491    -0.523403039906     1.007825032230
         H           -2.848969476876     2.401395238491     0.510259960094     1.007825032230
         H            0.432897523124    -1.961784761509     0.570664960094     1.007825032230
         H           -2.435287476876    -3.796779761509    -0.541636039906     1.007825032230
         H            2.827698523124    -2.643745761509     0.075518960094     1.007825032230
         H            5.123766523124    -1.669208761509    -0.160817039906     1.007825032230
         H            5.318400523124    -0.018401761509    -0.566697039906     1.007825032230

  Basis Set: AUG-CC-PVTZ
    Blend: AUG-CC-PVTZ
  Basis Set: (AUG-CC-PVTZ AUX)
    Blend: AUG-CC-PVTZ-JKFIT
	 Reference Energy          =    -886.3693645626266289 [Eh]
	 Singles Energy            =      -0.0000000000000000 [Eh]
	 Same-Spin Energy          =      -0.9017266431646941 [Eh]
	 Opposite-Spin Energy      =      -2.7155203403249732 [Eh]
	 Correlation Energy        =      -3.6172469834896672 [Eh]
	 Total Energy              =    -889.9866115461162508 [Eh]

	 ================> DF-SCS-MP2 Energies <==================
	-----------------------------------------------------------
	 SCS Same-Spin Scale       =       0.3333333333333333 [-]
	 SCS Opposite-Spin Scale   =       1.2000000000000000 [-]
	 SCS Same-Spin Energy      =      -0.3005755477215647 [Eh]
	 SCS Opposite-Spin Energy  =      -3.2586244083899678 [Eh]
	 SCS Correlation Energy    =      -3.5591999561115326 [Eh]
	 SCS Total Energy          =    -889.9285645187381988 [Eh]
	-----------------------------------------------------------

  Dipole Moment: [D]
     X:     1.8854      Y:    -6.0069      Z:    -1.8828     Total:     6.5713

*** Psi4 exiting successfully. Buy a developer a beer!
