                               Psi4 1.3.2 release

  ==> Input File <==

--------------------------------------------------------------------------
#psi4
#
memory 32 gb

molecule  {
0 1
  O       -1.2452128    -0.6627481     1.0102003
  O       -1.2449750     2.4828510    -0.6861630
  O       -3.2165300     1.5210990     0.7448870
  O       -2.3570290    -3.0668370     0.0949400
  O        1.3605300     2.2470340    -0.0765420
  N        0.8434040     0.0452230     0.2559430
  N        3.0572260     0.7205030    -0.2937270
  N        4.7164630    -0.8366550    -0.5722980
  C       -1.2894840     1.0784300    -0.5920770
  C       -2.7151710     0.6552070    -0.2573930
  C       -0.5254080     0.4815200     0.6000940
  C       -2.5292560    -0.7168860     0.3610560
  C       -2.5283440    -1.8503930    -0.6392900
  C        1.2197750    -1.2614080     0.3112740
  C        1.7555940     1.0674350    -0.0594030
  C        2.5111010    -1.6091400     0.0469950
  C        3.4119830    -0.5506530    -0.2589250
  H       -0.9376060     0.5914040    -1.5148910
  H       -3.3625820     0.6426650    -1.1464650
  H       -0.4303920     1.2332679     1.3922346
  H       -3.2819570    -0.9087340     1.1307830
  H       -1.7133080    -1.7003050    -1.3694640
  H       -3.4855610    -1.8340040    -1.1841350
  H       -0.2975250     2.7131790    -0.5250000
  H       -2.8475560     2.3997430     0.5086630
  H        0.4343110    -1.9634370     0.5690680
  H       -2.4338740    -3.7984320    -0.5432330
  H        2.8291120    -2.6453980     0.0739220
  H        5.1251800    -1.6708610    -0.1624140
  H        5.3198140    -0.0200540    -0.5682940
units angstrom
no_reorient  #important for SAPT in psi4, default
symmetry c1  #important for SAPT in psi4, default
}

set PROPERTIES_ORIGIN ["COM"]
properties('MP2/aug-cc-pvtz', properties = ['dipole'])
--------------------------------------------------------------------------

    Molecular point group: c1
  Charge       = 0
  Multiplicity = 1
  Basis Set: AUG-CC-PVTZ
    Blend: AUG-CC-PVTZ
  Basis Set: (AUG-CC-PVTZ AUX)
    Blend: AUG-CC-PVTZ-JKFIT

    Orbital Energies [Eh]
    ---------------------

    Doubly Occupied:

       1A    -20.582057     2A    -20.581887     3A    -20.557866
       4A    -20.557190     5A    -20.522148     6A    -15.636873
       7A    -15.599815     8A    -15.553329     9A    -11.388297
      10A    -11.357807    11A    -11.342359    12A    -11.328305
      13A    -11.300365    14A    -11.296410    15A    -11.296299
      16A    -11.292759    17A    -11.248440    18A     -1.431298
      19A     -1.396914    20A     -1.380258    21A     -1.372745
      22A     -1.346367    23A     -1.306134    24A     -1.273936
      25A     -1.182300    26A     -1.082163    27A     -1.067085
      28A     -1.022025    29A     -0.935353    30A     -0.909596
      31A     -0.877208    32A     -0.832828    33A     -0.812057
      34A     -0.766725    35A     -0.752624    36A     -0.736530
      37A     -0.720213    38A     -0.702807    39A     -0.698508
      40A     -0.686171    41A     -0.672566    42A     -0.655694
      43A     -0.651367    44A     -0.638841    45A     -0.620472
      46A     -0.614566    47A     -0.606966    48A     -0.593748
      49A     -0.575710    50A     -0.571641    51A     -0.553881
      52A     -0.545163    53A     -0.537913    54A     -0.531958
      55A     -0.498056    56A     -0.477231    57A     -0.474021
      58A     -0.462285    59A     -0.460086    60A     -0.452795
      61A     -0.440415    62A     -0.433042    63A     -0.395153
      64A     -0.349972

  @DF-RHF Final Energy:  -886.37341713176181

   => Energetics <=

    Nuclear Repulsion Energy =           1324.1708749751819596
    One-Electron Energy =               -3845.9934047914375697
    Two-Electron Energy =                1635.4491126844939117
    Total Energy =                       -886.3734171317616983
  Basis Set: (AUG-CC-PVTZ AUX)
    Blend: AUG-CC-PVTZ-RI
    Molecular point group: c1

    Geometry (in Angstrom), charge = 0, multiplicity = 1:

       Center              X                  Y                   Z               Mass
    ------------   -----------------  -----------------  -----------------  -----------------
         O           -1.245443912959    -0.662132037832     1.011717375093    15.994914619570
         O           -1.245206112959     2.483467062168    -0.684645924907    15.994914619570
         O           -3.216761112959     1.521715062168     0.746404075093    15.994914619570
         O           -2.357260112959    -3.066220937832     0.096457075093    15.994914619570
         O            1.360298887041     2.247650062168    -0.075024924907    15.994914619570
         N            0.843172887041     0.045839062168     0.257460075093    14.003074004430
         N            3.056994887041     0.721119062168    -0.292209924907    14.003074004430
         N            4.716231887041    -0.836038937832    -0.570780924907    14.003074004430
         C           -1.289715112959     1.079046062168    -0.590559924907    12.000000000000
         C           -2.715402112959     0.655823062168    -0.255875924907    12.000000000000
         C           -0.525639112959     0.482136062168     0.601611075093    12.000000000000
         C           -2.529487112959    -0.716269937832     0.362573075093    12.000000000000
         C           -2.528575112959    -1.849776937832    -0.637772924907    12.000000000000
         C            1.219543887041    -1.260791937832     0.312791075093    12.000000000000
         C            1.755362887041     1.068051062168    -0.057885924907    12.000000000000
         C            2.510869887041    -1.608523937832     0.048512075093    12.000000000000
         C            3.411751887041    -0.550036937832    -0.257407924907    12.000000000000
         H           -0.937837112959     0.592020062168    -1.513373924907     1.007825032230
         H           -3.362813112959     0.643281062168    -1.144947924907     1.007825032230
         H           -0.430623112959     1.233883962168     1.393751675093     1.007825032230
         H           -3.282188112959    -0.908117937832     1.132300075093     1.007825032230
         H           -1.713539112959    -1.699688937832    -1.367946924907     1.007825032230
         H           -3.485792112959    -1.833387937832    -1.182617924907     1.007825032230
         H           -0.297756112959     2.713795062168    -0.523482924907     1.007825032230
         H           -2.847787112959     2.400359062168     0.510180075093     1.007825032230
         H            0.434079887041    -1.962820937832     0.570585075093     1.007825032230
         H           -2.434105112959    -3.797815937832    -0.541715924907     1.007825032230
         H            2.828880887041    -2.644781937832     0.075439075093     1.007825032230
         H            5.124948887041    -1.670244937832    -0.160896924907     1.007825032230
         H            5.319582887041    -0.019437937832    -0.566776924907     1.007825032230

  Basis Set: AUG-CC-PVTZ
    Blend: AUG-CC-PVTZ
  Basis Set: (AUG-CC-PVTZ AUX)
    Blend: AUG-CC-PVTZ-JKFIT
	 Reference Energy          =    -886.3734171317618120 [Eh]
	 Singles Energy            =      -0.0000000000000000 [Eh]
	 Same-Spin Energy          =      -0.9012751420349610 [Eh]
	 Opposite-Spin Energy      =      -2.7147939921989690 [Eh]
	 Correlation Energy        =      -3.6160691342339302 [Eh]
	 Total Energy              =    -889.9894862659957653 [Eh]

	 ================> DF-SCS-MP2 Energies <==================
	-----------------------------------------------------------
	 SCS Same-Spin Scale       =       0.3333333333333333 [-]
	 SCS Opposite-Spin Scale   =       1.2000000000000000 [-]
	 SCS Same-Spin Energy      =      -0.3004250473449870 [Eh]
	 SCS Opposite-Spin Energy  =      -3.2577527906387629 [Eh]
	 SCS Correlation Energy    =      -3.5581778379837496 [Eh]
	 SCS Total Energy          =    -889.9315949697455608 [Eh]
	-----------------------------------------------------------

  Dipole Moment: [D]
     X:     1.7185      Y:    -5.9291      Z:    -1.7846     Total:     6.4259

*** Psi4 exiting successfully. Buy a developer a beer!
