                               Psi4 1.3.2 release

  ==> Input File <==

--------------------------------------------------------------------------
#psi4
#
memory 32 gb

molecule  {
0 1
  O       -1.2481010    -0.6526680     1.0325150
  O       -1.2449750     2.4828510    -0.6861630
  O       -3.2165300     1.5210990     0.7448870
  O       -2.3570290    -3.0668370     0.0949400
  O        1.3605300     2.2470340    -0.0765420
  N        0.8323194     0.0420989     0.2588426
  N        3.0572260     0.7205030    -0.2937270
  N        4.7164630    -0.8366550    -0.5722980
  C       -1.2894840     1.0784300    -0.5920770
  C       -2.7151710     0.6552070    -0.2573930
  C       -0.5254080     0.4815200     0.6000940
  C       -2.5292560    -0.7168860     0.3610560
  C       -2.5283440    -1.8503930    -0.6392900
  C        1.2197750    -1.2614080     0.3112740
  C        1.7555940     1.0674350    -0.0594030
  C        2.5111010    -1.6091400     0.0469950
  C        3.4119830    -0.5506530    -0.2589250
  H       -0.9376060     0.5914040    -1.5148910
  H       -3.3625820     0.6426650    -1.1464650
  H       -0.4402900     1.2218800     1.4039980
  H       -3.2819570    -0.9087340     1.1307830
  H       -1.7133080    -1.7003050    -1.3694640
  H       -3.4855610    -1.8340040    -1.1841350
  H       -0.2975250     2.7131790    -0.5250000
  H       -2.8475560     2.3997430     0.5086630
  H        0.4281677    -1.9562656     0.5697059
  H       -2.4338740    -3.7984320    -0.5432330
  H        2.8291120    -2.6453980     0.0739220
  H        5.1251800    -1.6708610    -0.1624140
  H        5.3198140    -0.0200540    -0.5682940
units angstrom
no_reorient  #important for SAPT in psi4, default
symmetry c1  #important for SAPT in psi4, default
}

set PROPERTIES_ORIGIN ["COM"]
properties('MP2/aug-cc-pvtz', properties = ['dipole'])
--------------------------------------------------------------------------

    Molecular point group: c1
  Charge       = 0
  Multiplicity = 1
  Basis Set: AUG-CC-PVTZ
    Blend: AUG-CC-PVTZ
  Basis Set: (AUG-CC-PVTZ AUX)
    Blend: AUG-CC-PVTZ-JKFIT

    Orbital Energies [Eh]
    ---------------------

    Doubly Occupied:

       1A    -20.582082     2A    -20.581122     3A    -20.557664
       4A    -20.557246     5A    -20.523016     6A    -15.636789
       7A    -15.600201     8A    -15.553897     9A    -11.389495
      10A    -11.358324    11A    -11.340708    12A    -11.328539
      13A    -11.301014    14A    -11.296667    15A    -11.296408
      16A    -11.292792    17A    -11.248460    18A     -1.429468
      19A     -1.396034    20A     -1.380022    21A     -1.372735
      22A     -1.346232    23A     -1.306045    24A     -1.274117
      25A     -1.182914    26A     -1.082116    27A     -1.067554
      28A     -1.020874    29A     -0.936064    30A     -0.907946
      31A     -0.877452    32A     -0.832534    33A     -0.811759
      34A     -0.766990    35A     -0.752190    36A     -0.736307
      37A     -0.720444    38A     -0.702953    39A     -0.698395
      40A     -0.685500    41A     -0.672760    42A     -0.654379
      43A     -0.651600    44A     -0.638077    45A     -0.620537
      46A     -0.614002    47A     -0.606693    48A     -0.594913
      49A     -0.575636    50A     -0.569666    51A     -0.554177
      52A     -0.545789    53A     -0.537543    54A     -0.531666
      55A     -0.498518    56A     -0.477373    57A     -0.474355
      58A     -0.462267    59A     -0.460228    60A     -0.452740
      61A     -0.440669    62A     -0.433309    63A     -0.395513
      64A     -0.349633

  @DF-RHF Final Energy:  -886.37310232637549

   => Energetics <=

    Nuclear Repulsion Energy =           1323.7698705613152015
    One-Electron Energy =               -3845.1997256709901194
    Two-Electron Energy =                1635.0567527832993164
    Total Energy =                       -886.3731023263756015
  Basis Set: (AUG-CC-PVTZ AUX)
    Blend: AUG-CC-PVTZ-RI
    Molecular point group: c1

    Geometry (in Angstrom), charge = 0, multiplicity = 1:

       Center              X                  Y                   Z               Mass
    ------------   -----------------  -----------------  -----------------  -----------------
         O           -1.247437029576    -0.652517756779     1.032345329727    15.994914619570
         O           -1.244311029576     2.483001243221    -0.686332670273    15.994914619570
         O           -3.215866029576     1.521249243221     0.744717329727    15.994914619570
         O           -2.356365029576    -3.066686756779     0.094770329727    15.994914619570
         O            1.361193970424     2.247184243221    -0.076711670273    15.994914619570
         N            0.832983370424     0.042249143221     0.258672929727    14.003074004430
         N            3.057889970424     0.720653243221    -0.293896670273    14.003074004430
         N            4.717126970424    -0.836504756779    -0.572467670273    14.003074004430
         C           -1.288820029576     1.078580243221    -0.592246670273    12.000000000000
         C           -2.714507029576     0.655357243221    -0.257562670273    12.000000000000
         C           -0.524744029576     0.481670243221     0.599924329727    12.000000000000
         C           -2.528592029576    -0.716735756779     0.360886329727    12.000000000000
         C           -2.527680029576    -1.850242756779    -0.639459670273    12.000000000000
         C            1.220438970424    -1.261257756779     0.311104329727    12.000000000000
         C            1.756257970424     1.067585243221    -0.059572670273    12.000000000000
         C            2.511764970424    -1.608989756779     0.046825329727    12.000000000000
         C            3.412646970424    -0.550502756779    -0.259094670273    12.000000000000
         H           -0.936942029576     0.591554243221    -1.515060670273     1.007825032230
         H           -3.361918029576     0.642815243221    -1.146634670273     1.007825032230
         H           -0.439626029576     1.222030243221     1.403828329727     1.007825032230
         H           -3.281293029576    -0.908583756779     1.130613329727     1.007825032230
         H           -1.712644029576    -1.700154756779    -1.369633670273     1.007825032230
         H           -3.484897029576    -1.833853756779    -1.184304670273     1.007825032230
         H           -0.296861029576     2.713329243221    -0.525169670273     1.007825032230
         H           -2.846892029576     2.399893243221     0.508493329727     1.007825032230
         H            0.428831670424    -1.956115356779     0.569536229727     1.007825032230
         H           -2.433210029576    -3.798281756779    -0.543402670273     1.007825032230
         H            2.829775970424    -2.645247756779     0.073752329727     1.007825032230
         H            5.125843970424    -1.670710756779    -0.162583670273     1.007825032230
         H            5.320477970424    -0.019903756779    -0.568463670273     1.007825032230

  Basis Set: AUG-CC-PVTZ
    Blend: AUG-CC-PVTZ
  Basis Set: (AUG-CC-PVTZ AUX)
    Blend: AUG-CC-PVTZ-JKFIT
	 Reference Energy          =    -886.3731023263754878 [Eh]
	 Singles Energy            =      -0.0000000000000000 [Eh]
	 Same-Spin Energy          =      -0.9012981275121275 [Eh]
	 Opposite-Spin Energy      =      -2.7150538799373756 [Eh]
	 Correlation Energy        =      -3.6163520074495032 [Eh]
	 Total Energy              =    -889.9894543338249377 [Eh]

	 ================> DF-SCS-MP2 Energies <==================
	-----------------------------------------------------------
	 SCS Same-Spin Scale       =       0.3333333333333333 [-]
	 SCS Opposite-Spin Scale   =       1.2000000000000000 [-]
	 SCS Same-Spin Energy      =      -0.3004327091707091 [Eh]
	 SCS Opposite-Spin Energy  =      -3.2580646559248505 [Eh]
	 SCS Correlation Energy    =      -3.5584973650955596 [Eh]
	 SCS Total Energy          =    -889.9315996914710922 [Eh]
	-----------------------------------------------------------

  Dipole Moment: [D]
     X:     1.7384      Y:    -5.9145      Z:    -1.8310     Total:     6.4309

*** Psi4 exiting successfully. Buy a developer a beer!
