                               Psi4 1.3.2 release

  ==> Input File <==

--------------------------------------------------------------------------
#psi4
#
memory 32 gb

molecule  {
0 1
  O       -1.2481010    -0.6526680     1.0325150
  O       -1.2449750     2.4828510    -0.6861630
  O       -3.2165300     1.5210990     0.7448870
  O       -2.3570290    -3.0668370     0.0949400
  O        1.3605300     2.2470340    -0.0765420
  N        0.8799011     0.0126469     0.2521016
  N        3.0456173     0.6748912    -0.2858198
  N        4.7164630    -0.8366550    -0.5722980
  C       -1.2894840     1.0784300    -0.5920770
  C       -2.7151710     0.6552070    -0.2573930
  C       -0.5254080     0.4815200     0.6000940
  C       -2.5292560    -0.7168860     0.3610560
  C       -2.5283440    -1.8503930    -0.6392900
  C        1.2197750    -1.2614080     0.3112740
  C        1.7555940     1.0674350    -0.0594030
  C        2.5111010    -1.6091400     0.0469950
  C        3.4119830    -0.5506530    -0.2589250
  H       -0.9376060     0.5914040    -1.5148910
  H       -3.3625820     0.6426650    -1.1464650
  H       -0.4402900     1.2218800     1.4039980
  H       -3.2819570    -0.9087340     1.1307830
  H       -1.7133080    -1.7003050    -1.3694640
  H       -3.4855610    -1.8340040    -1.1841350
  H       -0.2975250     2.7131790    -0.5250000
  H       -2.8475560     2.3997430     0.5086630
  H        0.4343110    -1.9634370     0.5690680
  H       -2.4338740    -3.7984320    -0.5432330
  H        2.8291120    -2.6453980     0.0739220
  H        5.1251800    -1.6708610    -0.1624140
  H        5.3198140    -0.0200540    -0.5682940
units angstrom
no_reorient  #important for SAPT in psi4, default
symmetry c1  #important for SAPT in psi4, default
}

set PROPERTIES_ORIGIN ["COM"]
properties('MP2/aug-cc-pvtz', properties = ['dipole'])
--------------------------------------------------------------------------

    Molecular point group: c1
  Charge       = 0
  Multiplicity = 1
  Basis Set: AUG-CC-PVTZ
    Blend: AUG-CC-PVTZ
  Basis Set: (AUG-CC-PVTZ AUX)
    Blend: AUG-CC-PVTZ-JKFIT

    Orbital Energies [Eh]
    ---------------------

    Doubly Occupied:

       1A    -20.583122     2A    -20.582589     3A    -20.559969
       4A    -20.559576     5A    -20.529543     6A    -15.636961
       7A    -15.593427     8A    -15.546793     9A    -11.393430
      10A    -11.348309    11A    -11.346433    12A    -11.320889
      13A    -11.301868    14A    -11.299720    15A    -11.298124
      16A    -11.294974    17A    -11.240911    18A     -1.430286
      19A     -1.400296    20A     -1.382005    21A     -1.373568
      22A     -1.348580    23A     -1.315514    24A     -1.277077
      25A     -1.184409    26A     -1.077641    27A     -1.069160
      28A     -1.022760    29A     -0.934696    30A     -0.913376
      31A     -0.881741    32A     -0.832127    33A     -0.812715
      34A     -0.766050    35A     -0.755034    36A     -0.737711
      37A     -0.719661    38A     -0.702909    39A     -0.699733
      40A     -0.684753    41A     -0.671769    42A     -0.657587
      43A     -0.652217    44A     -0.640331    45A     -0.621922
      46A     -0.617402    47A     -0.607194    48A     -0.594333
      49A     -0.576176    50A     -0.570808    51A     -0.554511
      52A     -0.546034    53A     -0.539017    54A     -0.532735
      55A     -0.503814    56A     -0.478922    57A     -0.476244
      58A     -0.466992    59A     -0.461815    60A     -0.454840
      61A     -0.441347    62A     -0.425799    63A     -0.398434
      64A     -0.345655

  @DF-RHF Final Energy:  -886.36914731171305

   => Energetics <=

    Nuclear Repulsion Energy =           1324.6358768641794086
    One-Electron Energy =               -3846.8213761995734785
    Two-Electron Energy =                1635.8163520236810200
    Total Energy =                       -886.3691473117130499
  Basis Set: (AUG-CC-PVTZ AUX)
    Blend: AUG-CC-PVTZ-RI
    Molecular point group: c1

    Geometry (in Angstrom), charge = 0, multiplicity = 1:

       Center              X                  Y                   Z               Mass
    ------------   -----------------  -----------------  -----------------  -----------------
         O           -1.249534743794    -0.648163933233     1.032280794854    15.994914619570
         O           -1.246408743794     2.487355066767    -0.686397205146    15.994914619570
         O           -3.217963743794     1.525603066767     0.744652794854    15.994914619570
         O           -2.358462743794    -3.062332933233     0.094705794854    15.994914619570
         O            1.359096256206     2.251538066767    -0.076776205146    15.994914619570
         N            0.878467356206     0.017150966767     0.251867394854    14.003074004430
         N            3.044183556206     0.679395266767    -0.286054005146    14.003074004430
         N            4.715029256206    -0.832150933233    -0.572532205146    14.003074004430
         C           -1.290917743794     1.082934066767    -0.592311205146    12.000000000000
         C           -2.716604743794     0.659711066767    -0.257627205146    12.000000000000
         C           -0.526841743794     0.486024066767     0.599859794854    12.000000000000
         C           -2.530689743794    -0.712381933233     0.360821794854    12.000000000000
         C           -2.529777743794    -1.845888933233    -0.639524205146    12.000000000000
         C            1.218341256206    -1.256903933233     0.311039794854    12.000000000000
         C            1.754160256206     1.071939066767    -0.059637205146    12.000000000000
         C            2.509667256206    -1.604635933233     0.046760794854    12.000000000000
         C            3.410549256206    -0.546148933233    -0.259159205146    12.000000000000
         H           -0.939039743794     0.595908066767    -1.515125205146     1.007825032230
         H           -3.364015743794     0.647169066767    -1.146699205146     1.007825032230
         H           -0.441723743794     1.226384066767     1.403763794854     1.007825032230
         H           -3.283390743794    -0.904229933233     1.130548794854     1.007825032230
         H           -1.714741743794    -1.695800933233    -1.369698205146     1.007825032230
         H           -3.486994743794    -1.829499933233    -1.184369205146     1.007825032230
         H           -0.298958743794     2.717683066767    -0.525234205146     1.007825032230
         H           -2.848989743794     2.404247066767     0.508428794854     1.007825032230
         H            0.432877256206    -1.958932933233     0.568833794854     1.007825032230
         H           -2.435307743794    -3.793927933233    -0.543467205146     1.007825032230
         H            2.827678256206    -2.640893933233     0.073687794854     1.007825032230
         H            5.123746256206    -1.666356933233    -0.162648205146     1.007825032230
         H            5.318380256206    -0.015549933233    -0.568528205146     1.007825032230

  Basis Set: AUG-CC-PVTZ
    Blend: AUG-CC-PVTZ
  Basis Set: (AUG-CC-PVTZ AUX)
    Blend: AUG-CC-PVTZ-JKFIT
	 Reference Energy          =    -886.3691473117130499 [Eh]
	 Singles Energy            =      -0.0000000000000000 [Eh]
	 Same-Spin Energy          =      -0.9015674053268102 [Eh]
	 Opposite-Spin Energy      =      -2.7145751390753246 [Eh]
	 Correlation Energy        =      -3.6161425444021349 [Eh]
	 Total Energy              =    -889.9852898561151733 [Eh]

	 ================> DF-SCS-MP2 Energies <==================
	-----------------------------------------------------------
	 SCS Same-Spin Scale       =       0.3333333333333333 [-]
	 SCS Opposite-Spin Scale   =       1.2000000000000000 [-]
	 SCS Same-Spin Energy      =      -0.3005224684422700 [Eh]
	 SCS Opposite-Spin Energy  =      -3.2574901668903893 [Eh]
	 SCS Correlation Energy    =      -3.5580126353326591 [Eh]
	 SCS Total Energy          =    -889.9271599470457659 [Eh]
	-----------------------------------------------------------

  Dipole Moment: [D]
     X:     1.3874      Y:    -5.6517      Z:    -1.7987     Total:     6.0912

*** Psi4 exiting successfully. Buy a developer a beer!
