                               Psi4 1.3.2 release

  ==> Input File <==

--------------------------------------------------------------------------
#psi4
#
memory 32 gb

molecule  {
0 1
  O       -1.2481010    -0.6526680     1.0325150
  O       -1.2449750     2.4828510    -0.6861630
  O       -3.2165300     1.5210990     0.7448870
  O       -2.3570290    -3.0668370     0.0949400
  O        1.3605300     2.2470340    -0.0765420
  N        0.8434040     0.0452230     0.2559430
  N        3.0572260     0.7205030    -0.2937270
  N        4.7164630    -0.8366550    -0.5722980
  C       -1.2894840     1.0784300    -0.5920770
  C       -2.7151710     0.6552070    -0.2573930
  C       -0.5254080     0.4815200     0.6000940
  C       -2.5292560    -0.7168860     0.3610560
  C       -2.5283440    -1.8503930    -0.6392900
  C        1.2197750    -1.2614080     0.3112740
  C        1.7555940     1.0674350    -0.0594030
  C        2.5111010    -1.6091400     0.0469950
  C        3.4482934    -0.5841792    -0.2639645
  H       -0.9376060     0.5914040    -1.5148910
  H       -3.3625820     0.6426650    -1.1464650
  H       -0.4402900     1.2218800     1.4039980
  H       -3.2819570    -0.9087340     1.1307830
  H       -1.7133080    -1.7003050    -1.3694640
  H       -3.4855610    -1.8340040    -1.1841350
  H       -0.2975250     2.7131790    -0.5250000
  H       -2.8475560     2.3997430     0.5086630
  H        0.4343110    -1.9634370     0.5690680
  H       -2.4338740    -3.7984320    -0.5432330
  H        2.8641196    -2.6341981     0.0648984
  H        5.1251800    -1.6708610    -0.1624140
  H        5.3198140    -0.0200540    -0.5682940
units angstrom
no_reorient  #important for SAPT in psi4, default
symmetry c1  #important for SAPT in psi4, default
}

set PROPERTIES_ORIGIN ["COM"]
properties('MP2/aug-cc-pvtz', properties = ['dipole'])
--------------------------------------------------------------------------

    Molecular point group: c1
  Charge       = 0
  Multiplicity = 1
  Basis Set: AUG-CC-PVTZ
    Blend: AUG-CC-PVTZ
  Basis Set: (AUG-CC-PVTZ AUX)
    Blend: AUG-CC-PVTZ-JKFIT

    Orbital Energies [Eh]
    ---------------------

    Doubly Occupied:

       1A    -20.581671     2A    -20.580458     3A    -20.556740
       4A    -20.555531     5A    -20.516959     6A    -15.634924
       7A    -15.608689     8A    -15.548897     9A    -11.383321
      10A    -11.359669    11A    -11.339930    12A    -11.329895
      13A    -11.300463    14A    -11.295983    15A    -11.295222
      16A    -11.291872    17A    -11.248506    18A     -1.427635
      19A     -1.391958    20A     -1.378862    21A     -1.371909
      22A     -1.344822    23A     -1.307820    24A     -1.279349
      25A     -1.176571    26A     -1.080050    27A     -1.066669
      28A     -1.020409    29A     -0.935351    30A     -0.908349
      31A     -0.874492    32A     -0.831789    33A     -0.811081
      34A     -0.770365    35A     -0.750622    36A     -0.735270
      37A     -0.728225    38A     -0.703360    39A     -0.697597
      40A     -0.686735    41A     -0.673978    42A     -0.652513
      43A     -0.648877    44A     -0.635004    45A     -0.620911
      46A     -0.612883    47A     -0.607760    48A     -0.590880
      49A     -0.574816    50A     -0.570121    51A     -0.554199
      52A     -0.546698    53A     -0.537372    54A     -0.532830
      55A     -0.495966    56A     -0.476628    57A     -0.473158
      58A     -0.460770    59A     -0.454185    60A     -0.451446
      61A     -0.439036    62A     -0.427079    63A     -0.388688
      64A     -0.348697

  @DF-RHF Final Energy:  -886.36875391731860

   => Energetics <=

    Nuclear Repulsion Energy =           1322.9950386149266706
    One-Electron Energy =               -3843.7625607473905802
    Two-Electron Energy =                1634.3987682151453100
    Total Energy =                       -886.3687539173185996
  Basis Set: (AUG-CC-PVTZ AUX)
    Blend: AUG-CC-PVTZ-RI
    Molecular point group: c1

    Geometry (in Angstrom), charge = 0, multiplicity = 1:

       Center              X                  Y                   Z               Mass
    ------------   -----------------  -----------------  -----------------  -----------------
         O           -1.250038649696    -0.651059391951     1.032801195691    15.994914619570
         O           -1.246912649696     2.484459608049    -0.685876804309    15.994914619570
         O           -3.218467649696     1.522707608049     0.745173195691    15.994914619570
         O           -2.358966649696    -3.065228391951     0.095226195691    15.994914619570
         O            1.358592350304     2.248642608049    -0.076255804309    15.994914619570
         N            0.841466350304     0.046831608049     0.256229195691    14.003074004430
         N            3.055288350304     0.722111608049    -0.293440804309    14.003074004430
         N            4.714525350304    -0.835046391951    -0.572011804309    14.003074004430
         C           -1.291421649696     1.080038608049    -0.591790804309    12.000000000000
         C           -2.717108649696     0.656815608049    -0.257106804309    12.000000000000
         C           -0.527345649696     0.483128608049     0.600380195691    12.000000000000
         C           -2.531193649696    -0.715277391951     0.361342195691    12.000000000000
         C           -2.530281649696    -1.848784391951    -0.639003804309    12.000000000000
         C            1.217837350304    -1.259799391951     0.311560195691    12.000000000000
         C            1.753656350304     1.069043608049    -0.059116804309    12.000000000000
         C            2.509163350304    -1.607531391951     0.047281195691    12.000000000000
         C            3.446355750304    -0.582570591951    -0.263678304309    12.000000000000
         H           -0.939543649696     0.593012608049    -1.514604804309     1.007825032230
         H           -3.364519649696     0.644273608049    -1.146178804309     1.007825032230
         H           -0.442227649696     1.223488608049     1.404284195691     1.007825032230
         H           -3.283894649696    -0.907125391951     1.131069195691     1.007825032230
         H           -1.715245649696    -1.698696391951    -1.369177804309     1.007825032230
         H           -3.487498649696    -1.832395391951    -1.183848804309     1.007825032230
         H           -0.299462649696     2.714787608049    -0.524713804309     1.007825032230
         H           -2.849493649696     2.401351608049     0.508949195691     1.007825032230
         H            0.432373350304    -1.961828391951     0.569354195691     1.007825032230
         H           -2.435811649696    -3.796823391951    -0.542946804309     1.007825032230
         H            2.862181950304    -2.632589491951     0.065184595691     1.007825032230
         H            5.123242350304    -1.669252391951    -0.162127804309     1.007825032230
         H            5.317876350304    -0.018445391951    -0.568007804309     1.007825032230

  Basis Set: AUG-CC-PVTZ
    Blend: AUG-CC-PVTZ
  Basis Set: (AUG-CC-PVTZ AUX)
    Blend: AUG-CC-PVTZ-JKFIT
	 Reference Energy          =    -886.3687539173185996 [Eh]
	 Singles Energy            =      -0.0000000000000000 [Eh]
	 Same-Spin Energy          =      -0.9016980861392780 [Eh]
	 Opposite-Spin Energy      =      -2.7154481681818097 [Eh]
	 Correlation Energy        =      -3.6171462543210877 [Eh]
	 Total Energy              =    -889.9859001716397415 [Eh]

	 ================> DF-SCS-MP2 Energies <==================
	-----------------------------------------------------------
	 SCS Same-Spin Scale       =       0.3333333333333333 [-]
	 SCS Opposite-Spin Scale   =       1.2000000000000000 [-]
	 SCS Same-Spin Energy      =      -0.3005660287130927 [Eh]
	 SCS Opposite-Spin Energy  =      -3.2585378018181714 [Eh]
	 SCS Correlation Energy    =      -3.5591038305312641 [Eh]
	 SCS Total Energy          =    -889.9278577478498846 [Eh]
	-----------------------------------------------------------

  Dipole Moment: [D]
     X:     2.1157      Y:    -6.1643      Z:    -1.8934     Total:     6.7867

*** Psi4 exiting successfully. Buy a developer a beer!
