                               Psi4 1.3.2 release

  ==> Input File <==

--------------------------------------------------------------------------
#psi4
#
memory 32 gb

molecule  {
0 1
  O       -1.2481010    -0.6526680     1.0325150
  O       -1.2449750     2.4828510    -0.6861630
  O       -3.2165300     1.5210990     0.7448870
  O       -2.3570290    -3.0668370     0.0949400
  O        1.3605300     2.2470340    -0.0765420
  N        0.8212642     0.0388756     0.2617463
  N        3.0572260     0.7205030    -0.2937270
  N        4.7164630    -0.8366550    -0.5722980
  C       -1.2894840     1.0784300    -0.5920770
  C       -2.7151710     0.6552070    -0.2573930
  C       -0.5254080     0.4815200     0.6000940
  C       -2.5292560    -0.7168860     0.3610560
  C       -2.5283440    -1.8503930    -0.6392900
  C        1.2197750    -1.2614080     0.3112740
  C        1.7555940     1.0674350    -0.0594030
  C        2.5111010    -1.6091400     0.0469950
  C        3.4119830    -0.5506530    -0.2589250
  H       -0.9376060     0.5914040    -1.5148910
  H       -3.3625820     0.6426650    -1.1464650
  H       -0.4402900     1.2218800     1.4039980
  H       -3.2819570    -0.9087340     1.1307830
  H       -1.7133080    -1.7003050    -1.3694640
  H       -3.4855610    -1.8340040    -1.1841350
  H       -0.2975250     2.7131790    -0.5250000
  H       -2.8475560     2.3997430     0.5086630
  H        0.4220847    -1.9490412     0.5703241
  H       -2.4338740    -3.7984320    -0.5432330
  H        2.8291120    -2.6453980     0.0739220
  H        5.1251800    -1.6708610    -0.1624140
  H        5.3198140    -0.0200540    -0.5682940
units angstrom
no_reorient  #important for SAPT in psi4, default
symmetry c1  #important for SAPT in psi4, default
}

set PROPERTIES_ORIGIN ["COM"]
properties('MP2/aug-cc-pvtz', properties = ['dipole'])
--------------------------------------------------------------------------

    Molecular point group: c1
  Charge       = 0
  Multiplicity = 1
  Basis Set: AUG-CC-PVTZ
    Blend: AUG-CC-PVTZ
  Basis Set: (AUG-CC-PVTZ AUX)
    Blend: AUG-CC-PVTZ-JKFIT

    Orbital Energies [Eh]
    ---------------------

    Doubly Occupied:

       1A    -20.581915     2A    -20.580636     3A    -20.557544
       4A    -20.557253     5A    -20.524031     6A    -15.636618
       7A    -15.600537     8A    -15.554438     9A    -11.390696
      10A    -11.358773    11A    -11.339855    12A    -11.328553
      13A    -11.300841    14A    -11.296407    15A    -11.296170
      16A    -11.292623    17A    -11.248360    18A     -1.429600
      19A     -1.395706    20A     -1.379932    21A     -1.372658
      22A     -1.346167    23A     -1.306030    24A     -1.274439
      25A     -1.183560    26A     -1.082312    27A     -1.067375
      28A     -1.020384    29A     -0.936702    30A     -0.906398
      31A     -0.877609    32A     -0.832729    33A     -0.811687
      34A     -0.767062    35A     -0.751982    36A     -0.736438
      37A     -0.720625    38A     -0.702945    39A     -0.698327
      40A     -0.685337    41A     -0.672707    42A     -0.654227
      43A     -0.651639    44A     -0.637712    45A     -0.620435
      46A     -0.613561    47A     -0.606708    48A     -0.595843
      49A     -0.575496    50A     -0.569587    51A     -0.554332
      52A     -0.545869    53A     -0.537544    54A     -0.531519
      55A     -0.498918    56A     -0.477243    57A     -0.474270
      58A     -0.462435    59A     -0.460302    60A     -0.452646
      61A     -0.440640    62A     -0.433413    63A     -0.395808
      64A     -0.349250

  @DF-RHF Final Energy:  -886.37235354856193

   => Energetics <=

    Nuclear Repulsion Energy =           1323.8322552857389383
    One-Electron Energy =               -3845.3224981560742890
    Two-Electron Energy =                1635.1178893217734185
    Total Energy =                       -886.3723535485619323
  Basis Set: (AUG-CC-PVTZ AUX)
    Blend: AUG-CC-PVTZ-RI
    Molecular point group: c1

    Geometry (in Angstrom), charge = 0, multiplicity = 1:

       Center              X                  Y                   Z               Mass
    ------------   -----------------  -----------------  -----------------  -----------------
         O           -1.246774968820    -0.652362028962     1.032175497467    15.994914619570
         O           -1.243648968820     2.483156971038    -0.686502502533    15.994914619570
         O           -3.215203968820     1.521404971038     0.744547497467    15.994914619570
         O           -2.355702968820    -3.066531028962     0.094600497467    15.994914619570
         O            1.361856031180     2.247339971038    -0.076881502533    15.994914619570
         N            0.822590231180     0.039181571038     0.261406797467    14.003074004430
         N            3.058552031180     0.720808971038    -0.294066502533    14.003074004430
         N            4.717789031180    -0.836349028962    -0.572637502533    14.003074004430
         C           -1.288157968820     1.078735971038    -0.592416502533    12.000000000000
         C           -2.713844968820     0.655512971038    -0.257732502533    12.000000000000
         C           -0.524081968820     0.481825971038     0.599754497467    12.000000000000
         C           -2.527929968820    -0.716580028962     0.360716497467    12.000000000000
         C           -2.527017968820    -1.850087028962    -0.639629502533    12.000000000000
         C            1.221101031180    -1.261102028962     0.310934497467    12.000000000000
         C            1.756920031180     1.067740971038    -0.059742502533    12.000000000000
         C            2.512427031180    -1.608834028962     0.046655497467    12.000000000000
         C            3.413309031180    -0.550347028962    -0.259264502533    12.000000000000
         H           -0.936279968820     0.591709971038    -1.515230502533     1.007825032230
         H           -3.361255968820     0.642970971038    -1.146804502533     1.007825032230
         H           -0.438963968820     1.222185971038     1.403658497467     1.007825032230
         H           -3.280630968820    -0.908428028962     1.130443497467     1.007825032230
         H           -1.711981968820    -1.699999028962    -1.369803502533     1.007825032230
         H           -3.484234968820    -1.833698028962    -1.184474502533     1.007825032230
         H           -0.296198968820     2.713484971038    -0.525339502533     1.007825032230
         H           -2.846229968820     2.400048971038     0.508323497467     1.007825032230
         H            0.423410731180    -1.948735228962     0.569984597467     1.007825032230
         H           -2.432547968820    -3.798126028962    -0.543572502533     1.007825032230
         H            2.830438031180    -2.645092028962     0.073582497467     1.007825032230
         H            5.126506031180    -1.670555028962    -0.162753502533     1.007825032230
         H            5.321140031180    -0.019748028962    -0.568633502533     1.007825032230

  Basis Set: AUG-CC-PVTZ
    Blend: AUG-CC-PVTZ
  Basis Set: (AUG-CC-PVTZ AUX)
    Blend: AUG-CC-PVTZ-JKFIT
	 Reference Energy          =    -886.3723535485619323 [Eh]
	 Singles Energy            =      -0.0000000000000000 [Eh]
	 Same-Spin Energy          =      -0.9013735676473498 [Eh]
	 Opposite-Spin Energy      =      -2.7152043499174114 [Eh]
	 Correlation Energy        =      -3.6165779175647614 [Eh]
	 Total Energy              =    -889.9889314661267008 [Eh]

	 ================> DF-SCS-MP2 Energies <==================
	-----------------------------------------------------------
	 SCS Same-Spin Scale       =       0.3333333333333333 [-]
	 SCS Opposite-Spin Scale   =       1.2000000000000000 [-]
	 SCS Same-Spin Energy      =      -0.3004578558824499 [Eh]
	 SCS Opposite-Spin Energy  =      -3.2582452199008936 [Eh]
	 SCS Correlation Energy    =      -3.5587030757833436 [Eh]
	 SCS Total Energy          =    -889.9310566243452740 [Eh]
	-----------------------------------------------------------

  Dipole Moment: [D]
     X:     1.7665      Y:    -5.8783      Z:    -1.8393     Total:     6.4077

*** Psi4 exiting successfully. Buy a developer a beer!
