                               Psi4 1.3.2 release

  ==> Input File <==

--------------------------------------------------------------------------
#psi4
#
memory 32 gb

molecule  {
0 1
  O       -1.2481010    -0.6526680     1.0325150
  O       -1.2449750     2.4828510    -0.6861630
  O       -3.2165300     1.5210990     0.7448870
  O       -2.3570290    -3.0668370     0.0949400
  O        1.3605300     2.2470340    -0.0765420
  N        0.8434040     0.0452230     0.2559430
  N        3.0572260     0.7205030    -0.2937270
  N        4.7164630    -0.8366550    -0.5722980
  C       -1.2894840     1.0784300    -0.5920770
  C       -2.7151710     0.6552070    -0.2573930
  C       -0.5254080     0.4815200     0.6000940
  C       -2.5292560    -0.7168860     0.3610560
  C       -2.5283440    -1.8503930    -0.6392900
  C        1.2197750    -1.2614080     0.3112740
  C        1.7555940     1.0674350    -0.0594030
  C        2.5111010    -1.6091400     0.0469950
  C        3.4119830    -0.5506530    -0.2589250
  H       -0.9376060     0.5914040    -1.5148910
  H       -3.3625820     0.6426650    -1.1464650
  H       -0.4402900     1.2218800     1.4039980
  H       -3.2819570    -0.9087340     1.1307830
  H       -1.7133080    -1.7003050    -1.3694640
  H       -3.4855610    -1.8340040    -1.1841350
  H       -0.2975250     2.7131790    -0.5250000
  H       -2.8851368     2.3102511     0.5327230
  H        0.4343110    -1.9634370     0.5690680
  H       -2.4338740    -3.7984320    -0.5432330
  H        2.8291120    -2.6453980     0.0739220
  H        5.1251800    -1.6708610    -0.1624140
  H        5.3198140    -0.0200540    -0.5682940
units angstrom
no_reorient  #important for SAPT in psi4, default
symmetry c1  #important for SAPT in psi4, default
}

set PROPERTIES_ORIGIN ["COM"]
properties('MP2/aug-cc-pvtz', properties = ['dipole'])
--------------------------------------------------------------------------

    Molecular point group: c1
  Charge       = 0
  Multiplicity = 1
  Basis Set: AUG-CC-PVTZ
    Blend: AUG-CC-PVTZ
  Basis Set: (AUG-CC-PVTZ AUX)
    Blend: AUG-CC-PVTZ-JKFIT

    Orbital Energies [Eh]
    ---------------------

    Doubly Occupied:

       1A    -20.582697     2A    -20.582147     3A    -20.555356
       4A    -20.551676     5A    -20.521789     6A    -15.636997
       7A    -15.599859     8A    -15.553316     9A    -11.388169
      10A    -11.357865    11A    -11.341808    12A    -11.328619
      13A    -11.301727    14A    -11.297796    15A    -11.296994
      16A    -11.294652    17A    -11.248627    18A     -1.431688
      19A     -1.398898    20A     -1.390994    21A     -1.374118
      22A     -1.354995    23A     -1.306037    24A     -1.273917
      25A     -1.182257    26A     -1.082056    27A     -1.071928
      28A     -1.021980    29A     -0.937558    30A     -0.909762
      31A     -0.879158    32A     -0.835014    33A     -0.814288
      34A     -0.767191    35A     -0.752640    36A     -0.736149
      37A     -0.720671    38A     -0.713376    39A     -0.700940
      40A     -0.685797    41A     -0.677803    42A     -0.654717
      43A     -0.652537    44A     -0.639016    45A     -0.620793
      46A     -0.615248    47A     -0.608256    48A     -0.593756
      49A     -0.577444    50A     -0.571818    51A     -0.554960
      52A     -0.547675    53A     -0.540289    54A     -0.532450
      55A     -0.499347    56A     -0.478566    57A     -0.475518
      58A     -0.463735    59A     -0.460514    60A     -0.453606
      61A     -0.441632    62A     -0.433170    63A     -0.395237
      64A     -0.350012

  @DF-RHF Final Energy:  -886.36978681477922

   => Energetics <=

    Nuclear Repulsion Energy =           1324.3081795042946851
    One-Electron Energy =               -3846.1167272025504644
    Two-Electron Energy =                1635.4387608834767889
    Total Energy =                       -886.3697868147792178
  Basis Set: (AUG-CC-PVTZ AUX)
    Blend: AUG-CC-PVTZ-RI
    Molecular point group: c1

    Geometry (in Angstrom), charge = 0, multiplicity = 1:

       Center              X                  Y                   Z               Mass
    ------------   -----------------  -----------------  -----------------  -----------------
         O           -1.247945225105    -0.652296959218     1.032415255467    15.994914619570
         O           -1.244819225105     2.483222040782    -0.686262744533    15.994914619570
         O           -3.216374225105     1.521470040782     0.744787255467    15.994914619570
         O           -2.356873225105    -3.066465959218     0.094840255467    15.994914619570
         O            1.360685774895     2.247405040782    -0.076641744533    15.994914619570
         N            0.843559774895     0.045594040782     0.255843255467    14.003074004430
         N            3.057381774895     0.720874040782    -0.293826744533    14.003074004430
         N            4.716618774895    -0.836283959218    -0.572397744533    14.003074004430
         C           -1.289328225105     1.078801040782    -0.592176744533    12.000000000000
         C           -2.715015225105     0.655578040782    -0.257492744533    12.000000000000
         C           -0.525252225105     0.481891040782     0.599994255467    12.000000000000
         C           -2.529100225105    -0.716514959218     0.360956255467    12.000000000000
         C           -2.528188225105    -1.850021959218    -0.639389744533    12.000000000000
         C            1.219930774895    -1.261036959218     0.311174255467    12.000000000000
         C            1.755749774895     1.067806040782    -0.059502744533    12.000000000000
         C            2.511256774895    -1.608768959218     0.046895255467    12.000000000000
         C            3.412138774895    -0.550281959218    -0.259024744533    12.000000000000
         H           -0.937450225105     0.591775040782    -1.514990744533     1.007825032230
         H           -3.362426225105     0.643036040782    -1.146564744533     1.007825032230
         H           -0.440134225105     1.222251040782     1.403898255467     1.007825032230
         H           -3.281801225105    -0.908362959218     1.130683255467     1.007825032230
         H           -1.713152225105    -1.699933959218    -1.369563744533     1.007825032230
         H           -3.485405225105    -1.833632959218    -1.184234744533     1.007825032230
         H           -0.297369225105     2.713550040782    -0.525099744533     1.007825032230
         H           -2.884981025105     2.310622140782     0.532623255467     1.007825032230
         H            0.434466774895    -1.963065959218     0.568968255467     1.007825032230
         H           -2.433718225105    -3.798060959218    -0.543332744533     1.007825032230
         H            2.829267774895    -2.645026959218     0.073822255467     1.007825032230
         H            5.125335774895    -1.670489959218    -0.162513744533     1.007825032230
         H            5.319969774895    -0.019682959218    -0.568393744533     1.007825032230

  Basis Set: AUG-CC-PVTZ
    Blend: AUG-CC-PVTZ
  Basis Set: (AUG-CC-PVTZ AUX)
    Blend: AUG-CC-PVTZ-JKFIT
	 Reference Energy          =    -886.3697868147792178 [Eh]
	 Singles Energy            =      -0.0000000000000000 [Eh]
	 Same-Spin Energy          =      -0.8997449374240887 [Eh]
	 Opposite-Spin Energy      =      -2.7118372901418093 [Eh]
	 Correlation Energy        =      -3.6115822275658980 [Eh]
	 Total Energy              =    -889.9813690423451362 [Eh]

	 ================> DF-SCS-MP2 Energies <==================
	-----------------------------------------------------------
	 SCS Same-Spin Scale       =       0.3333333333333333 [-]
	 SCS Opposite-Spin Scale   =       1.2000000000000000 [-]
	 SCS Same-Spin Energy      =      -0.2999149791413629 [Eh]
	 SCS Opposite-Spin Energy  =      -3.2542047481701712 [Eh]
	 SCS Correlation Energy    =      -3.5541197273115341 [Eh]
	 SCS Total Energy          =    -889.9239065420907764 [Eh]
	-----------------------------------------------------------

  Dipole Moment: [D]
     X:     1.6477      Y:    -6.0612      Z:    -1.7988     Total:     6.5336

*** Psi4 exiting successfully. Buy a developer a beer!
