                               Psi4 1.3.2 release

  ==> Input File <==

--------------------------------------------------------------------------
#psi4
#
memory 32 gb

molecule  {
0 1
  O       -1.2481010    -0.6526680     1.0325150
  O       -1.2449750     2.4828510    -0.6861630
  O       -3.2379030     1.5086863     0.7446146
  O       -2.3570290    -3.0668370     0.0949400
  O        1.3605300     2.2470340    -0.0765420
  N        0.8434040     0.0452230     0.2559430
  N        3.0572260     0.7205030    -0.2937270
  N        4.7164630    -0.8366550    -0.5722980
  C       -1.2880802     1.0587504    -0.6099255
  C       -2.7151710     0.6552070    -0.2573930
  C       -0.5254080     0.4815200     0.6000940
  C       -2.5292560    -0.7168860     0.3610560
  C       -2.5283440    -1.8503930    -0.6392900
  C        1.2197750    -1.2614080     0.3112740
  C        1.7555940     1.0674350    -0.0594030
  C        2.5111010    -1.6091400     0.0469950
  C        3.4119830    -0.5506530    -0.2589250
  H       -0.9376060     0.5914040    -1.5148910
  H       -3.3625820     0.6426650    -1.1464650
  H       -0.4402900     1.2218800     1.4039980
  H       -3.2819570    -0.9087340     1.1307830
  H       -1.7133080    -1.7003050    -1.3694640
  H       -3.4855610    -1.8340040    -1.1841350
  H       -0.2975250     2.7131790    -0.5250000
  H       -2.8475560     2.3997430     0.5086630
  H        0.4343110    -1.9634370     0.5690680
  H       -2.4338740    -3.7984320    -0.5432330
  H        2.8291120    -2.6453980     0.0739220
  H        5.1251800    -1.6708610    -0.1624140
  H        5.3198140    -0.0200540    -0.5682940
units angstrom
no_reorient  #important for SAPT in psi4, default
symmetry c1  #important for SAPT in psi4, default
}

set PROPERTIES_ORIGIN ["COM"]
properties('MP2/aug-cc-pvtz', properties = ['dipole'])
--------------------------------------------------------------------------

    Molecular point group: c1
  Charge       = 0
  Multiplicity = 1
  Basis Set: AUG-CC-PVTZ
    Blend: AUG-CC-PVTZ
  Basis Set: (AUG-CC-PVTZ AUX)
    Blend: AUG-CC-PVTZ-JKFIT

    Orbital Energies [Eh]
    ---------------------

    Doubly Occupied:

       1A    -20.582216     2A    -20.581443     3A    -20.560102
       4A    -20.556303     5A    -20.521928     6A    -15.636993
       7A    -15.599985     8A    -15.553475     9A    -11.388309
      10A    -11.357999    11A    -11.342396    12A    -11.328670
      13A    -11.301150    14A    -11.296577    15A    -11.296378
      16A    -11.292946    17A    -11.248737    18A     -1.428854
      19A     -1.396321    20A     -1.376826    21A     -1.370853
      22A     -1.341799    23A     -1.306127    24A     -1.273958
      25A     -1.182375    26A     -1.082099    27A     -1.067862
      28A     -1.021527    29A     -0.935177    30A     -0.909644
      31A     -0.877113    32A     -0.833295    33A     -0.811333
      34A     -0.767230    35A     -0.752011    36A     -0.735500
      37A     -0.720607    38A     -0.701314    39A     -0.698141
      40A     -0.685660    41A     -0.670623    42A     -0.654912
      43A     -0.651327    44A     -0.638848    45A     -0.620210
      46A     -0.613378    47A     -0.606588    48A     -0.593079
      49A     -0.575013    50A     -0.569404    51A     -0.552748
      52A     -0.545806    53A     -0.536023    54A     -0.531167
      55A     -0.498236    56A     -0.477333    57A     -0.475660
      58A     -0.462233    59A     -0.459860    60A     -0.455139
      61A     -0.440792    62A     -0.433336    63A     -0.395354
      64A     -0.350127

  @DF-RHF Final Energy:  -886.37067576613947

   => Energetics <=

    Nuclear Repulsion Energy =           1323.1190369410996936
    One-Electron Energy =               -3843.9225737451729401
    Two-Electron Energy =                1634.4328610379336624
    Total Energy =                       -886.3706757661395841
  Basis Set: (AUG-CC-PVTZ AUX)
    Blend: AUG-CC-PVTZ-RI
    Molecular point group: c1

    Geometry (in Angstrom), charge = 0, multiplicity = 1:

       Center              X                  Y                   Z               Mass
    ------------   -----------------  -----------------  -----------------  -----------------
         O           -1.246763999507    -0.650879749756     1.033414028592    15.994914619570
         O           -1.243637999507     2.484639250244    -0.685263971408    15.994914619570
         O           -3.236565999507     1.510474550244     0.745513628592    15.994914619570
         O           -2.355691999507    -3.065048749756     0.095839028592    15.994914619570
         O            1.361867000493     2.248822250244    -0.075642971408    15.994914619570
         N            0.844741000493     0.047011250244     0.256842028592    14.003074004430
         N            3.058563000493     0.722291250244    -0.292827971408    14.003074004430
         N            4.717800000493    -0.834866749756    -0.571398971408    14.003074004430
         C           -1.286743199507     1.060538650244    -0.609026471408    12.000000000000
         C           -2.713833999507     0.656995250244    -0.256493971408    12.000000000000
         C           -0.524070999507     0.483308250244     0.600993028592    12.000000000000
         C           -2.527918999507    -0.715097749756     0.361955028592    12.000000000000
         C           -2.527006999507    -1.848604749756    -0.638390971408    12.000000000000
         C            1.221112000493    -1.259619749756     0.312173028592    12.000000000000
         C            1.756931000493     1.069223250244    -0.058503971408    12.000000000000
         C            2.512438000493    -1.607351749756     0.047894028592    12.000000000000
         C            3.413320000493    -0.548864749756    -0.258025971408    12.000000000000
         H           -0.936268999507     0.593192250244    -1.513991971408     1.007825032230
         H           -3.361244999507     0.644453250244    -1.145565971408     1.007825032230
         H           -0.438952999507     1.223668250244     1.404897028592     1.007825032230
         H           -3.280619999507    -0.906945749756     1.131682028592     1.007825032230
         H           -1.711970999507    -1.698516749756    -1.368564971408     1.007825032230
         H           -3.484223999507    -1.832215749756    -1.183235971408     1.007825032230
         H           -0.296187999507     2.714967250244    -0.524100971408     1.007825032230
         H           -2.846218999507     2.401531250244     0.509562028592     1.007825032230
         H            0.435648000493    -1.961648749756     0.569967028592     1.007825032230
         H           -2.432536999507    -3.796643749756    -0.542333971408     1.007825032230
         H            2.830449000493    -2.643609749756     0.074821028592     1.007825032230
         H            5.126517000493    -1.669072749756    -0.161514971408     1.007825032230
         H            5.321151000493    -0.018265749756    -0.567394971408     1.007825032230

  Basis Set: AUG-CC-PVTZ
    Blend: AUG-CC-PVTZ
  Basis Set: (AUG-CC-PVTZ AUX)
    Blend: AUG-CC-PVTZ-JKFIT
	 Reference Energy          =    -886.3706757661394704 [Eh]
	 Singles Energy            =      -0.0000000000000000 [Eh]
	 Same-Spin Energy          =      -0.9015344798324743 [Eh]
	 Opposite-Spin Energy      =      -2.7159425431044202 [Eh]
	 Correlation Energy        =      -3.6174770229368942 [Eh]
	 Total Energy              =    -889.9881527890763664 [Eh]

	 ================> DF-SCS-MP2 Energies <==================
	-----------------------------------------------------------
	 SCS Same-Spin Scale       =       0.3333333333333333 [-]
	 SCS Opposite-Spin Scale   =       1.2000000000000000 [-]
	 SCS Same-Spin Energy      =      -0.3005114932774914 [Eh]
	 SCS Opposite-Spin Energy  =      -3.2591310517253040 [Eh]
	 SCS Correlation Energy    =      -3.5596425450027955 [Eh]
	 SCS Total Energy          =    -889.9303183111422868 [Eh]
	-----------------------------------------------------------

  Dipole Moment: [D]
     X:     1.7609      Y:    -5.9782      Z:    -1.8312     Total:     6.4956

*** Psi4 exiting successfully. Buy a developer a beer!
