                               Psi4 1.3.2 release

  ==> Input File <==

--------------------------------------------------------------------------
#psi4
#
memory 32 gb

molecule  {
0 1
  O       -1.2481010    -0.6526680     1.0325150
  O       -1.2449750     2.4828510    -0.6861630
  O       -3.2165300     1.5210990     0.7448870
  O       -2.3570290    -3.0668370     0.0949400
  O        1.3605300     2.2470340    -0.0765420
  N        0.8434040     0.0452230     0.2559430
  N        3.0572260     0.7205030    -0.2937270
  N        4.7164630    -0.8366550    -0.5722980
  C       -1.2894840     1.0784300    -0.5920770
  C       -2.7151710     0.6552070    -0.2573930
  C       -0.5254080     0.4815200     0.6000940
  C       -2.5292560    -0.7168860     0.3610560
  C       -2.5283440    -1.8503930    -0.6392900
  C        1.2197750    -1.2614080     0.3112740
  C        1.7555940     1.0674350    -0.0594030
  C        2.5111010    -1.6091400     0.0469950
  C        3.4119830    -0.5506530    -0.2589250
  H       -0.9376060     0.5914040    -1.5148910
  H       -3.3625820     0.6426650    -1.1464650
  H       -0.4402900     1.2218800     1.4039980
  H       -3.4196194    -0.9438213     1.2715593
  H       -1.7133080    -1.7003050    -1.3694640
  H       -3.4855610    -1.8340040    -1.1841350
  H       -0.2975250     2.7131790    -0.5250000
  H       -2.8475560     2.3997430     0.5086630
  H        0.4343110    -1.9634370     0.5690680
  H       -2.4338740    -3.7984320    -0.5432330
  H        2.8291120    -2.6453980     0.0739220
  H        5.1251800    -1.6708610    -0.1624140
  H        5.3198140    -0.0200540    -0.5682940
units angstrom
no_reorient  #important for SAPT in psi4, default
symmetry c1  #important for SAPT in psi4, default
}

set PROPERTIES_ORIGIN ["COM"]
properties('MP2/aug-cc-pvtz', properties = ['dipole'])
--------------------------------------------------------------------------

    Molecular point group: c1
  Charge       = 0
  Multiplicity = 1
  Basis Set: AUG-CC-PVTZ
    Blend: AUG-CC-PVTZ
  Basis Set: (AUG-CC-PVTZ AUX)
    Blend: AUG-CC-PVTZ-JKFIT

    Orbital Energies [Eh]
    ---------------------

    Doubly Occupied:

       1A    -20.584395     2A    -20.581998     3A    -20.558026
       4A    -20.557572     5A    -20.522608     6A    -15.637761
       7A    -15.600299     8A    -15.553905     9A    -11.388927
      10A    -11.358399    11A    -11.342845    12A    -11.329153
      13A    -11.317390    14A    -11.302853    15A    -11.297872
      16A    -11.294532    17A    -11.249144    18A     -1.430600
      19A     -1.397038    20A     -1.380421    21A     -1.372971
      22A     -1.346494    23A     -1.306665    24A     -1.274429
      25A     -1.182762    26A     -1.082390    27A     -1.065808
      28A     -1.019828    29A     -0.936315    30A     -0.909623
      31A     -0.876439    32A     -0.831064    33A     -0.804549
      34A     -0.766208    35A     -0.752741    36A     -0.733905
      37A     -0.720482    38A     -0.702436    39A     -0.693186
      40A     -0.685593    41A     -0.672994    42A     -0.654879
      43A     -0.651851    44A     -0.639111    45A     -0.621177
      46A     -0.615177    47A     -0.605497    48A     -0.593989
      49A     -0.576328    50A     -0.557427    51A     -0.552591
      52A     -0.544063    53A     -0.536583    54A     -0.530267
      55A     -0.496590    56A     -0.477228    57A     -0.472843
      58A     -0.461229    59A     -0.457599    60A     -0.451953
      61A     -0.440203    62A     -0.431944    63A     -0.395687
      64A     -0.350610

  @DF-RHF Final Energy:  -886.35213768542360

   => Energetics <=

    Nuclear Repulsion Energy =           1322.4938258294753268
    One-Electron Energy =               -3842.6170341214560722
    Two-Electron Energy =                1633.7710706065570321
    Total Energy =                       -886.3521376854234859
  Basis Set: (AUG-CC-PVTZ AUX)
    Blend: AUG-CC-PVTZ-RI
    Molecular point group: c1

    Geometry (in Angstrom), charge = 0, multiplicity = 1:

       Center              X                  Y                   Z               Mass
    ------------   -----------------  -----------------  -----------------  -----------------
         O           -1.247530289894    -0.652522519003     1.031931353305    15.994914619570
         O           -1.244404289894     2.482996480997    -0.686746646695    15.994914619570
         O           -3.215959289894     1.521244480997     0.744303353305    15.994914619570
         O           -2.356458289894    -3.066691519003     0.094356353305    15.994914619570
         O            1.361100710106     2.247179480997    -0.077125646695    15.994914619570
         N            0.843974710106     0.045368480997     0.255359353305    14.003074004430
         N            3.057796710106     0.720648480997    -0.294310646695    14.003074004430
         N            4.717033710106    -0.836509519003    -0.572881646695    14.003074004430
         C           -1.288913289894     1.078575480997    -0.592660646695    12.000000000000
         C           -2.714600289894     0.655352480997    -0.257976646695    12.000000000000
         C           -0.524837289894     0.481665480997     0.599510353305    12.000000000000
         C           -2.528685289894    -0.716740519003     0.360472353305    12.000000000000
         C           -2.527773289894    -1.850247519003    -0.639873646695    12.000000000000
         C            1.220345710106    -1.261262519003     0.310690353305    12.000000000000
         C            1.756164710106     1.067580480997    -0.059986646695    12.000000000000
         C            2.511671710106    -1.608994519003     0.046411353305    12.000000000000
         C            3.412553710106    -0.550507519003    -0.259508646695    12.000000000000
         H           -0.937035289894     0.591549480997    -1.515474646695     1.007825032230
         H           -3.362011289894     0.642810480997    -1.147048646695     1.007825032230
         H           -0.439719289894     1.222025480997     1.403414353305     1.007825032230
         H           -3.419048689894    -0.943675819003     1.270975653305     1.007825032230
         H           -1.712737289894    -1.700159519003    -1.370047646695     1.007825032230
         H           -3.484990289894    -1.833858519003    -1.184718646695     1.007825032230
         H           -0.296954289894     2.713324480997    -0.525583646695     1.007825032230
         H           -2.846985289894     2.399888480997     0.508079353305     1.007825032230
         H            0.434881710106    -1.963291519003     0.568484353305     1.007825032230
         H           -2.433303289894    -3.798286519003    -0.543816646695     1.007825032230
         H            2.829682710106    -2.645252519003     0.073338353305     1.007825032230
         H            5.125750710106    -1.670715519003    -0.162997646695     1.007825032230
         H            5.320384710106    -0.019908519003    -0.568877646695     1.007825032230

  Basis Set: AUG-CC-PVTZ
    Blend: AUG-CC-PVTZ
  Basis Set: (AUG-CC-PVTZ AUX)
    Blend: AUG-CC-PVTZ-JKFIT
	 Reference Energy          =    -886.3521376854235996 [Eh]
	 Singles Energy            =      -0.0000000000000000 [Eh]
	 Same-Spin Energy          =      -0.9018760163415817 [Eh]
	 Opposite-Spin Energy      =      -2.7172964901848111 [Eh]
	 Correlation Energy        =      -3.6191725065263927 [Eh]
	 Total Energy              =    -889.9713101919500104 [Eh]

	 ================> DF-SCS-MP2 Energies <==================
	-----------------------------------------------------------
	 SCS Same-Spin Scale       =       0.3333333333333333 [-]
	 SCS Opposite-Spin Scale   =       1.2000000000000000 [-]
	 SCS Same-Spin Energy      =      -0.3006253387805272 [Eh]
	 SCS Opposite-Spin Energy  =      -3.2607557882217733 [Eh]
	 SCS Correlation Energy    =      -3.5613811270023006 [Eh]
	 SCS Total Energy          =    -889.9135188124258775 [Eh]
	-----------------------------------------------------------

  Dipole Moment: [D]
     X:     1.8175      Y:    -5.9190      Z:    -1.8482     Total:     6.4618

*** Psi4 exiting successfully. Buy a developer a beer!
