                               Psi4 1.3.2 release

  ==> Input File <==

--------------------------------------------------------------------------
#psi4
#
memory 32 gb

molecule  {
0 1
  O       -1.2481010    -0.6526680     1.0325150
  O       -1.2449750     2.4828510    -0.6861630
  O       -3.2165300     1.5210990     0.7448870
  O       -2.3570290    -3.0668370     0.0949400
  O        1.3605300     2.2470340    -0.0765420
  N        0.8434040     0.0452230     0.2559430
  N        3.0572260     0.7205030    -0.2937270
  N        4.7164630    -0.8366550    -0.5722980
  C       -1.2894840     1.0784300    -0.5920770
  C       -2.7394045     0.6915453    -0.3241867
  C       -0.4574956     0.5110090     0.5686185
  C       -2.5292560    -0.7168860     0.3610560
  C       -2.5283440    -1.8503930    -0.6392900
  C        1.2197750    -1.2614080     0.3112740
  C        1.7555940     1.0674350    -0.0594030
  C        2.5111010    -1.6091400     0.0469950
  C        3.4119830    -0.5506530    -0.2589250
  H       -0.9376060     0.5914040    -1.5148910
  H       -3.3625820     0.6426650    -1.1464650
  H       -0.4402900     1.2218800     1.4039980
  H       -3.2819570    -0.9087340     1.1307830
  H       -1.7133080    -1.7003050    -1.3694640
  H       -3.4855610    -1.8340040    -1.1841350
  H       -0.2975250     2.7131790    -0.5250000
  H       -2.8475560     2.3997430     0.5086630
  H        0.4343110    -1.9634370     0.5690680
  H       -2.4338740    -3.7984320    -0.5432330
  H        2.8291120    -2.6453980     0.0739220
  H        5.1251800    -1.6708610    -0.1624140
  H        5.3198140    -0.0200540    -0.5682940
units angstrom
no_reorient  #important for SAPT in psi4, default
symmetry c1  #important for SAPT in psi4, default
}

set PROPERTIES_ORIGIN ["COM"]
properties('MP2/aug-cc-pvtz', properties = ['dipole'])
--------------------------------------------------------------------------

    Molecular point group: c1
  Charge       = 0
  Multiplicity = 1
  Basis Set: AUG-CC-PVTZ
    Blend: AUG-CC-PVTZ
  Basis Set: (AUG-CC-PVTZ AUX)
    Blend: AUG-CC-PVTZ-JKFIT

    Orbital Energies [Eh]
    ---------------------

    Doubly Occupied:

       1A    -20.578207     2A    -20.572566     3A    -20.555195
       4A    -20.555009     5A    -20.526670     6A    -15.642827
       7A    -15.602828     8A    -15.556626     9A    -11.392396
      10A    -11.361497    11A    -11.341402    12A    -11.333001
      13A    -11.297216    14A    -11.295838    15A    -11.293066
      16A    -11.290163    17A    -11.252673    18A     -1.421204
      19A     -1.391526    20A     -1.375610    21A     -1.364358
      22A     -1.340578    23A     -1.310556    24A     -1.281628
      25A     -1.187202    26A     -1.089118    27A     -1.054524
      28A     -1.017830    29A     -0.940298    30A     -0.912590
      31A     -0.878164    32A     -0.829580    33A     -0.813089
      34A     -0.771266    35A     -0.756530    36A     -0.735803
      37A     -0.721673    38A     -0.700548    39A     -0.689299
      40A     -0.686958    41A     -0.672787    42A     -0.653774
      43A     -0.651817    44A     -0.638124    45A     -0.620602
      46A     -0.610933    47A     -0.602290    48A     -0.601905
      49A     -0.574587    50A     -0.564559    51A     -0.549236
      52A     -0.543117    53A     -0.535540    54A     -0.527533
      55A     -0.499087    56A     -0.473144    57A     -0.467201
      58A     -0.462300    59A     -0.460778    60A     -0.446464
      61A     -0.441912    62A     -0.435721    63A     -0.398101
      64A     -0.354461

  @DF-RHF Final Energy:  -886.35810791226311

   => Energetics <=

    Nuclear Repulsion Energy =           1322.3930125394381321
    One-Electron Energy =               -3842.4960708656749375
    Two-Electron Energy =                1633.7449504139735836
    Total Energy =                       -886.3581079122632218
  Basis Set: (AUG-CC-PVTZ AUX)
    Blend: AUG-CC-PVTZ-RI
    Molecular point group: c1

    Geometry (in Angstrom), charge = 0, multiplicity = 1:

       Center              X                  Y                   Z               Mass
    ------------   -----------------  -----------------  -----------------  -----------------
         O           -1.250257257799    -0.655917577078     1.037366100205    15.994914619570
         O           -1.247131257799     2.479601422922    -0.681311899795    15.994914619570
         O           -3.218686257799     1.517849422922     0.749738100205    15.994914619570
         O           -2.359185257799    -3.070086577078     0.099791100205    15.994914619570
         O            1.358373742201     2.243784422922    -0.071690899795    15.994914619570
         N            0.841247742201     0.041973422922     0.260794100205    14.003074004430
         N            3.055069742201     0.717253422922    -0.288875899795    14.003074004430
         N            4.714306742201    -0.839904577078    -0.567446899795    14.003074004430
         C           -1.291640257799     1.075180422922    -0.587225899795    12.000000000000
         C           -2.741560757799     0.688295722922    -0.319335599795    12.000000000000
         C           -0.459651857799     0.507759422922     0.573469600205    12.000000000000
         C           -2.531412257799    -0.720135577078     0.365907100205    12.000000000000
         C           -2.530500257799    -1.853642577078    -0.634438899795    12.000000000000
         C            1.217618742201    -1.264657577078     0.316125100205    12.000000000000
         C            1.753437742201     1.064185422922    -0.054551899795    12.000000000000
         C            2.508944742201    -1.612389577078     0.051846100205    12.000000000000
         C            3.409826742201    -0.553902577078    -0.254073899795    12.000000000000
         H           -0.939762257799     0.588154422922    -1.510039899795     1.007825032230
         H           -3.364738257799     0.639415422922    -1.141613899795     1.007825032230
         H           -0.442446257799     1.218630422922     1.408849100205     1.007825032230
         H           -3.284113257799    -0.911983577078     1.135634100205     1.007825032230
         H           -1.715464257799    -1.703554577078    -1.364612899795     1.007825032230
         H           -3.487717257799    -1.837253577078    -1.179283899795     1.007825032230
         H           -0.299681257799     2.709929422922    -0.520148899795     1.007825032230
         H           -2.849712257799     2.396493422922     0.513514100205     1.007825032230
         H            0.432154742201    -1.966686577078     0.573919100205     1.007825032230
         H           -2.436030257799    -3.801681577078    -0.538381899795     1.007825032230
         H            2.826955742201    -2.648647577078     0.078773100205     1.007825032230
         H            5.123023742201    -1.674110577078    -0.157562899795     1.007825032230
         H            5.317657742201    -0.023303577078    -0.563442899795     1.007825032230

  Basis Set: AUG-CC-PVTZ
    Blend: AUG-CC-PVTZ
  Basis Set: (AUG-CC-PVTZ AUX)
    Blend: AUG-CC-PVTZ-JKFIT
	 Reference Energy          =    -886.3581079122631081 [Eh]
	 Singles Energy            =      -0.0000000000000000 [Eh]
	 Same-Spin Energy          =      -0.9015728528880739 [Eh]
	 Opposite-Spin Energy      =      -2.7171071823859325 [Eh]
	 Correlation Energy        =      -3.6186800352740063 [Eh]
	 Total Energy              =    -889.9767879475371046 [Eh]

	 ================> DF-SCS-MP2 Energies <==================
	-----------------------------------------------------------
	 SCS Same-Spin Scale       =       0.3333333333333333 [-]
	 SCS Opposite-Spin Scale   =       1.2000000000000000 [-]
	 SCS Same-Spin Energy      =      -0.3005242842960246 [Eh]
	 SCS Opposite-Spin Energy  =      -3.2605286188631188 [Eh]
	 SCS Correlation Energy    =      -3.5610529031591436 [Eh]
	 SCS Total Energy          =    -889.9191608154222877 [Eh]
	-----------------------------------------------------------

  Dipole Moment: [D]
     X:     2.1962      Y:    -5.8296      Z:    -1.9705     Total:     6.5338

*** Psi4 exiting successfully. Buy a developer a beer!
