                               Psi4 1.3.2 release

  ==> Input File <==

--------------------------------------------------------------------------
#psi4
#
memory 32 gb

molecule  {
0 1
  O       -1.2481010    -0.6526680     1.0325150
  O       -1.2449750     2.4828510    -0.6861630
  O       -3.2165300     1.5210990     0.7448870
  O       -2.3570290    -3.0668370     0.0949400
  O        1.3605300     2.2470340    -0.0765420
  N        0.8434040     0.0452230     0.2559430
  N        3.0572260     0.7205030    -0.2937270
  N        4.7164630    -0.8366550    -0.5722980
  C       -1.3618286     1.0817315    -0.6059067
  C       -2.7151710     0.6552070    -0.2573930
  C       -0.5254080     0.4815200     0.6000940
  C       -2.5292560    -0.7168860     0.3610560
  C       -2.5283440    -1.8503930    -0.6392900
  C        1.2197750    -1.2614080     0.3112740
  C        1.7555940     1.0674350    -0.0594030
  C        2.5111010    -1.6091400     0.0469950
  C        3.4119830    -0.5506530    -0.2589250
  H       -0.9376060     0.5914040    -1.5148910
  H       -3.3625820     0.6426650    -1.1464650
  H       -0.4402900     1.2218800     1.4039980
  H       -3.2819570    -0.9087340     1.1307830
  H       -1.7133080    -1.7003050    -1.3694640
  H       -3.4855610    -1.8340040    -1.1841350
  H       -0.3100372     2.7630251    -0.5309863
  H       -2.8475560     2.3997430     0.5086630
  H        0.4343110    -1.9634370     0.5690680
  H       -2.4338740    -3.7984320    -0.5432330
  H        2.8291120    -2.6453980     0.0739220
  H        5.1251800    -1.6708610    -0.1624140
  H        5.3198140    -0.0200540    -0.5682940
units angstrom
no_reorient  #important for SAPT in psi4, default
symmetry c1  #important for SAPT in psi4, default
}

set PROPERTIES_ORIGIN ["COM"]
properties('MP2/aug-cc-pvtz', properties = ['dipole'])
--------------------------------------------------------------------------

    Molecular point group: c1
  Charge       = 0
  Multiplicity = 1
  Basis Set: AUG-CC-PVTZ
    Blend: AUG-CC-PVTZ
  Basis Set: (AUG-CC-PVTZ AUX)
    Blend: AUG-CC-PVTZ-JKFIT

    Orbital Energies [Eh]
    ---------------------

    Doubly Occupied:

       1A    -20.582488     2A    -20.580207     3A    -20.558765
       4A    -20.555458     5A    -20.519878     6A    -15.636631
       7A    -15.599278     8A    -15.552410     9A    -11.386884
      10A    -11.357112    11A    -11.340866    12A    -11.327934
      13A    -11.301560    14A    -11.299307    15A    -11.298434
      16A    -11.291706    17A    -11.247965    18A     -1.428056
      19A     -1.394887    20A     -1.380738    21A     -1.372654
      22A     -1.344926    23A     -1.304864    24A     -1.272786
      25A     -1.181265    26A     -1.079954    27A     -1.074462
      28A     -1.020336    29A     -0.936836    30A     -0.908656
      31A     -0.876367    32A     -0.834163    33A     -0.809869
      34A     -0.766138    35A     -0.752331    36A     -0.736556
      37A     -0.719653    38A     -0.703784    39A     -0.700085
      40A     -0.684722    41A     -0.674869    42A     -0.654059
      43A     -0.651798    44A     -0.635903    45A     -0.621361
      46A     -0.614980    47A     -0.605936    48A     -0.591510
      49A     -0.578651    50A     -0.569501    51A     -0.550523
      52A     -0.545042    53A     -0.533129    54A     -0.531336
      55A     -0.498963    56A     -0.481745    57A     -0.476430
      58A     -0.462932    59A     -0.458479    60A     -0.452314
      61A     -0.435925    62A     -0.430980    63A     -0.393465
      64A     -0.348570

  @DF-RHF Final Energy:  -886.36812614555743

   => Energetics <=

    Nuclear Repulsion Energy =           1323.0853709262612483
    One-Electron Energy =               -3843.8682434811789790
    Two-Electron Energy =                1634.4147464093605322
    Total Energy =                       -886.3681261455574258
  Basis Set: (AUG-CC-PVTZ AUX)
    Blend: AUG-CC-PVTZ-RI
    Molecular point group: c1

    Geometry (in Angstrom), charge = 0, multiplicity = 1:

       Center              X                  Y                   Z               Mass
    ------------   -----------------  -----------------  -----------------  -----------------
         O           -1.244477842779    -0.653037629925     1.033222534373    15.994914619570
         O           -1.241351842779     2.482481370075    -0.685455465627    15.994914619570
         O           -3.212906842779     1.520729370075     0.745594534373    15.994914619570
         O           -2.353405842779    -3.067206629925     0.095647534373    15.994914619570
         O            1.364153157221     2.246664370075    -0.075834465627    15.994914619570
         N            0.847027157221     0.044853370075     0.256650534373    14.003074004430
         N            3.060849157221     0.720133370075    -0.293019465627    14.003074004430
         N            4.720086157221    -0.837024629925    -0.571590465627    14.003074004430
         C           -1.358205442779     1.081361870075    -0.605199165627    12.000000000000
         C           -2.711547842779     0.654837370075    -0.256685465627    12.000000000000
         C           -0.521784842779     0.481150370075     0.600801534373    12.000000000000
         C           -2.525632842779    -0.717255629925     0.361763534373    12.000000000000
         C           -2.524720842779    -1.850762629925    -0.638582465627    12.000000000000
         C            1.223398157221    -1.261777629925     0.311981534373    12.000000000000
         C            1.759217157221     1.067065370075    -0.058695465627    12.000000000000
         C            2.514724157221    -1.609509629925     0.047702534373    12.000000000000
         C            3.415606157221    -0.551022629925    -0.258217465627    12.000000000000
         H           -0.933982842779     0.591034370075    -1.514183465627     1.007825032230
         H           -3.358958842779     0.642295370075    -1.145757465627     1.007825032230
         H           -0.436666842779     1.221510370075     1.404705534373     1.007825032230
         H           -3.278333842779    -0.909103629925     1.131490534373     1.007825032230
         H           -1.709684842779    -1.700674629925    -1.368756465627     1.007825032230
         H           -3.481937842779    -1.834373629925    -1.183427465627     1.007825032230
         H           -0.306414042779     2.762655470075    -0.530278765627     1.007825032230
         H           -2.843932842779     2.399373370075     0.509370534373     1.007825032230
         H            0.437934157221    -1.963806629925     0.569775534373     1.007825032230
         H           -2.430250842779    -3.798801629925    -0.542525465627     1.007825032230
         H            2.832735157221    -2.645767629925     0.074629534373     1.007825032230
         H            5.128803157221    -1.671230629925    -0.161706465627     1.007825032230
         H            5.323437157221    -0.020423629925    -0.567586465627     1.007825032230

  Basis Set: AUG-CC-PVTZ
    Blend: AUG-CC-PVTZ
  Basis Set: (AUG-CC-PVTZ AUX)
    Blend: AUG-CC-PVTZ-JKFIT
	 Reference Energy          =    -886.3681261455574258 [Eh]
	 Singles Energy            =      -0.0000000000000000 [Eh]
	 Same-Spin Energy          =      -0.9011492134340292 [Eh]
	 Opposite-Spin Energy      =      -2.7146413345925988 [Eh]
	 Correlation Energy        =      -3.6157905480266281 [Eh]
	 Total Energy              =    -889.9839166935840922 [Eh]

	 ================> DF-SCS-MP2 Energies <==================
	-----------------------------------------------------------
	 SCS Same-Spin Scale       =       0.3333333333333333 [-]
	 SCS Opposite-Spin Scale   =       1.2000000000000000 [-]
	 SCS Same-Spin Energy      =      -0.3003830711446764 [Eh]
	 SCS Opposite-Spin Energy  =      -3.2575696015111184 [Eh]
	 SCS Correlation Energy    =      -3.5579526726557948 [Eh]
	 SCS Total Energy          =    -889.9260788182132274 [Eh]
	-----------------------------------------------------------

  Dipole Moment: [D]
     X:     1.6116      Y:    -5.8935      Z:    -1.8420     Total:     6.3815

*** Psi4 exiting successfully. Buy a developer a beer!
