                               Psi4 1.3.2 release

  ==> Input File <==

--------------------------------------------------------------------------
#psi4
#
memory 32 gb

molecule  {
0 1
  O       -1.2481010    -0.6526680     1.0325150
  O       -1.2449750     2.4828510    -0.6861630
  O       -3.2165300     1.5210990     0.7448870
  O       -2.3570290    -3.0668370     0.0949400
  O        1.3605300     2.2470340    -0.0765420
  N        0.8434040     0.0452230     0.2559430
  N        3.0572260     0.7205030    -0.2937270
  N        4.7164630    -0.8366550    -0.5722980
  C       -1.3136222     1.0791030    -0.5966601
  C       -2.7151710     0.6552070    -0.2573930
  C       -0.5254080     0.4815200     0.6000940
  C       -2.5292560    -0.7168860     0.3610560
  C       -2.5283440    -1.8503930    -0.6392900
  C        1.2197750    -1.2614080     0.3112740
  C        1.7555940     1.0674350    -0.0594030
  C        2.5111010    -1.6091400     0.0469950
  C        3.4119830    -0.5506530    -0.2589250
  H       -0.9376060     0.5914040    -1.5148910
  H       -3.3625820     0.6426650    -1.1464650
  H       -0.4402900     1.2218800     1.4039980
  H       -3.2819570    -0.9087340     1.1307830
  H       -1.7133080    -1.7003050    -1.3694640
  H       -3.4855610    -1.8340040    -1.1841350
  H       -0.3014087     2.7298713    -0.5269471
  H       -2.8475560     2.3997430     0.5086630
  H        0.4343110    -1.9634370     0.5690680
  H       -2.4338740    -3.7984320    -0.5432330
  H        2.8291120    -2.6453980     0.0739220
  H        5.1251800    -1.6708610    -0.1624140
  H        5.3198140    -0.0200540    -0.5682940
units angstrom
no_reorient  #important for SAPT in psi4, default
symmetry c1  #important for SAPT in psi4, default
}

set PROPERTIES_ORIGIN ["COM"]
properties('MP2/aug-cc-pvtz', properties = ['dipole'])
--------------------------------------------------------------------------

    Molecular point group: c1
  Charge       = 0
  Multiplicity = 1
  Basis Set: AUG-CC-PVTZ
    Blend: AUG-CC-PVTZ
  Basis Set: (AUG-CC-PVTZ AUX)
    Blend: AUG-CC-PVTZ-JKFIT

    Orbital Energies [Eh]
    ---------------------

    Doubly Occupied:

       1A    -20.582330     2A    -20.581142     3A    -20.558080
       4A    -20.556633     5A    -20.521290     6A    -15.636849
       7A    -15.599676     8A    -15.553048     9A    -11.387819
      10A    -11.357628    11A    -11.341364    12A    -11.328353
      13A    -11.301314    14A    -11.297408    15A    -11.297346
      16A    -11.292569    17A    -11.248380    18A     -1.428914
      19A     -1.395881    20A     -1.380252    21A     -1.372751
      22A     -1.345845    23A     -1.305676    24A     -1.273472
      25A     -1.181931    26A     -1.081272    27A     -1.069797
      28A     -1.020859    29A     -0.936011    30A     -0.909218
      31A     -0.876985    32A     -0.832920    33A     -0.811183
      34A     -0.766702    35A     -0.752335    36A     -0.736404
      37A     -0.720069    38A     -0.703090    39A     -0.698988
      40A     -0.685333    41A     -0.673515    42A     -0.654258
      43A     -0.651690    44A     -0.637580    45A     -0.620733
      46A     -0.614647    47A     -0.606579    48A     -0.593092
      49A     -0.576757    50A     -0.569674    51A     -0.552669
      52A     -0.545490    53A     -0.536135    54A     -0.531721
      55A     -0.498182    56A     -0.478162    57A     -0.476150
      58A     -0.462384    59A     -0.459513    60A     -0.452762
      61A     -0.439461    62A     -0.432619    63A     -0.394710
      64A     -0.349587

  @DF-RHF Final Energy:  -886.37314951293388

   => Energetics <=

    Nuclear Repulsion Energy =           1323.5025166947832531
    One-Electron Energy =               -3844.6809573939976872
    Two-Electron Energy =                1634.8052911862807832
    Total Energy =                       -886.3731495129338782
  Basis Set: (AUG-CC-PVTZ AUX)
    Blend: AUG-CC-PVTZ-RI
    Molecular point group: c1

    Geometry (in Angstrom), charge = 0, multiplicity = 1:

       Center              X                  Y                   Z               Mass
    ------------   -----------------  -----------------  -----------------  -----------------
         O           -1.246893341724    -0.652770418495     1.032749326399    15.994914619570
         O           -1.243767341724     2.482748581505    -0.685928673601    15.994914619570
         O           -3.215322341724     1.520996581505     0.745121326399    15.994914619570
         O           -2.355821341724    -3.066939418495     0.095174326399    15.994914619570
         O            1.361737658276     2.246931581505    -0.076307673601    15.994914619570
         N            0.844611658276     0.045120581505     0.256177326399    14.003074004430
         N            3.058433658276     0.720400581505    -0.293492673601    14.003074004430
         N            4.717670658276    -0.836757418495    -0.572063673601    14.003074004430
         C           -1.312414541724     1.079000581505    -0.596425773601    12.000000000000
         C           -2.713963341724     0.655104581505    -0.257158673601    12.000000000000
         C           -0.524200341724     0.481417581505     0.600328326399    12.000000000000
         C           -2.528048341724    -0.716988418495     0.361290326399    12.000000000000
         C           -2.527136341724    -1.850495418495    -0.639055673601    12.000000000000
         C            1.220982658276    -1.261510418495     0.311508326399    12.000000000000
         C            1.756801658276     1.067332581505    -0.059168673601    12.000000000000
         C            2.512308658276    -1.609242418495     0.047229326399    12.000000000000
         C            3.413190658276    -0.550755418495    -0.258690673601    12.000000000000
         H           -0.936398341724     0.591301581505    -1.514656673601     1.007825032230
         H           -3.361374341724     0.642562581505    -1.146230673601     1.007825032230
         H           -0.439082341724     1.221777581505     1.404232326399     1.007825032230
         H           -3.280749341724    -0.908836418495     1.131017326399     1.007825032230
         H           -1.712100341724    -1.700407418495    -1.369229673601     1.007825032230
         H           -3.484353341724    -1.834106418495    -1.183900673601     1.007825032230
         H           -0.300201041724     2.729768881505    -0.526712773601     1.007825032230
         H           -2.846348341724     2.399640581505     0.508897326399     1.007825032230
         H            0.435518658276    -1.963539418495     0.569302326399     1.007825032230
         H           -2.432666341724    -3.798534418495    -0.542998673601     1.007825032230
         H            2.830319658276    -2.645500418495     0.074156326399     1.007825032230
         H            5.126387658276    -1.670963418495    -0.162179673601     1.007825032230
         H            5.321021658276    -0.020156418495    -0.568059673601     1.007825032230

  Basis Set: AUG-CC-PVTZ
    Blend: AUG-CC-PVTZ
  Basis Set: (AUG-CC-PVTZ AUX)
    Blend: AUG-CC-PVTZ-JKFIT
	 Reference Energy          =    -886.3731495129338782 [Eh]
	 Singles Energy            =      -0.0000000000000000 [Eh]
	 Same-Spin Energy          =      -0.9011262924020617 [Eh]
	 Opposite-Spin Energy      =      -2.7147082022026350 [Eh]
	 Correlation Energy        =      -3.6158344946046967 [Eh]
	 Total Energy              =    -889.9889840075385337 [Eh]

	 ================> DF-SCS-MP2 Energies <==================
	-----------------------------------------------------------
	 SCS Same-Spin Scale       =       0.3333333333333333 [-]
	 SCS Opposite-Spin Scale   =       1.2000000000000000 [-]
	 SCS Same-Spin Energy      =      -0.3003754308006872 [Eh]
	 SCS Opposite-Spin Energy  =      -3.2576498426431617 [Eh]
	 SCS Correlation Energy    =      -3.5580252734438487 [Eh]
	 SCS Total Energy          =    -889.9311747863777100 [Eh]
	-----------------------------------------------------------

  Dipole Moment: [D]
     X:     1.6797      Y:    -5.9331      Z:    -1.8296     Total:     6.4320

*** Psi4 exiting successfully. Buy a developer a beer!
