                               Psi4 1.3.2 release

  ==> Input File <==

--------------------------------------------------------------------------
#psi4
#
memory 32 gb

molecule  {
0 1
  O       -1.2481010    -0.6526680     1.0325150
  O       -1.2449750     2.4828510    -0.6861630
  O       -3.2165300     1.5210990     0.7448870
  O       -2.3570290    -3.0668370     0.0949400
  O        1.3404517     2.2401767    -0.0719244
  N        0.8434040     0.0452230     0.2559430
  N        3.0514402     0.6975537    -0.2906733
  N        4.7164630    -0.8366550    -0.5722980
  C       -1.2894840     1.0784300    -0.5920770
  C       -2.7151710     0.6552070    -0.2573930
  C       -0.5254080     0.4815200     0.6000940
  C       -2.5292560    -0.7168860     0.3610560
  C       -2.5283440    -1.8503930    -0.6392900
  C        1.2197750    -1.2614080     0.3112740
  C        1.7555940     1.0674350    -0.0594030
  C        2.5111010    -1.6091400     0.0469950
  C        3.4119830    -0.5506530    -0.2589250
  H       -0.9376060     0.5914040    -1.5148910
  H       -3.3625820     0.6426650    -1.1464650
  H       -0.4402900     1.2218800     1.4039980
  H       -3.2819570    -0.9087340     1.1307830
  H       -1.7133080    -1.7003050    -1.3694640
  H       -3.4855610    -1.8340040    -1.1841350
  H       -0.2975250     2.7131790    -0.5250000
  H       -2.8475560     2.3997430     0.5086630
  H        0.4343110    -1.9634370     0.5690680
  H       -2.4338740    -3.7984320    -0.5432330
  H        2.8291120    -2.6453980     0.0739220
  H        5.1251800    -1.6708610    -0.1624140
  H        5.3198140    -0.0200540    -0.5682940
units angstrom
no_reorient  #important for SAPT in psi4, default
symmetry c1  #important for SAPT in psi4, default
}

set PROPERTIES_ORIGIN ["COM"]
properties('MP2/aug-cc-pvtz', properties = ['dipole'])
--------------------------------------------------------------------------

    Molecular point group: c1
  Charge       = 0
  Multiplicity = 1
  Basis Set: AUG-CC-PVTZ
    Blend: AUG-CC-PVTZ
  Basis Set: (AUG-CC-PVTZ AUX)
    Blend: AUG-CC-PVTZ-JKFIT

    Orbital Energies [Eh]
    ---------------------

    Doubly Occupied:

       1A    -20.581869     2A    -20.580977     3A    -20.557463
       4A    -20.556639     5A    -20.524735     6A    -15.635724
       7A    -15.598578     8A    -15.552311     9A    -11.391027
      10A    -11.355524    11A    -11.340831    12A    -11.326904
      13A    -11.300799    14A    -11.296491    15A    -11.296211
      16A    -11.292586    17A    -11.247306    18A     -1.429305
      19A     -1.398136    20A     -1.379749    21A     -1.372451
      22A     -1.345968    23A     -1.309347    24A     -1.273873
      25A     -1.185420    26A     -1.080989    27A     -1.067324
      28A     -1.021104    29A     -0.935696    30A     -0.908841
      31A     -0.880089    32A     -0.831930    33A     -0.811558
      34A     -0.767284    35A     -0.752330    36A     -0.735948
      37A     -0.721037    38A     -0.702787    39A     -0.698064
      40A     -0.685913    41A     -0.672418    42A     -0.656046
      43A     -0.652061    44A     -0.638755    45A     -0.620640
      46A     -0.614557    47A     -0.606564    48A     -0.594622
      49A     -0.575424    50A     -0.569714    51A     -0.553764
      52A     -0.545715    53A     -0.537697    54A     -0.531802
      55A     -0.498104    56A     -0.477150    57A     -0.474115
      58A     -0.463790    59A     -0.460586    60A     -0.452397
      61A     -0.440010    62A     -0.431417    63A     -0.397908
      64A     -0.349597

  @DF-RHF Final Energy:  -886.37366643914402

   => Energetics <=

    Nuclear Repulsion Energy =           1324.6861572763893946
    One-Electron Energy =               -3847.0277032859544306
    Two-Electron Energy =                1635.9678795704207914
    Total Energy =                       -886.3736664391440172
  Basis Set: (AUG-CC-PVTZ AUX)
    Blend: AUG-CC-PVTZ-RI
    Molecular point group: c1

    Geometry (in Angstrom), charge = 0, multiplicity = 1:

       Center              X                  Y                   Z               Mass
    ------------   -----------------  -----------------  -----------------  -----------------
         O           -1.246446596934    -0.650894775754     1.032035261486    15.994914619570
         O           -1.243320596934     2.484624224246    -0.686642738514    15.994914619570
         O           -3.214875596934     1.522872224246     0.744407261486    15.994914619570
         O           -2.355374596934    -3.065063775754     0.094460261486    15.994914619570
         O            1.342106103066     2.241949924246    -0.072404138514    15.994914619570
         N            0.845058403066     0.046996224246     0.255463261486    14.003074004430
         N            3.053094603066     0.699326924246    -0.291153038514    14.003074004430
         N            4.718117403066    -0.834881775754    -0.572777738514    14.003074004430
         C           -1.287829596934     1.080203224246    -0.592556738514    12.000000000000
         C           -2.713516596934     0.656980224246    -0.257872738514    12.000000000000
         C           -0.523753596934     0.483293224246     0.599614261486    12.000000000000
         C           -2.527601596934    -0.715112775754     0.360576261486    12.000000000000
         C           -2.526689596934    -1.848619775754    -0.639769738514    12.000000000000
         C            1.221429403066    -1.259634775754     0.310794261486    12.000000000000
         C            1.757248403066     1.069208224246    -0.059882738514    12.000000000000
         C            2.512755403066    -1.607366775754     0.046515261486    12.000000000000
         C            3.413637403066    -0.548879775754    -0.259404738514    12.000000000000
         H           -0.935951596934     0.593177224246    -1.515370738514     1.007825032230
         H           -3.360927596934     0.644438224246    -1.146944738514     1.007825032230
         H           -0.438635596934     1.223653224246     1.403518261486     1.007825032230
         H           -3.280302596934    -0.906960775754     1.130303261486     1.007825032230
         H           -1.711653596934    -1.698531775754    -1.369943738514     1.007825032230
         H           -3.483906596934    -1.832230775754    -1.184614738514     1.007825032230
         H           -0.295870596934     2.714952224246    -0.525479738514     1.007825032230
         H           -2.845901596934     2.401516224246     0.508183261486     1.007825032230
         H            0.435965403066    -1.961663775754     0.568588261486     1.007825032230
         H           -2.432219596934    -3.796658775754    -0.543712738514     1.007825032230
         H            2.830766403066    -2.643624775754     0.073442261486     1.007825032230
         H            5.126834403066    -1.669087775754    -0.162893738514     1.007825032230
         H            5.321468403066    -0.018280775754    -0.568773738514     1.007825032230

  Basis Set: AUG-CC-PVTZ
    Blend: AUG-CC-PVTZ
  Basis Set: (AUG-CC-PVTZ AUX)
    Blend: AUG-CC-PVTZ-JKFIT
	 Reference Energy          =    -886.3736664391440172 [Eh]
	 Singles Energy            =      -0.0000000000000000 [Eh]
	 Same-Spin Energy          =      -0.9012426850391434 [Eh]
	 Opposite-Spin Energy      =      -2.7146039470346066 [Eh]
	 Correlation Energy        =      -3.6158466320737501 [Eh]
	 Total Energy              =    -889.9895130712177433 [Eh]

	 ================> DF-SCS-MP2 Energies <==================
	-----------------------------------------------------------
	 SCS Same-Spin Scale       =       0.3333333333333333 [-]
	 SCS Opposite-Spin Scale   =       1.2000000000000000 [-]
	 SCS Same-Spin Energy      =      -0.3004142283463811 [Eh]
	 SCS Opposite-Spin Energy  =      -3.2575247364415278 [Eh]
	 SCS Correlation Energy    =      -3.5579389647879092 [Eh]
	 SCS Total Energy          =    -889.9316054039319397 [Eh]
	-----------------------------------------------------------

  Dipole Moment: [D]
     X:     1.7499      Y:    -5.8497      Z:    -1.8304     Total:     6.3743

*** Psi4 exiting successfully. Buy a developer a beer!
