                               Psi4 1.3.2 release

  ==> Input File <==

--------------------------------------------------------------------------
#psi4
#
memory 32 gb

molecule  {
0 1
  O       -1.2481010    -0.6526680     1.0325150
  O       -1.2449750     2.4828510    -0.6861630
  O       -3.2165300     1.5210990     0.7448870
  O       -2.3570290    -3.0668370     0.0949400
  O        1.3605300     2.2470340    -0.0765420
  N        0.8434040     0.0452230     0.2559430
  N        3.0572260     0.7205030    -0.2937270
  N        4.7164630    -0.8366550    -0.5722980
  C       -1.2894840     1.0784300    -0.5920770
  C       -2.7151710     0.6552070    -0.2573930
  C       -0.5254080     0.4815200     0.6000940
  C       -2.5292560    -0.7168860     0.3610560
  C       -2.5283440    -1.8503930    -0.6392900
  C        1.2225603    -1.2499696     0.3095653
  C        1.7555940     1.0674350    -0.0594030
  C        2.5111010    -1.6091400     0.0469950
  C        3.4027415    -0.5424675    -0.2575659
  H       -0.9376060     0.5914040    -1.5148910
  H       -3.3625820     0.6426650    -1.1464650
  H       -0.4402900     1.2218800     1.4039980
  H       -3.2819570    -0.9087340     1.1307830
  H       -1.7133080    -1.7003050    -1.3694640
  H       -3.4855610    -1.8340040    -1.1841350
  H       -0.2975250     2.7131790    -0.5250000
  H       -2.8475560     2.3997430     0.5086630
  H        0.4343110    -1.9634370     0.5690680
  H       -2.4338740    -3.7984320    -0.5432330
  H        2.8291120    -2.6453980     0.0739220
  H        5.1251800    -1.6708610    -0.1624140
  H        5.3198140    -0.0200540    -0.5682940
units angstrom
no_reorient  #important for SAPT in psi4, default
symmetry c1  #important for SAPT in psi4, default
}

set PROPERTIES_ORIGIN ["COM"]
properties('MP2/aug-cc-pvtz', properties = ['dipole'])
--------------------------------------------------------------------------

    Molecular point group: c1
  Charge       = 0
  Multiplicity = 1
  Basis Set: AUG-CC-PVTZ
    Blend: AUG-CC-PVTZ
  Basis Set: (AUG-CC-PVTZ AUX)
    Blend: AUG-CC-PVTZ-JKFIT

    Orbital Energies [Eh]
    ---------------------

    Doubly Occupied:

       1A    -20.582432     2A    -20.582236     3A    -20.558326
       4A    -20.558018     5A    -20.523502     6A    -15.638279
       7A    -15.597125     8A    -15.554047     9A    -11.389650
      10A    -11.356518    11A    -11.342732    12A    -11.327928
      13A    -11.301486    14A    -11.297509    15A    -11.297393
      16A    -11.293554    17A    -11.247633    18A     -1.430481
      19A     -1.398114    20A     -1.380733    21A     -1.373188
      22A     -1.346991    23A     -1.307648    24A     -1.274161
      25A     -1.182692    26A     -1.082162    27A     -1.068279
      28A     -1.022170    29A     -0.936038    30A     -0.909965
      31A     -0.878214    32A     -0.832978    33A     -0.812236
      34A     -0.766784    35A     -0.753572    36A     -0.737100
      37A     -0.717959    38A     -0.702710    39A     -0.698902
      40A     -0.684230    41A     -0.672582    42A     -0.655496
      43A     -0.652529    44A     -0.639894    45A     -0.620300
      46A     -0.614474    47A     -0.605175    48A     -0.595680
      49A     -0.575858    50A     -0.569895    51A     -0.554369
      52A     -0.545906    53A     -0.537890    54A     -0.531315
      55A     -0.499769    56A     -0.477961    57A     -0.475101
      58A     -0.463012    59A     -0.461437    60A     -0.453497
      61A     -0.441118    62A     -0.434279    63A     -0.396744
      64A     -0.349759

  @DF-RHF Final Energy:  -886.37350531987477

   => Energetics <=

    Nuclear Repulsion Energy =           1324.1406352745227650
    One-Electron Energy =               -3845.8888517489053811
    Two-Electron Energy =                1635.3747111545076223
    Total Energy =                       -886.3735053198747664
  Basis Set: (AUG-CC-PVTZ AUX)
    Blend: AUG-CC-PVTZ-RI
    Molecular point group: c1

    Geometry (in Angstrom), charge = 0, multiplicity = 1:

       Center              X                  Y                   Z               Mass
    ------------   -----------------  -----------------  -----------------  -----------------
         O           -1.247782321411    -0.653636730408     1.032532265604    15.994914619570
         O           -1.244656321411     2.481882269592    -0.686145734396    15.994914619570
         O           -3.216211321411     1.520130269592     0.744904265604    15.994914619570
         O           -2.356710321411    -3.067805730408     0.094957265604    15.994914619570
         O            1.360848678589     2.246065269592    -0.076524734396    15.994914619570
         N            0.843722678589     0.044254269592     0.255960265604    14.003074004430
         N            3.057544678589     0.719534269592    -0.293709734396    14.003074004430
         N            4.716781678589    -0.837623730408    -0.572280734396    14.003074004430
         C           -1.289165321411     1.077461269592    -0.592059734396    12.000000000000
         C           -2.714852321411     0.654238269592    -0.257375734396    12.000000000000
         C           -0.525089321411     0.480551269592     0.600111265604    12.000000000000
         C           -2.528937321411    -0.717854730408     0.361073265604    12.000000000000
         C           -2.528025321411    -1.851361730408    -0.639272734396    12.000000000000
         C            1.222878978589    -1.250938330408     0.309582565604    12.000000000000
         C            1.755912678589     1.066466269592    -0.059385734396    12.000000000000
         C            2.511419678589    -1.610108730408     0.047012265604    12.000000000000
         C            3.403060178589    -0.543436230408    -0.257548634396    12.000000000000
         H           -0.937287321411     0.590435269592    -1.514873734396     1.007825032230
         H           -3.362263321411     0.641696269592    -1.146447734396     1.007825032230
         H           -0.439971321411     1.220911269592     1.404015265604     1.007825032230
         H           -3.281638321411    -0.909702730408     1.130800265604     1.007825032230
         H           -1.712989321411    -1.701273730408    -1.369446734396     1.007825032230
         H           -3.485242321411    -1.834972730408    -1.184117734396     1.007825032230
         H           -0.297206321411     2.712210269592    -0.524982734396     1.007825032230
         H           -2.847237321411     2.398774269592     0.508680265604     1.007825032230
         H            0.434629678589    -1.964405730408     0.569085265604     1.007825032230
         H           -2.433555321411    -3.799400730408    -0.543215734396     1.007825032230
         H            2.829430678589    -2.646366730408     0.073939265604     1.007825032230
         H            5.125498678589    -1.671829730408    -0.162396734396     1.007825032230
         H            5.320132678589    -0.021022730408    -0.568276734396     1.007825032230

  Basis Set: AUG-CC-PVTZ
    Blend: AUG-CC-PVTZ
  Basis Set: (AUG-CC-PVTZ AUX)
    Blend: AUG-CC-PVTZ-JKFIT
	 Reference Energy          =    -886.3735053198747664 [Eh]
	 Singles Energy            =      -0.0000000000000000 [Eh]
	 Same-Spin Energy          =      -0.9011764895165295 [Eh]
	 Opposite-Spin Energy      =      -2.7147153261095505 [Eh]
	 Correlation Energy        =      -3.6158918156260800 [Eh]
	 Total Energy              =    -889.9893971355008944 [Eh]

	 ================> DF-SCS-MP2 Energies <==================
	-----------------------------------------------------------
	 SCS Same-Spin Scale       =       0.3333333333333333 [-]
	 SCS Opposite-Spin Scale   =       1.2000000000000000 [-]
	 SCS Same-Spin Energy      =      -0.3003921631721765 [Eh]
	 SCS Opposite-Spin Energy  =      -3.2576583913314603 [Eh]
	 SCS Correlation Energy    =      -3.5580505545036369 [Eh]
	 SCS Total Energy          =    -889.9315558743784322 [Eh]
	-----------------------------------------------------------

  Dipole Moment: [D]
     X:     1.5690      Y:    -5.8724      Z:    -1.8023     Total:     6.3399

*** Psi4 exiting successfully. Buy a developer a beer!
