                               Psi4 1.3.2 release

  ==> Input File <==

--------------------------------------------------------------------------
#psi4
#
memory 32 gb

molecule  {
0 1
  O       -1.2402074    -0.6724161     1.0188670
  O       -1.2449750     2.4828510    -0.6861630
  O       -3.2165300     1.5210990     0.7448870
  O       -2.3570290    -3.0668370     0.0949400
  O        1.3605300     2.2470340    -0.0765420
  N        0.8434040     0.0452230     0.2559430
  N        3.0572260     0.7205030    -0.2937270
  N        4.7164630    -0.8366550    -0.5722980
  C       -1.2894840     1.0784300    -0.5920770
  C       -2.7151710     0.6552070    -0.2573930
  C       -0.5254080     0.4815200     0.6000940
  C       -2.5292560    -0.7168860     0.3610560
  C       -2.5035170    -1.8561184    -0.6324318
  C        1.2197750    -1.2614080     0.3112740
  C        1.7555940     1.0674350    -0.0594030
  C        2.5111010    -1.6091400     0.0469950
  C        3.4119830    -0.5506530    -0.2589250
  H       -0.9376060     0.5914040    -1.5148910
  H       -3.3625820     0.6426650    -1.1464650
  H       -0.4402900     1.2218800     1.4039980
  H       -3.2819570    -0.9087340     1.1307830
  H       -1.7133080    -1.7003050    -1.3694640
  H       -3.4855610    -1.8340040    -1.1841350
  H       -0.2975250     2.7131790    -0.5250000
  H       -2.8475560     2.3997430     0.5086630
  H        0.4343110    -1.9634370     0.5690680
  H       -2.4338740    -3.7984320    -0.5432330
  H        2.8291120    -2.6453980     0.0739220
  H        5.1251800    -1.6708610    -0.1624140
  H        5.3198140    -0.0200540    -0.5682940
units angstrom
no_reorient  #important for SAPT in psi4, default
symmetry c1  #important for SAPT in psi4, default
}

set PROPERTIES_ORIGIN ["COM"]
properties('MP2/aug-cc-pvtz', properties = ['dipole'])
--------------------------------------------------------------------------

    Molecular point group: c1
  Charge       = 0
  Multiplicity = 1
  Basis Set: AUG-CC-PVTZ
    Blend: AUG-CC-PVTZ
  Basis Set: (AUG-CC-PVTZ AUX)
    Blend: AUG-CC-PVTZ-JKFIT

    Orbital Energies [Eh]
    ---------------------

    Doubly Occupied:

       1A    -20.582779     2A    -20.581264     3A    -20.558201
       4A    -20.557589     5A    -20.522141     6A    -15.636958
       7A    -15.599844     8A    -15.553319     9A    -11.388279
      10A    -11.357830    11A    -11.342481    12A    -11.328249
      13A    -11.300866    14A    -11.297021    15A    -11.296457
      16A    -11.293353    17A    -11.248441    18A     -1.428292
      19A     -1.396439    20A     -1.381767    21A     -1.374628
      22A     -1.346666    23A     -1.306032    24A     -1.273722
      25A     -1.182257    26A     -1.082014    27A     -1.066743
      28A     -1.021479    29A     -0.934587    30A     -0.909191
      31A     -0.877266    32A     -0.833136    33A     -0.810996
      34A     -0.766632    35A     -0.752242    36A     -0.737155
      37A     -0.720686    38A     -0.704636    39A     -0.697171
      40A     -0.685899    41A     -0.672935    42A     -0.654696
      43A     -0.650753    44A     -0.638726    45A     -0.620404
      46A     -0.614039    47A     -0.607262    48A     -0.593910
      49A     -0.576174    50A     -0.570430    51A     -0.554781
      52A     -0.544975    53A     -0.537848    54A     -0.531596
      55A     -0.498121    56A     -0.476642    57A     -0.473552
      58A     -0.462297    59A     -0.460219    60A     -0.453489
      61A     -0.439797    62A     -0.433139    63A     -0.395266
      64A     -0.350046

  @DF-RHF Final Energy:  -886.37216356394401

   => Energetics <=

    Nuclear Repulsion Energy =           1324.0598983592069544
    One-Electron Energy =               -3845.7725157105601284
    Two-Electron Energy =                1635.3404537874093876
    Total Energy =                       -886.3721635639440137
  Basis Set: (AUG-CC-PVTZ AUX)
    Blend: AUG-CC-PVTZ-RI
    Molecular point group: c1

    Geometry (in Angstrom), charge = 0, multiplicity = 1:

       Center              X                  Y                   Z               Mass
    ------------   -----------------  -----------------  -----------------  -----------------
         O           -1.241952422519    -0.670834037699     1.019426482164    15.994914619570
         O           -1.246720022519     2.484433062301    -0.685603517836    15.994914619570
         O           -3.218275022519     1.522681062301     0.745446482164    15.994914619570
         O           -2.358774022519    -3.065254937699     0.095499482164    15.994914619570
         O            1.358784977481     2.248616062301    -0.075982517836    15.994914619570
         N            0.841658977481     0.046805062301     0.256502482164    14.003074004430
         N            3.055480977481     0.722085062301    -0.293167517836    14.003074004430
         N            4.714717977481    -0.835072937699    -0.571738517836    14.003074004430
         C           -1.291229022519     1.080012062301    -0.591517517836    12.000000000000
         C           -2.716916022519     0.656789062301    -0.256833517836    12.000000000000
         C           -0.527153022519     0.483102062301     0.600653482164    12.000000000000
         C           -2.531001022519    -0.715303937699     0.361615482164    12.000000000000
         C           -2.505262022519    -1.854536337699    -0.631872317836    12.000000000000
         C            1.218029977481    -1.259825937699     0.311833482164    12.000000000000
         C            1.753848977481     1.069017062301    -0.058843517836    12.000000000000
         C            2.509355977481    -1.607557937699     0.047554482164    12.000000000000
         C            3.410237977481    -0.549070937699    -0.258365517836    12.000000000000
         H           -0.939351022519     0.592986062301    -1.514331517836     1.007825032230
         H           -3.364327022519     0.644247062301    -1.145905517836     1.007825032230
         H           -0.442035022519     1.223462062301     1.404557482164     1.007825032230
         H           -3.283702022519    -0.907151937699     1.131342482164     1.007825032230
         H           -1.715053022519    -1.698722937699    -1.368904517836     1.007825032230
         H           -3.487306022519    -1.832421937699    -1.183575517836     1.007825032230
         H           -0.299270022519     2.714761062301    -0.524440517836     1.007825032230
         H           -2.849301022519     2.401325062301     0.509222482164     1.007825032230
         H            0.432565977481    -1.961854937699     0.569627482164     1.007825032230
         H           -2.435619022519    -3.796849937699    -0.542673517836     1.007825032230
         H            2.827366977481    -2.643815937699     0.074481482164     1.007825032230
         H            5.123434977481    -1.669278937699    -0.161854517836     1.007825032230
         H            5.318068977481    -0.018471937699    -0.567734517836     1.007825032230

  Basis Set: AUG-CC-PVTZ
    Blend: AUG-CC-PVTZ
  Basis Set: (AUG-CC-PVTZ AUX)
    Blend: AUG-CC-PVTZ-JKFIT
	 Reference Energy          =    -886.3721635639440137 [Eh]
	 Singles Energy            =      -0.0000000000000000 [Eh]
	 Same-Spin Energy          =      -0.9013397438826910 [Eh]
	 Opposite-Spin Energy      =      -2.7150834626701275 [Eh]
	 Correlation Energy        =      -3.6164232065528186 [Eh]
	 Total Energy              =    -889.9885867704967950 [Eh]

	 ================> DF-SCS-MP2 Energies <==================
	-----------------------------------------------------------
	 SCS Same-Spin Scale       =       0.3333333333333333 [-]
	 SCS Opposite-Spin Scale   =       1.2000000000000000 [-]
	 SCS Same-Spin Energy      =      -0.3004465812942303 [Eh]
	 SCS Opposite-Spin Energy  =      -3.2581001552041529 [Eh]
	 SCS Correlation Energy    =      -3.5585467364983829 [Eh]
	 SCS Total Energy          =    -889.9307103004423425 [Eh]
	-----------------------------------------------------------

  Dipole Moment: [D]
     X:     1.7441      Y:    -5.9332      Z:    -1.7823     Total:     6.4360

*** Psi4 exiting successfully. Buy a developer a beer!
