                               Psi4 1.3.2 release

  ==> Input File <==

--------------------------------------------------------------------------
#psi4
#
memory 32 gb

molecule  {
0 1
  O       -1.2481010    -0.6526680     1.0325150
  O       -1.2405835     2.4818918    -0.6976009
  O       -3.2165300     1.5210990     0.7448870
  O       -2.3570290    -3.0668370     0.0949400
  O        1.3605300     2.2470340    -0.0765420
  N        0.8434040     0.0452230     0.2559430
  N        3.0572260     0.7205030    -0.2937270
  N        4.7164630    -0.8366550    -0.5722980
  C       -1.2894840     1.0784300    -0.5920770
  C       -2.7151710     0.6552070    -0.2573930
  C       -0.5254080     0.4815200     0.6000940
  C       -2.5292560    -0.7168860     0.3610560
  C       -2.5283440    -1.8503930    -0.6392900
  C        1.2197750    -1.2614080     0.3112740
  C        1.7555940     1.0674350    -0.0594030
  C        2.5111010    -1.6091400     0.0469950
  C        3.4119830    -0.5506530    -0.2589250
  H       -0.9360497     0.6000409    -1.5188058
  H       -3.3625820     0.6426650    -1.1464650
  H       -0.4402900     1.2218800     1.4039980
  H       -3.2819570    -0.9087340     1.1307830
  H       -1.7133080    -1.7003050    -1.3694640
  H       -3.4855610    -1.8340040    -1.1841350
  H       -0.2975250     2.7131790    -0.5250000
  H       -2.8475560     2.3997430     0.5086630
  H        0.4343110    -1.9634370     0.5690680
  H       -2.4338740    -3.7984320    -0.5432330
  H        2.8291120    -2.6453980     0.0739220
  H        5.1251800    -1.6708610    -0.1624140
  H        5.3198140    -0.0200540    -0.5682940
units angstrom
no_reorient  #important for SAPT in psi4, default
symmetry c1  #important for SAPT in psi4, default
}

set PROPERTIES_ORIGIN ["COM"]
properties('MP2/aug-cc-pvtz', properties = ['dipole'])
--------------------------------------------------------------------------

    Molecular point group: c1
  Charge       = 0
  Multiplicity = 1
  Basis Set: AUG-CC-PVTZ
    Blend: AUG-CC-PVTZ
  Basis Set: (AUG-CC-PVTZ AUX)
    Blend: AUG-CC-PVTZ-JKFIT

    Orbital Energies [Eh]
    ---------------------

    Doubly Occupied:

       1A    -20.582276     2A    -20.581799     3A    -20.558270
       4A    -20.556645     5A    -20.521889     6A    -15.636952
       7A    -15.599834     8A    -15.553310     9A    -11.388208
      10A    -11.357837    11A    -11.341876    12A    -11.328534
      13A    -11.301210    14A    -11.297083    15A    -11.296552
      16A    -11.293199    17A    -11.248551    18A     -1.429446
      19A     -1.396380    20A     -1.380086    21A     -1.372852
      22A     -1.346737    23A     -1.306028    24A     -1.273800
      25A     -1.182228    26A     -1.081979    27A     -1.067797
      28A     -1.021402    29A     -0.935505    30A     -0.909478
      31A     -0.877325    32A     -0.832525    33A     -0.811922
      34A     -0.766978    35A     -0.752584    36A     -0.735834
      37A     -0.720245    38A     -0.703081    39A     -0.698720
      40A     -0.685653    41A     -0.672817    42A     -0.654508
      43A     -0.651747    44A     -0.638500    45A     -0.620872
      46A     -0.614394    47A     -0.606672    48A     -0.593776
      49A     -0.575897    50A     -0.569986    51A     -0.553931
      52A     -0.545793    53A     -0.537581    54A     -0.531887
      55A     -0.498229    56A     -0.477665    57A     -0.474206
      58A     -0.462353    59A     -0.460072    60A     -0.452566
      61A     -0.440889    62A     -0.433125    63A     -0.395195
      64A     -0.349979

  @DF-RHF Final Energy:  -886.37367526131413

   => Energetics <=

    Nuclear Repulsion Energy =           1323.6168007947717342
    One-Electron Energy =               -3844.8904504991655813
    Two-Electron Energy =                1634.8999744430796000
    Total Energy =                       -886.3736752613142471
  Basis Set: (AUG-CC-PVTZ AUX)
    Blend: AUG-CC-PVTZ-RI
    Molecular point group: c1

    Geometry (in Angstrom), charge = 0, multiplicity = 1:

       Center              X                  Y                   Z               Mass
    ------------   -----------------  -----------------  -----------------  -----------------
         O           -1.248396444973    -0.652640683265     1.033283846640    15.994914619570
         O           -1.240878944973     2.481919116735    -0.696832053360    15.994914619570
         O           -3.216825444973     1.521126316735     0.745655846640    15.994914619570
         O           -2.357324444973    -3.066809683265     0.095708846640    15.994914619570
         O            1.360234555027     2.247061316735    -0.075773153360    15.994914619570
         N            0.843108555027     0.045250316735     0.256711846640    14.003074004430
         N            3.056930555027     0.720530316735    -0.292958153360    14.003074004430
         N            4.716167555027    -0.836627683265    -0.571529153360    14.003074004430
         C           -1.289779444973     1.078457316735    -0.591308153360    12.000000000000
         C           -2.715466444973     0.655234316735    -0.256624153360    12.000000000000
         C           -0.525703444973     0.481547316735     0.600862846640    12.000000000000
         C           -2.529551444973    -0.716858683265     0.361824846640    12.000000000000
         C           -2.528639444973    -1.850365683265    -0.638521153360    12.000000000000
         C            1.219479555027    -1.261380683265     0.312042846640    12.000000000000
         C            1.755298555027     1.067462316735    -0.058634153360    12.000000000000
         C            2.510805555027    -1.609112683265     0.047763846640    12.000000000000
         C            3.411687555027    -0.550625683265    -0.258156153360    12.000000000000
         H           -0.936345144973     0.600068216735    -1.518036953360     1.007825032230
         H           -3.362877444973     0.642692316735    -1.145696153360     1.007825032230
         H           -0.440585444973     1.221907316735     1.404766846640     1.007825032230
         H           -3.282252444973    -0.908706683265     1.131551846640     1.007825032230
         H           -1.713603444973    -1.700277683265    -1.368695153360     1.007825032230
         H           -3.485856444973    -1.833976683265    -1.183366153360     1.007825032230
         H           -0.297820444973     2.713206316735    -0.524231153360     1.007825032230
         H           -2.847851444973     2.399770316735     0.509431846640     1.007825032230
         H            0.434015555027    -1.963409683265     0.569836846640     1.007825032230
         H           -2.434169444973    -3.798404683265    -0.542464153360     1.007825032230
         H            2.828816555027    -2.645370683265     0.074690846640     1.007825032230
         H            5.124884555027    -1.670833683265    -0.161645153360     1.007825032230
         H            5.319518555027    -0.020026683265    -0.567525153360     1.007825032230

  Basis Set: AUG-CC-PVTZ
    Blend: AUG-CC-PVTZ
  Basis Set: (AUG-CC-PVTZ AUX)
    Blend: AUG-CC-PVTZ-JKFIT
	 Reference Energy          =    -886.3736752613141334 [Eh]
	 Singles Energy            =      -0.0000000000000000 [Eh]
	 Same-Spin Energy          =      -0.9011570035607189 [Eh]
	 Opposite-Spin Energy      =      -2.7148321194612506 [Eh]
	 Correlation Energy        =      -3.6159891230219694 [Eh]
	 Total Energy              =    -889.9896643843361517 [Eh]

	 ================> DF-SCS-MP2 Energies <==================
	-----------------------------------------------------------
	 SCS Same-Spin Scale       =       0.3333333333333333 [-]
	 SCS Opposite-Spin Scale   =       1.2000000000000000 [-]
	 SCS Same-Spin Energy      =      -0.3003856678535730 [Eh]
	 SCS Opposite-Spin Energy  =      -3.2577985433535006 [Eh]
	 SCS Correlation Energy    =      -3.5581842112070734 [Eh]
	 SCS Total Energy          =    -889.9318594725211824 [Eh]
	-----------------------------------------------------------

  Dipole Moment: [D]
     X:     1.6963      Y:    -5.9533      Z:    -1.8001     Total:     6.4467

*** Psi4 exiting successfully. Buy a developer a beer!
