                               Psi4 1.3.2 release

  ==> Input File <==

--------------------------------------------------------------------------
#psi4
#
memory 32 gb

molecule  {
0 1
  O       -1.2481010    -0.6526680     1.0325150
  O       -1.2449750     2.4828510    -0.6861630
  O       -3.2165300     1.5210990     0.7448870
  O       -2.3570290    -3.0668370     0.0949400
  O        1.3605300     2.2470340    -0.0765420
  N        0.8434040     0.0452230     0.2559430
  N        3.0572260     0.7205030    -0.2937270
  N        4.7164630    -0.8366550    -0.5722980
  C       -1.2894840     1.0784300    -0.5920770
  C       -2.7151710     0.6552070    -0.2573930
  C       -0.4742503     0.5618065     0.5694840
  C       -2.5292560    -0.7168860     0.3610560
  C       -2.5283440    -1.8503930    -0.6392900
  C        1.2197750    -1.2614080     0.3112740
  C        1.7555940     1.0674350    -0.0594030
  C        2.5111010    -1.6091400     0.0469950
  C        3.4119830    -0.5506530    -0.2589250
  H       -0.9376060     0.5914040    -1.5148910
  H       -3.3625820     0.6426650    -1.1464650
  H       -0.4402900     1.2218800     1.4039980
  H       -3.2819570    -0.9087340     1.1307830
  H       -1.7133080    -1.7003050    -1.3694640
  H       -3.4855610    -1.8340040    -1.1841350
  H       -0.2975250     2.7131790    -0.5250000
  H       -2.8475560     2.3997430     0.5086630
  H        0.4343110    -1.9634370     0.5690680
  H       -2.4338740    -3.7984320    -0.5432330
  H        2.8291120    -2.6453980     0.0739220
  H        5.1251800    -1.6708610    -0.1624140
  H        5.3198140    -0.0200540    -0.5682940
units angstrom
no_reorient  #important for SAPT in psi4, default
symmetry c1  #important for SAPT in psi4, default
}

set PROPERTIES_ORIGIN ["COM"]
properties('MP2/aug-cc-pvtz', properties = ['dipole'])
--------------------------------------------------------------------------

    Molecular point group: c1
  Charge       = 0
  Multiplicity = 1
  Basis Set: AUG-CC-PVTZ
    Blend: AUG-CC-PVTZ
  Basis Set: (AUG-CC-PVTZ AUX)
    Blend: AUG-CC-PVTZ-JKFIT

    Orbital Energies [Eh]
    ---------------------

    Doubly Occupied:

       1A    -20.579051     2A    -20.570160     3A    -20.556768
       4A    -20.556733     5A    -20.526199     6A    -15.641587
       7A    -15.601977     8A    -15.555329     9A    -11.390717
      10A    -11.360447    11A    -11.342710    12A    -11.332144
      13A    -11.297583    14A    -11.297142    15A    -11.292425
      16A    -11.290031    17A    -11.251526    18A     -1.418855
      19A     -1.392660    20A     -1.376841    21A     -1.361908
      22A     -1.345758    23A     -1.308593    24A     -1.277503
      25A     -1.185350    26A     -1.087849    27A     -1.060019
      28A     -1.022715    29A     -0.939110    30A     -0.910250
      31A     -0.878997    32A     -0.835252    33A     -0.805541
      34A     -0.768623    35A     -0.754697    36A     -0.738490
      37A     -0.720062    38A     -0.702512    39A     -0.694078
      40A     -0.685827    41A     -0.671541    42A     -0.654414
      43A     -0.651231    44A     -0.637603    45A     -0.620435
      46A     -0.608696    47A     -0.603638    48A     -0.599813
      49A     -0.570989    50A     -0.565527    51A     -0.552966
      52A     -0.542711    53A     -0.537115    54A     -0.528456
      55A     -0.500557    56A     -0.474226    57A     -0.471979
      58A     -0.463811    59A     -0.456930    60A     -0.451254
      61A     -0.442713    62A     -0.434744    63A     -0.398549
      64A     -0.354270

  @DF-RHF Final Energy:  -886.36265628098613

   => Energetics <=

    Nuclear Repulsion Energy =           1323.3428633091259599
    One-Electron Energy =               -3844.3946614488604610
    Two-Electron Energy =                1634.6891418587481439
    Total Energy =                       -886.3626562809861298
  Basis Set: (AUG-CC-PVTZ AUX)
    Blend: AUG-CC-PVTZ-RI
    Molecular point group: c1

    Geometry (in Angstrom), charge = 0, multiplicity = 1:

       Center              X                  Y                   Z               Mass
    ------------   -----------------  -----------------  -----------------  -----------------
         O           -1.250626451323    -0.656631360439     1.034026080617    15.994914619570
         O           -1.247500451323     2.478887639561    -0.684651919383    15.994914619570
         O           -3.219055451323     1.517135639561     0.746398080617    15.994914619570
         O           -2.359554451323    -3.070800360439     0.096451080617    15.994914619570
         O            1.358004548677     2.243070639561    -0.075030919383    15.994914619570
         N            0.840878548677     0.041259639561     0.257454080617    14.003074004430
         N            3.054700548677     0.716539639561    -0.292215919383    14.003074004430
         N            4.713937548677    -0.840618360439    -0.570786919383    14.003074004430
         C           -1.292009451323     1.074466639561    -0.590565919383    12.000000000000
         C           -2.717696451323     0.651243639561    -0.255881919383    12.000000000000
         C           -0.476775751323     0.557843139561     0.570995080617    12.000000000000
         C           -2.531781451323    -0.720849360439     0.362567080617    12.000000000000
         C           -2.530869451323    -1.854356360439    -0.637778919383    12.000000000000
         C            1.217249548677    -1.265371360439     0.312785080617    12.000000000000
         C            1.753068548677     1.063471639561    -0.057891919383    12.000000000000
         C            2.508575548677    -1.613103360439     0.048506080617    12.000000000000
         C            3.409457548677    -0.554616360439    -0.257413919383    12.000000000000
         H           -0.940131451323     0.587440639561    -1.513379919383     1.007825032230
         H           -3.365107451323     0.638701639561    -1.144953919383     1.007825032230
         H           -0.442815451323     1.217916639561     1.405509080617     1.007825032230
         H           -3.284482451323    -0.912697360439     1.132294080617     1.007825032230
         H           -1.715833451323    -1.704268360439    -1.367952919383     1.007825032230
         H           -3.488086451323    -1.837967360439    -1.182623919383     1.007825032230
         H           -0.300050451323     2.709215639561    -0.523488919383     1.007825032230
         H           -2.850081451323     2.395779639561     0.510174080617     1.007825032230
         H            0.431785548677    -1.967400360439     0.570579080617     1.007825032230
         H           -2.436399451323    -3.802395360439    -0.541721919383     1.007825032230
         H            2.826586548677    -2.649361360439     0.075433080617     1.007825032230
         H            5.122654548677    -1.674824360439    -0.160902919383     1.007825032230
         H            5.317288548677    -0.024017360439    -0.566782919383     1.007825032230

  Basis Set: AUG-CC-PVTZ
    Blend: AUG-CC-PVTZ
  Basis Set: (AUG-CC-PVTZ AUX)
    Blend: AUG-CC-PVTZ-JKFIT
	 Reference Energy          =    -886.3626562809861298 [Eh]
	 Singles Energy            =      -0.0000000000000000 [Eh]
	 Same-Spin Energy          =      -0.9017106059690828 [Eh]
	 Opposite-Spin Energy      =      -2.7170090217748757 [Eh]
	 Correlation Energy        =      -3.6187196277439586 [Eh]
	 Total Energy              =    -889.9813759087301150 [Eh]

	 ================> DF-SCS-MP2 Energies <==================
	-----------------------------------------------------------
	 SCS Same-Spin Scale       =       0.3333333333333333 [-]
	 SCS Opposite-Spin Scale   =       1.2000000000000000 [-]
	 SCS Same-Spin Energy      =      -0.3005702019896943 [Eh]
	 SCS Opposite-Spin Energy  =      -3.2604108261298506 [Eh]
	 SCS Correlation Energy    =      -3.5609810281195449 [Eh]
	 SCS Total Energy          =    -889.9236373091056294 [Eh]
	-----------------------------------------------------------

  Dipole Moment: [D]
     X:     2.1371      Y:    -5.7556      Z:    -1.8847     Total:     6.4223

*** Psi4 exiting successfully. Buy a developer a beer!
