                               Psi4 1.3.2 release

  ==> Input File <==

--------------------------------------------------------------------------
#psi4
#
memory 32 gb

molecule  {
0 1
  O       -1.2481010    -0.6526680     1.0325150
  O       -1.2449750     2.4828510    -0.6861630
  O       -3.2165300     1.5210990     0.7448870
  O       -2.3570290    -3.0668370     0.0949400
  O        1.3605300     2.2470340    -0.0765420
  N        0.8434040     0.0452230     0.2559430
  N        3.0572260     0.7205030    -0.2937270
  N        4.7164630    -0.8366550    -0.5722980
  C       -1.2894840     1.0784300    -0.5920770
  C       -2.7151710     0.6552070    -0.2573930
  C       -0.5254080     0.4815200     0.6000940
  C       -2.5292560    -0.7168860     0.3610560
  C       -2.5283440    -1.8503930    -0.6392900
  C        1.2197750    -1.2614080     0.3112740
  C        1.7555940     1.0674350    -0.0594030
  C        2.5111010    -1.6091400     0.0469950
  C        3.4119830    -0.5506530    -0.2589250
  H       -0.9376060     0.5914040    -1.5148910
  H       -3.3625820     0.6426650    -1.1464650
  H       -0.4402900     1.2218800     1.4039980
  H       -3.2819570    -0.9087340     1.1307830
  H       -1.7133080    -1.7003050    -1.3694640
  H       -3.4855610    -1.8340040    -1.1841350
  H       -0.2975250     2.7131790    -0.5250000
  H       -2.8475560     2.3997430     0.5086630
  H        0.4343110    -1.9634370     0.5690680
  H       -2.4338740    -3.7984320    -0.5432330
  H        2.8291120    -2.6453980     0.0739220
  H        5.1251800    -1.6708610    -0.1624140
  H        5.3198140    -0.0200540    -0.5682940
units angstrom
no_reorient  #important for SAPT in psi4, default
symmetry c1  #important for SAPT in psi4, default
}

set PROPERTIES_ORIGIN ["COM"]
properties('MP2/aug-cc-pvtz', properties = ['dipole'])
--------------------------------------------------------------------------

    Molecular point group: c1
  Charge       = 0
  Multiplicity = 1
  Basis Set: AUG-CC-PVTZ
    Blend: AUG-CC-PVTZ
  Basis Set: (AUG-CC-PVTZ AUX)
    Blend: AUG-CC-PVTZ-JKFIT

    Orbital Energies [Eh]
    ---------------------

    Doubly Occupied:

       1A    -20.582249     2A    -20.581611     3A    -20.557786
       4A    -20.557239     5A    -20.521997     6A    -15.636935
       7A    -15.599861     8A    -15.553354     9A    -11.388270
      10A    -11.357868    11A    -11.341563    12A    -11.328537
      13A    -11.301187    14A    -11.296928    15A    -11.296648
      16A    -11.292964    17A    -11.248569    18A     -1.429365
      19A     -1.396393    20A     -1.380117    21A     -1.372816
      22A     -1.346301    23A     -1.306070    24A     -1.273807
      25A     -1.182258    26A     -1.081977    27A     -1.067736
      28A     -1.021374    29A     -0.935448    30A     -0.909484
      31A     -0.877294    32A     -0.832334    33A     -0.811837
      34A     -0.766975    35A     -0.752398    36A     -0.736203
      37A     -0.720236    38A     -0.702958    39A     -0.698456
      40A     -0.685644    41A     -0.672817    42A     -0.654550
      43A     -0.651548    44A     -0.638466    45A     -0.620664
      46A     -0.614447    47A     -0.606716    48A     -0.593860
      49A     -0.575762    50A     -0.569747    51A     -0.554023
      52A     -0.545690    53A     -0.537539    54A     -0.531816
      55A     -0.498095    56A     -0.477505    57A     -0.474444
      58A     -0.462192    59A     -0.460046    60A     -0.452837
      61A     -0.440697    62A     -0.433146    63A     -0.395209
      64A     -0.350016

  @DF-RHF Final Energy:  -886.37346532912068

   => Energetics <=

    Nuclear Repulsion Energy =           1323.7102660522969018
    One-Electron Energy =               -3845.0816929521824932
    Two-Electron Energy =                1634.9979615707648009
    Total Energy =                       -886.3734653291207906
  Basis Set: (AUG-CC-PVTZ AUX)
    Blend: AUG-CC-PVTZ-RI
    Molecular point group: c1

    Geometry (in Angstrom), charge = 0, multiplicity = 1:

       Center              X                  Y                   Z               Mass
    ------------   -----------------  -----------------  -----------------  -----------------
         O           -1.248101033936    -0.652667989861     1.032515007481    15.994914619570
         O           -1.244975033936     2.482851010139    -0.686162992519    15.994914619570
         O           -3.216530033936     1.521099010139     0.744887007481    15.994914619570
         O           -2.357029033936    -3.066836989861     0.094940007481    15.994914619570
         O            1.360529966064     2.247034010139    -0.076541992519    15.994914619570
         N            0.843403966064     0.045223010139     0.255943007481    14.003074004430
         N            3.057225966064     0.720503010139    -0.293726992519    14.003074004430
         N            4.716462966064    -0.836654989861    -0.572297992519    14.003074004430
         C           -1.289484033936     1.078430010139    -0.592076992519    12.000000000000
         C           -2.715171033936     0.655207010139    -0.257392992519    12.000000000000
         C           -0.525408033936     0.481520010139     0.600094007481    12.000000000000
         C           -2.529256033936    -0.716885989861     0.361056007481    12.000000000000
         C           -2.528344033936    -1.850392989861    -0.639289992519    12.000000000000
         C            1.219774966064    -1.261407989861     0.311274007481    12.000000000000
         C            1.755593966064     1.067435010139    -0.059402992519    12.000000000000
         C            2.511100966064    -1.609139989861     0.046995007481    12.000000000000
         C            3.411982966064    -0.550652989861    -0.258924992519    12.000000000000
         H           -0.937606033936     0.591404010139    -1.514890992519     1.007825032230
         H           -3.362582033936     0.642665010139    -1.146464992519     1.007825032230
         H           -0.440290033936     1.221880010139     1.403998007481     1.007825032230
         H           -3.281957033936    -0.908733989861     1.130783007481     1.007825032230
         H           -1.713308033936    -1.700304989861    -1.369463992519     1.007825032230
         H           -3.485561033936    -1.834003989861    -1.184134992519     1.007825032230
         H           -0.297525033936     2.713179010139    -0.524999992519     1.007825032230
         H           -2.847556033936     2.399743010139     0.508663007481     1.007825032230
         H            0.434310966064    -1.963436989861     0.569068007481     1.007825032230
         H           -2.433874033936    -3.798431989861    -0.543232992519     1.007825032230
         H            2.829111966064    -2.645397989861     0.073922007481     1.007825032230
         H            5.125179966064    -1.670860989861    -0.162413992519     1.007825032230
         H            5.319813966064    -0.020053989861    -0.568293992519     1.007825032230

  Basis Set: AUG-CC-PVTZ
    Blend: AUG-CC-PVTZ
  Basis Set: (AUG-CC-PVTZ AUX)
    Blend: AUG-CC-PVTZ-JKFIT
	 Reference Energy          =    -886.3734653291206769 [Eh]
	 Singles Energy            =      -0.0000000000000000 [Eh]
	 Same-Spin Energy          =      -0.9012435023368087 [Eh]
	 Opposite-Spin Energy      =      -2.7149427840816722 [Eh]
	 Correlation Energy        =      -3.6161862864184808 [Eh]
	 Total Energy              =    -889.9896516155391737 [Eh]

	 ================> DF-SCS-MP2 Energies <==================
	-----------------------------------------------------------
	 SCS Same-Spin Scale       =       0.3333333333333333 [-]
	 SCS Opposite-Spin Scale   =       1.2000000000000000 [-]
	 SCS Same-Spin Energy      =      -0.3004145007789362 [Eh]
	 SCS Opposite-Spin Energy  =      -3.2579313408980064 [Eh]
	 SCS Correlation Energy    =      -3.5583458416769425 [Eh]
	 SCS Total Energy          =    -889.9318111707975731 [Eh]
	-----------------------------------------------------------

  Dipole Moment: [D]
     X:     1.7101      Y:    -5.9505      Z:    -1.8228     Total:     6.4541

*** Psi4 exiting successfully. Buy a developer a beer!
