                               Psi4 1.3.2 release

  ==> Input File <==

--------------------------------------------------------------------------
#psi4
#
memory 32 gb

molecule  {
0 1
  O       -1.2481010    -0.6526680     1.0325150
  O       -1.2449750     2.4828510    -0.6861630
  O       -3.2165300     1.5210990     0.7448870
  O       -2.3570290    -3.0668370     0.0949400
  O        1.3605300     2.2470340    -0.0765420
  N        0.8434040     0.0452230     0.2559430
  N        3.0572260     0.7205030    -0.2937270
  N        4.7164630    -0.8366550    -0.5722980
  C       -1.2894840     1.0784300    -0.5920770
  C       -2.7153620     0.6474914    -0.2682278
  C       -0.5254080     0.4815200     0.6000940
  C       -2.5292560    -0.7168860     0.3610560
  C       -2.5283440    -1.8503930    -0.6392900
  C        1.2197750    -1.2614080     0.3112740
  C        1.7555940     1.0674350    -0.0594030
  C        2.5111010    -1.6091400     0.0469950
  C        3.4119830    -0.5506530    -0.2589250
  H       -0.9460678     0.5869225    -1.5157024
  H       -3.3625820     0.6426650    -1.1464650
  H       -0.4402900     1.2218800     1.4039980
  H       -3.2819570    -0.9087340     1.1307830
  H       -1.7133080    -1.7003050    -1.3694640
  H       -3.4855610    -1.8340040    -1.1841350
  H       -0.2975250     2.7131790    -0.5250000
  H       -2.8475560     2.3997430     0.5086630
  H        0.4343110    -1.9634370     0.5690680
  H       -2.4338740    -3.7984320    -0.5432330
  H        2.8291120    -2.6453980     0.0739220
  H        5.1251800    -1.6708610    -0.1624140
  H        5.3198140    -0.0200540    -0.5682940
units angstrom
no_reorient  #important for SAPT in psi4, default
symmetry c1  #important for SAPT in psi4, default
}

set PROPERTIES_ORIGIN ["COM"]
properties('MP2/aug-cc-pvtz', properties = ['dipole'])
--------------------------------------------------------------------------

    Molecular point group: c1
  Charge       = 0
  Multiplicity = 1
  Basis Set: AUG-CC-PVTZ
    Blend: AUG-CC-PVTZ
  Basis Set: (AUG-CC-PVTZ AUX)
    Blend: AUG-CC-PVTZ-JKFIT

    Orbital Energies [Eh]
    ---------------------

    Doubly Occupied:

       1A    -20.582326     2A    -20.581943     3A    -20.557419
       4A    -20.556391     5A    -20.522032     6A    -15.637020
       7A    -15.599902     8A    -15.553399     9A    -11.388319
      10A    -11.357919    11A    -11.341879    12A    -11.328616
      13A    -11.301289    14A    -11.297292    15A    -11.297039
      16A    -11.292654    17A    -11.248636    18A     -1.429208
      19A     -1.396326    20A     -1.378678    21A     -1.372562
      22A     -1.343365    23A     -1.306121    24A     -1.273868
      25A     -1.182308    26A     -1.082053    27A     -1.068944
      28A     -1.021521    29A     -0.935676    30A     -0.909551
      31A     -0.877336    32A     -0.832377    33A     -0.812653
      34A     -0.767022    35A     -0.752612    36A     -0.736002
      37A     -0.720455    38A     -0.702387    39A     -0.697268
      40A     -0.685668    41A     -0.672123    42A     -0.654793
      43A     -0.651356    44A     -0.638736    45A     -0.620616
      46A     -0.614706    47A     -0.606450    48A     -0.594037
      49A     -0.575481    50A     -0.569557    51A     -0.553564
      52A     -0.544385    53A     -0.536995    54A     -0.531886
      55A     -0.498109    56A     -0.477923    57A     -0.475007
      58A     -0.462374    59A     -0.460404    60A     -0.452672
      61A     -0.441479    62A     -0.433226    63A     -0.395321
      64A     -0.350116

  @DF-RHF Final Energy:  -886.37306238090275

   => Energetics <=

    Nuclear Repulsion Energy =           1323.5930338447258237
    One-Electron Energy =               -3844.8534879189264757
    Two-Electron Energy =                1634.8873916932977863
    Total Energy =                       -886.3730623809026383
  Basis Set: (AUG-CC-PVTZ AUX)
    Blend: AUG-CC-PVTZ-RI
    Molecular point group: c1

    Geometry (in Angstrom), charge = 0, multiplicity = 1:

       Center              X                  Y                   Z               Mass
    ------------   -----------------  -----------------  -----------------  -----------------
         O           -1.248056522795    -0.652268526464     1.033053235134    15.994914619570
         O           -1.244930522795     2.483250473536    -0.685624764866    15.994914619570
         O           -3.216485522795     1.521498473536     0.745425235134    15.994914619570
         O           -2.356984522795    -3.066437526464     0.095478235134    15.994914619570
         O            1.360574477205     2.247433473536    -0.076003764866    15.994914619570
         N            0.843448477205     0.045622473536     0.256481235134    14.003074004430
         N            3.057270477205     0.720902473536    -0.293188764866    14.003074004430
         N            4.716507477205    -0.836255526464    -0.571759764866    14.003074004430
         C           -1.289439522795     1.078829473536    -0.591538764866    12.000000000000
         C           -2.715317522795     0.647890873536    -0.267689564866    12.000000000000
         C           -0.525363522795     0.481919473536     0.600632235134    12.000000000000
         C           -2.529211522795    -0.716486526464     0.361594235134    12.000000000000
         C           -2.528299522795    -1.849993526464    -0.638751764866    12.000000000000
         C            1.219819477205    -1.261008526464     0.311812235134    12.000000000000
         C            1.755638477205     1.067834473536    -0.058864764866    12.000000000000
         C            2.511145477205    -1.608740526464     0.047533235134    12.000000000000
         C            3.412027477205    -0.550253526464    -0.258386764866    12.000000000000
         H           -0.946023322795     0.587321973536    -1.515164164866     1.007825032230
         H           -3.362537522795     0.643064473536    -1.145926764866     1.007825032230
         H           -0.440245522795     1.222279473536     1.404536235134     1.007825032230
         H           -3.281912522795    -0.908334526464     1.131321235134     1.007825032230
         H           -1.713263522795    -1.699905526464    -1.368925764866     1.007825032230
         H           -3.485516522795    -1.833604526464    -1.183596764866     1.007825032230
         H           -0.297480522795     2.713578473536    -0.524461764866     1.007825032230
         H           -2.847511522795     2.400142473536     0.509201235134     1.007825032230
         H            0.434355477205    -1.963037526464     0.569606235134     1.007825032230
         H           -2.433829522795    -3.798032526464    -0.542694764866     1.007825032230
         H            2.829156477205    -2.644998526464     0.074460235134     1.007825032230
         H            5.125224477205    -1.670461526464    -0.161875764866     1.007825032230
         H            5.319858477205    -0.019654526464    -0.567755764866     1.007825032230

  Basis Set: AUG-CC-PVTZ
    Blend: AUG-CC-PVTZ
  Basis Set: (AUG-CC-PVTZ AUX)
    Blend: AUG-CC-PVTZ-JKFIT
	 Reference Energy          =    -886.3730623809027520 [Eh]
	 Singles Energy            =      -0.0000000000000000 [Eh]
	 Same-Spin Energy          =      -0.9012511908888259 [Eh]
	 Opposite-Spin Energy      =      -2.7151349943024803 [Eh]
	 Correlation Energy        =      -3.6163861851913062 [Eh]
	 Total Energy              =    -889.9894485660940973 [Eh]

	 ================> DF-SCS-MP2 Energies <==================
	-----------------------------------------------------------
	 SCS Same-Spin Scale       =       0.3333333333333333 [-]
	 SCS Opposite-Spin Scale   =       1.2000000000000000 [-]
	 SCS Same-Spin Energy      =      -0.3004170636296086 [Eh]
	 SCS Opposite-Spin Energy  =      -3.2581619931629762 [Eh]
	 SCS Correlation Energy    =      -3.5585790567925848 [Eh]
	 SCS Total Energy          =    -889.9316414376953617 [Eh]
	-----------------------------------------------------------

  Dipole Moment: [D]
     X:     1.7193      Y:    -5.9777      Z:    -1.8519     Total:     6.4898

*** Psi4 exiting successfully. Buy a developer a beer!
