                               Psi4 1.3.2 release

  ==> Input File <==

--------------------------------------------------------------------------
#psi4
#
memory 32 gb

molecule  {
0 1
  O       -1.2481010    -0.6526680     1.0325150
  O       -1.2449750     2.4828510    -0.6861630
  O       -3.2165300     1.5210990     0.7448870
  O       -2.3570290    -3.0668370     0.0949400
  O        1.3605300     2.2470340    -0.0765420
  N        0.8702121     0.0933938     0.3101908
  N        3.0572260     0.7205030    -0.2937270
  N        4.7164630    -0.8366550    -0.5722980
  C       -1.2894840     1.0784300    -0.5920770
  C       -2.7151710     0.6552070    -0.2573930
  C       -0.5254080     0.4815200     0.6000940
  C       -2.5292560    -0.7168860     0.3610560
  C       -2.5283440    -1.8503930    -0.6392900
  C        1.2197750    -1.2614080     0.3112740
  C        1.7555940     1.0674350    -0.0594030
  C        2.5111010    -1.6091400     0.0469950
  C        3.4119830    -0.5506530    -0.2589250
  H       -0.9376060     0.5914040    -1.5148910
  H       -3.3625820     0.6426650    -1.1464650
  H       -0.3833205     1.2152259     1.4020456
  H       -3.2819570    -0.9087340     1.1307830
  H       -1.7133080    -1.7003050    -1.3694640
  H       -3.4855610    -1.8340040    -1.1841350
  H       -0.2975250     2.7131790    -0.5250000
  H       -2.8475560     2.3997430     0.5086630
  H        0.4343110    -1.9634370     0.5690680
  H       -2.4338740    -3.7984320    -0.5432330
  H        2.8291120    -2.6453980     0.0739220
  H        5.1251800    -1.6708610    -0.1624140
  H        5.3198140    -0.0200540    -0.5682940
units angstrom
no_reorient  #important for SAPT in psi4, default
symmetry c1  #important for SAPT in psi4, default
}

set PROPERTIES_ORIGIN ["COM"]
properties('MP2/aug-cc-pvtz', properties = ['dipole'])
--------------------------------------------------------------------------

    Molecular point group: c1
  Charge       = 0
  Multiplicity = 1
  Basis Set: AUG-CC-PVTZ
    Blend: AUG-CC-PVTZ
  Basis Set: (AUG-CC-PVTZ AUX)
    Blend: AUG-CC-PVTZ-JKFIT

    Orbital Energies [Eh]
    ---------------------

    Doubly Occupied:

       1A    -20.583235     2A    -20.582780     3A    -20.557249
       4A    -20.556252     5A    -20.515425     6A    -15.634614
       7A    -15.600891     8A    -15.553150     9A    -11.382153
      10A    -11.358754    11A    -11.340419    12A    -11.331438
      13A    -11.301719    14A    -11.297600    15A    -11.297272
      16A    -11.293092    17A    -11.253463    18A     -1.429264
      19A     -1.397033    20A     -1.379785    21A     -1.372880
      22A     -1.345585    23A     -1.303539    24A     -1.270456
      25A     -1.181851    26A     -1.083478    27A     -1.068055
      28A     -1.022408    29A     -0.935770    30A     -0.912251
      31A     -0.876489    32A     -0.832282    33A     -0.811961
      34A     -0.767617    35A     -0.750579    36A     -0.733507
      37A     -0.720793    38A     -0.704051    39A     -0.698264
      40A     -0.686704    41A     -0.673053    42A     -0.655137
      43A     -0.651088    44A     -0.640989    45A     -0.620866
      46A     -0.615579    47A     -0.606904    48A     -0.587846
      49A     -0.576943    50A     -0.570519    51A     -0.553215
      52A     -0.545247    53A     -0.537319    54A     -0.530957
      55A     -0.491254    56A     -0.477575    57A     -0.474020
      58A     -0.461253    59A     -0.457354    60A     -0.452535
      61A     -0.441437    62A     -0.433502    63A     -0.394123
      64A     -0.353444

  @DF-RHF Final Energy:  -886.36932258091008

   => Energetics <=

    Nuclear Repulsion Energy =           1323.4913105678128886
    One-Electron Energy =               -3844.6687296022701048
    Two-Electron Energy =                1634.8080964535472503
    Total Energy =                       -886.3693225809099658
  Basis Set: (AUG-CC-PVTZ AUX)
    Blend: AUG-CC-PVTZ-RI
    Molecular point group: c1

    Geometry (in Angstrom), charge = 0, multiplicity = 1:

       Center              X                  Y                   Z               Mass
    ------------   -----------------  -----------------  -----------------  -----------------
         O           -1.249881522941    -0.655415307378     1.029398127961    15.994914619570
         O           -1.246755522941     2.480103692622    -0.689279872039    15.994914619570
         O           -3.218310522941     1.518351692622     0.741770127961    15.994914619570
         O           -2.358809522941    -3.069584307378     0.091823127961    15.994914619570
         O            1.358749477059     2.244286692622    -0.079658872039    15.994914619570
         N            0.868431577059     0.090646492622     0.307073927961    14.003074004430
         N            3.055445477059     0.717755692622    -0.296843872039    14.003074004430
         N            4.714682477059    -0.839402307378    -0.575414872039    14.003074004430
         C           -1.291264522941     1.075682692622    -0.595193872039    12.000000000000
         C           -2.716951522941     0.652459692622    -0.260509872039    12.000000000000
         C           -0.527188522941     0.478772692622     0.596977127961    12.000000000000
         C           -2.531036522941    -0.719633307378     0.357939127961    12.000000000000
         C           -2.530124522941    -1.853140307378    -0.642406872039    12.000000000000
         C            1.217994477059    -1.264155307378     0.308157127961    12.000000000000
         C            1.753813477059     1.064687692622    -0.062519872039    12.000000000000
         C            2.509320477059    -1.611887307378     0.043878127961    12.000000000000
         C            3.410202477059    -0.553400307378    -0.262041872039    12.000000000000
         H           -0.939386522941     0.588656692622    -1.518007872039     1.007825032230
         H           -3.364362522941     0.639917692622    -1.149581872039     1.007825032230
         H           -0.385101022941     1.212478592622     1.398928727961     1.007825032230
         H           -3.283737522941    -0.911481307378     1.127666127961     1.007825032230
         H           -1.715088522941    -1.703052307378    -1.372580872039     1.007825032230
         H           -3.487341522941    -1.836751307378    -1.187251872039     1.007825032230
         H           -0.299305522941     2.710431692622    -0.528116872039     1.007825032230
         H           -2.849336522941     2.396995692622     0.505546127961     1.007825032230
         H            0.432530477059    -1.966184307378     0.565951127961     1.007825032230
         H           -2.435654522941    -3.801179307378    -0.546349872039     1.007825032230
         H            2.827331477059    -2.648145307378     0.070805127961     1.007825032230
         H            5.123399477059    -1.673608307378    -0.165530872039     1.007825032230
         H            5.318033477059    -0.022801307378    -0.571410872039     1.007825032230

  Basis Set: AUG-CC-PVTZ
    Blend: AUG-CC-PVTZ
  Basis Set: (AUG-CC-PVTZ AUX)
    Blend: AUG-CC-PVTZ-JKFIT
	 Reference Energy          =    -886.3693225809100795 [Eh]
	 Singles Energy            =      -0.0000000000000000 [Eh]
	 Same-Spin Energy          =      -0.9010832586768360 [Eh]
	 Opposite-Spin Energy      =      -2.7150005030918698 [Eh]
	 Correlation Energy        =      -3.6160837617687056 [Eh]
	 Total Energy              =    -889.9854063426787434 [Eh]

	 ================> DF-SCS-MP2 Energies <==================
	-----------------------------------------------------------
	 SCS Same-Spin Scale       =       0.3333333333333333 [-]
	 SCS Opposite-Spin Scale   =       1.2000000000000000 [-]
	 SCS Same-Spin Energy      =      -0.3003610862256120 [Eh]
	 SCS Opposite-Spin Energy  =      -3.2580006037102436 [Eh]
	 SCS Correlation Energy    =      -3.5583616899358557 [Eh]
	 SCS Total Energy          =    -889.9276842708459299 [Eh]
	-----------------------------------------------------------

  Dipole Moment: [D]
     X:     1.7612      Y:    -6.1761      Z:    -1.8449     Total:     6.6820

*** Psi4 exiting successfully. Buy a developer a beer!
