                               Psi4 1.3.2 release

  ==> Input File <==

--------------------------------------------------------------------------
#psi4
#
memory 32 gb

molecule  {
0 1
  O       -1.2481010    -0.6526680     1.0325150
  O       -1.2449750     2.4828510    -0.6861630
  O       -3.2165300     1.5210990     0.7448870
  O       -2.3570290    -3.0668370     0.0949400
  O        1.3605300     2.2470340    -0.0765420
  N        0.8434040     0.0452230     0.2559430
  N        3.0572260     0.7205030    -0.2937270
  N        4.7164630    -0.8366550    -0.5722980
  C       -1.2894840     1.0784300    -0.5920770
  C       -2.7151710     0.6552070    -0.2573930
  C       -0.5431238     0.4076436     0.6145975
  C       -2.5292560    -0.7168860     0.3610560
  C       -2.5283440    -1.8503930    -0.6392900
  C        1.1537405    -1.2775843     0.3325807
  C        1.7555940     1.0674350    -0.0594030
  C        2.5111010    -1.6091400     0.0469950
  C        3.4119830    -0.5506530    -0.2589250
  H       -0.9376060     0.5914040    -1.5148910
  H       -3.3625820     0.6426650    -1.1464650
  H       -0.4402900     1.2218800     1.4039980
  H       -3.2819570    -0.9087340     1.1307830
  H       -1.7133080    -1.7003050    -1.3694640
  H       -3.4855610    -1.8340040    -1.1841350
  H       -0.2975250     2.7131790    -0.5250000
  H       -2.8475560     2.3997430     0.5086630
  H        0.4343110    -1.9634370     0.5690680
  H       -2.4338740    -3.7984320    -0.5432330
  H        2.8291120    -2.6453980     0.0739220
  H        5.1251800    -1.6708610    -0.1624140
  H        5.3198140    -0.0200540    -0.5682940
units angstrom
no_reorient  #important for SAPT in psi4, default
symmetry c1  #important for SAPT in psi4, default
}

set PROPERTIES_ORIGIN ["COM"]
properties('MP2/aug-cc-pvtz', properties = ['dipole'])
--------------------------------------------------------------------------

    Molecular point group: c1
  Charge       = 0
  Multiplicity = 1
  Basis Set: AUG-CC-PVTZ
    Blend: AUG-CC-PVTZ
  Basis Set: (AUG-CC-PVTZ AUX)
    Blend: AUG-CC-PVTZ-JKFIT

    Orbital Energies [Eh]
    ---------------------

    Doubly Occupied:

       1A    -20.589945     2A    -20.585719     3A    -20.558320
       4A    -20.557998     5A    -20.521300     6A    -15.640076
       7A    -15.596925     8A    -15.552592     9A    -11.389982
      10A    -11.355168    11A    -11.341731    12A    -11.334425
      13A    -11.305271    14A    -11.303105    15A    -11.296524
      16A    -11.293722    17A    -11.251964    18A     -1.453028
      19A     -1.398173    20A     -1.381593    21A     -1.378594
      22A     -1.346291    23A     -1.304216    24A     -1.274836
      25A     -1.180923    26A     -1.075567    27A     -1.068289
      28A     -1.016902    29A     -0.934749    30A     -0.920350
      31A     -0.875959    32A     -0.829472    33A     -0.817452
      34A     -0.765525    35A     -0.757898    36A     -0.736171
      37A     -0.723371    38A     -0.706219    39A     -0.701674
      40A     -0.692449    41A     -0.679314    42A     -0.658188
      43A     -0.650463    44A     -0.637423    45A     -0.624103
      46A     -0.619818    47A     -0.610110    48A     -0.589045
      49A     -0.579345    50A     -0.572438    51A     -0.556284
      52A     -0.546188    53A     -0.537165    54A     -0.529873
      55A     -0.496433    56A     -0.480421    57A     -0.475770
      58A     -0.465235    59A     -0.459137    60A     -0.453749
      61A     -0.435929    62A     -0.430191    63A     -0.391938
      64A     -0.339726

  @DF-RHF Final Energy:  -886.35733875063875

   => Energetics <=

    Nuclear Repulsion Energy =           1323.9093704281863211
    One-Electron Energy =               -3845.2679062829452050
    Two-Electron Energy =                1635.0011971041201377
    Total Energy =                       -886.3573387506387462
  Basis Set: (AUG-CC-PVTZ AUX)
    Blend: AUG-CC-PVTZ-RI
    Molecular point group: c1

    Geometry (in Angstrom), charge = 0, multiplicity = 1:

       Center              X                  Y                   Z               Mass
    ------------   -----------------  -----------------  -----------------  -----------------
         O           -1.243966671685    -0.648222507474     1.030747224689    15.994914619570
         O           -1.240840671685     2.487296492526    -0.687930775311    15.994914619570
         O           -3.212395671685     1.525544492526     0.743119224689    15.994914619570
         O           -2.352894671685    -3.062391507474     0.093172224689    15.994914619570
         O            1.364664328315     2.251479492526    -0.078309775311    15.994914619570
         N            0.847538328315     0.049668492526     0.254175224689    14.003074004430
         N            3.061360328315     0.724948492526    -0.295494775311    14.003074004430
         N            4.720597328315    -0.832209507474    -0.574065775311    14.003074004430
         C           -1.285349671685     1.082875492526    -0.593844775311    12.000000000000
         C           -2.711036671685     0.659652492526    -0.259160775311    12.000000000000
         C           -0.538989471685     0.412089092526     0.612829724689    12.000000000000
         C           -2.525121671685    -0.712440507474     0.359288224689    12.000000000000
         C           -2.524209671685    -1.845947507474    -0.641057775311    12.000000000000
         C            1.157874828315    -1.273138807474     0.330812924689    12.000000000000
         C            1.759728328315     1.071880492526    -0.061170775311    12.000000000000
         C            2.515235328315    -1.604694507474     0.045227224689    12.000000000000
         C            3.416117328315    -0.546207507474    -0.260692775311    12.000000000000
         H           -0.933471671685     0.595849492526    -1.516658775311     1.007825032230
         H           -3.358447671685     0.647110492526    -1.148232775311     1.007825032230
         H           -0.436155671685     1.226325492526     1.402230224689     1.007825032230
         H           -3.277822671685    -0.904288507474     1.129015224689     1.007825032230
         H           -1.709173671685    -1.695859507474    -1.371231775311     1.007825032230
         H           -3.481426671685    -1.829558507474    -1.185902775311     1.007825032230
         H           -0.293390671685     2.717624492526    -0.526767775311     1.007825032230
         H           -2.843421671685     2.404188492526     0.506895224689     1.007825032230
         H            0.438445328315    -1.958991507474     0.567300224689     1.007825032230
         H           -2.429739671685    -3.793986507474    -0.545000775311     1.007825032230
         H            2.833246328315    -2.640952507474     0.072154224689     1.007825032230
         H            5.129314328315    -1.666415507474    -0.164181775311     1.007825032230
         H            5.323948328315    -0.015608507474    -0.570061775311     1.007825032230

  Basis Set: AUG-CC-PVTZ
    Blend: AUG-CC-PVTZ
  Basis Set: (AUG-CC-PVTZ AUX)
    Blend: AUG-CC-PVTZ-JKFIT
	 Reference Energy          =    -886.3573387506387462 [Eh]
	 Singles Energy            =      -0.0000000000000000 [Eh]
	 Same-Spin Energy          =      -0.9025246243195619 [Eh]
	 Opposite-Spin Energy      =      -2.7163354578597598 [Eh]
	 Correlation Energy        =      -3.6188600821793218 [Eh]
	 Total Energy              =    -889.9761988328181133 [Eh]

	 ================> DF-SCS-MP2 Energies <==================
	-----------------------------------------------------------
	 SCS Same-Spin Scale       =       0.3333333333333333 [-]
	 SCS Opposite-Spin Scale   =       1.2000000000000000 [-]
	 SCS Same-Spin Energy      =      -0.3008415414398540 [Eh]
	 SCS Opposite-Spin Energy  =      -3.2596025494317118 [Eh]
	 SCS Correlation Energy    =      -3.5604440908715658 [Eh]
	 SCS Total Energy          =    -889.9177828415103022 [Eh]
	-----------------------------------------------------------

  Dipole Moment: [D]
     X:     1.3474      Y:    -6.1162      Z:    -1.7895     Total:     6.5135

*** Psi4 exiting successfully. Buy a developer a beer!
