                               Psi4 1.3.2 release

  ==> Input File <==

--------------------------------------------------------------------------
#psi4
#
memory 32 gb

molecule  {
0 1
  O       -1.2481010    -0.6526680     1.0325150
  O       -1.2449750     2.4828510    -0.6861630
  O       -3.2165300     1.5210990     0.7448870
  O       -2.3570290    -3.0668370     0.0949400
  O        1.3605300     2.2470340    -0.0765420
  N        0.8434040     0.0452230     0.2559430
  N        3.0572260     0.7205030    -0.2937270
  N        4.7280124    -0.7662238    -0.5802718
  C       -1.2894840     1.0784300    -0.5920770
  C       -2.7151710     0.6552070    -0.2573930
  C       -0.5254080     0.4815200     0.6000940
  C       -2.5292560    -0.7168860     0.3610560
  C       -2.5283440    -1.8503930    -0.6392900
  C        1.2197750    -1.2614080     0.3112740
  C        1.7555940     1.0674350    -0.0594030
  C        2.4576922    -1.5581616     0.0570270
  C        3.4119830    -0.5506530    -0.2589250
  H       -0.9376060     0.5914040    -1.5148910
  H       -3.3625820     0.6426650    -1.1464650
  H       -0.4402900     1.2218800     1.4039980
  H       -3.2819570    -0.9087340     1.1307830
  H       -1.7133080    -1.7003050    -1.3694640
  H       -3.4855610    -1.8340040    -1.1841350
  H       -0.2975250     2.7131790    -0.5250000
  H       -2.8475560     2.3997430     0.5086630
  H        0.4343110    -1.9634370     0.5690680
  H       -2.4338740    -3.7984320    -0.5432330
  H        2.8291120    -2.6453980     0.0739220
  H        5.1251800    -1.6708610    -0.1624140
  H        5.3198140    -0.0200540    -0.5682940
units angstrom
no_reorient  #important for SAPT in psi4, default
symmetry c1  #important for SAPT in psi4, default
}

set PROPERTIES_ORIGIN ["COM"]
properties('MP2/aug-cc-pvtz', properties = ['dipole'])
--------------------------------------------------------------------------

    Molecular point group: c1
  Charge       = 0
  Multiplicity = 1
  Basis Set: AUG-CC-PVTZ
    Blend: AUG-CC-PVTZ
  Basis Set: (AUG-CC-PVTZ AUX)
    Blend: AUG-CC-PVTZ-JKFIT

    Orbital Energies [Eh]
    ---------------------

    Doubly Occupied:

       1A    -20.581707     2A    -20.580250     3A    -20.556760
       4A    -20.555914     5A    -20.520074     6A    -15.631130
       7A    -15.603738     8A    -15.551986     9A    -11.385818
      10A    -11.360557    11A    -11.339175    12A    -11.317802
      13A    -11.300498    14A    -11.295927    15A    -11.295016
      16A    -11.291799    17A    -11.250803    18A     -1.427882
      19A     -1.395173    20A     -1.379094    21A     -1.371984
      22A     -1.345158    23A     -1.308893    24A     -1.275289
      25A     -1.181939    26A     -1.093556    27A     -1.066627
      28A     -1.020558    29A     -0.935744    30A     -0.908117
      31A     -0.877740    32A     -0.832272    33A     -0.811624
      34A     -0.773503    35A     -0.750548    36A     -0.734594
      37A     -0.725331    38A     -0.703616    39A     -0.697516
      40A     -0.679693    41A     -0.673462    42A     -0.650789
      43A     -0.644675    44A     -0.634832    45A     -0.632160
      46A     -0.614252    47A     -0.608885    48A     -0.583407
      49A     -0.575490    50A     -0.569464    51A     -0.553507
      52A     -0.544423    53A     -0.535968    54A     -0.531091
      55A     -0.500720    56A     -0.476772    57A     -0.473678
      58A     -0.460724    59A     -0.457925    60A     -0.451628
      61A     -0.441189    62A     -0.431032    63A     -0.394092
      64A     -0.356023

  @DF-RHF Final Energy:  -886.35797339920600

   => Energetics <=

    Nuclear Repulsion Energy =           1325.5309877883985337
    One-Electron Energy =               -3848.7547440338398701
    Two-Electron Energy =                1636.8657828462351063
    Total Energy =                       -886.3579733992060028
  Basis Set: (AUG-CC-PVTZ AUX)
    Blend: AUG-CC-PVTZ-RI
    Molecular point group: c1

    Geometry (in Angstrom), charge = 0, multiplicity = 1:

       Center              X                  Y                   Z               Mass
    ------------   -----------------  -----------------  -----------------  -----------------
         O           -1.246129799714    -0.659241783736     1.032479109462    15.994914619570
         O           -1.243003799714     2.476277216264    -0.686198890538    15.994914619570
         O           -3.214558799714     1.514525216264     0.744851109462    15.994914619570
         O           -2.355057799714    -3.073410783736     0.094904109462    15.994914619570
         O            1.362501200286     2.240460216264    -0.076577890538    15.994914619570
         N            0.845375200286     0.038649216264     0.255907109462    14.003074004430
         N            3.059197200286     0.713929216264    -0.293762890538    14.003074004430
         N            4.729983600286    -0.772797583736    -0.580307690538    14.003074004430
         C           -1.287512799714     1.071856216264    -0.592112890538    12.000000000000
         C           -2.713199799714     0.648633216264    -0.257428890538    12.000000000000
         C           -0.523436799714     0.474946216264     0.600058109462    12.000000000000
         C           -2.527284799714    -0.723459783736     0.361020109462    12.000000000000
         C           -2.526372799714    -1.856966783736    -0.639325890538    12.000000000000
         C            1.221746200286    -1.267981783736     0.311238109462    12.000000000000
         C            1.757565200286     1.060861216264    -0.059438890538    12.000000000000
         C            2.459663400286    -1.564735383736     0.056991109462    12.000000000000
         C            3.413954200286    -0.557226783736    -0.258960890538    12.000000000000
         H           -0.935634799714     0.584830216264    -1.514926890538     1.007825032230
         H           -3.360610799714     0.636091216264    -1.146500890538     1.007825032230
         H           -0.438318799714     1.215306216264     1.403962109462     1.007825032230
         H           -3.279985799714    -0.915307783736     1.130747109462     1.007825032230
         H           -1.711336799714    -1.706878783736    -1.369499890538     1.007825032230
         H           -3.483589799714    -1.840577783736    -1.184170890538     1.007825032230
         H           -0.295553799714     2.706605216264    -0.525035890538     1.007825032230
         H           -2.845584799714     2.393169216264     0.508627109462     1.007825032230
         H            0.436282200286    -1.970010783736     0.569032109462     1.007825032230
         H           -2.431902799714    -3.805005783736    -0.543268890538     1.007825032230
         H            2.831083200286    -2.651971783736     0.073886109462     1.007825032230
         H            5.127151200286    -1.677434783736    -0.162449890538     1.007825032230
         H            5.321785200286    -0.026627783736    -0.568329890538     1.007825032230

  Basis Set: AUG-CC-PVTZ
    Blend: AUG-CC-PVTZ
  Basis Set: (AUG-CC-PVTZ AUX)
    Blend: AUG-CC-PVTZ-JKFIT
	 Reference Energy          =    -886.3579733992060028 [Eh]
	 Singles Energy            =      -0.0000000000000000 [Eh]
	 Same-Spin Energy          =      -0.9011167793110544 [Eh]
	 Opposite-Spin Energy      =      -2.7148951347334251 [Eh]
	 Correlation Energy        =      -3.6160119140444795 [Eh]
	 Total Energy              =    -889.9739853132505232 [Eh]

	 ================> DF-SCS-MP2 Energies <==================
	-----------------------------------------------------------
	 SCS Same-Spin Scale       =       0.3333333333333333 [-]
	 SCS Opposite-Spin Scale   =       1.2000000000000000 [-]
	 SCS Same-Spin Energy      =      -0.3003722597703514 [Eh]
	 SCS Opposite-Spin Energy  =      -3.2578741616801099 [Eh]
	 SCS Correlation Energy    =      -3.5582464214504612 [Eh]
	 SCS Total Energy          =    -889.9162198206564653 [Eh]
	-----------------------------------------------------------

  Dipole Moment: [D]
     X:     1.8513      Y:    -6.0494      Z:    -1.8496     Total:     6.5911

*** Psi4 exiting successfully. Buy a developer a beer!
