                               Psi4 1.3.2 release

  ==> Input File <==

--------------------------------------------------------------------------
#psi4
#
memory 32 gb

molecule  {
0 1
  O       -1.2481010    -0.6526680     1.0325150
  O       -1.2449750     2.4828510    -0.6861630
  O       -3.2165300     1.5210990     0.7448870
  O       -2.3570290    -3.0668370     0.0949400
  O        1.3605300     2.2470340    -0.0765420
  N        0.8434040     0.0452230     0.2559430
  N        3.0572260     0.7205030    -0.2937270
  N        4.7164630    -0.8366550    -0.5722980
  C       -1.2894840     1.0784300    -0.5920770
  C       -2.7151710     0.6552070    -0.2573930
  C       -0.5317328     0.4570175     0.6050353
  C       -2.5292560    -0.7168860     0.3610560
  C       -2.5283440    -1.8503930    -0.6392900
  C        1.1978692    -1.2672004     0.3183960
  C        1.7555940     1.0674350    -0.0594030
  C        2.5111010    -1.6091400     0.0469950
  C        3.4119830    -0.5506530    -0.2589250
  H       -0.9376060     0.5914040    -1.5148910
  H       -3.3625820     0.6426650    -1.1464650
  H       -0.4402900     1.2218800     1.4039980
  H       -3.2819570    -0.9087340     1.1307830
  H       -1.7133080    -1.7003050    -1.3694640
  H       -3.4855610    -1.8340040    -1.1841350
  H       -0.2975250     2.7131790    -0.5250000
  H       -2.8475560     2.3997430     0.5086630
  H        0.4343110    -1.9634370     0.5690680
  H       -2.4338740    -3.7984320    -0.5432330
  H        2.8291120    -2.6453980     0.0739220
  H        5.1251800    -1.6708610    -0.1624140
  H        5.3198140    -0.0200540    -0.5682940
units angstrom
no_reorient  #important for SAPT in psi4, default
symmetry c1  #important for SAPT in psi4, default
}

set PROPERTIES_ORIGIN ["COM"]
properties('MP2/aug-cc-pvtz', properties = ['dipole'])
--------------------------------------------------------------------------

    Molecular point group: c1
  Charge       = 0
  Multiplicity = 1
  Basis Set: AUG-CC-PVTZ
    Blend: AUG-CC-PVTZ
  Basis Set: (AUG-CC-PVTZ AUX)
    Blend: AUG-CC-PVTZ-JKFIT

    Orbital Energies [Eh]
    ---------------------

    Doubly Occupied:

       1A    -20.584378     2A    -20.583383     3A    -20.557959
       4A    -20.557481     5A    -20.521723     6A    -15.637844
       7A    -15.598900     8A    -15.553088     9A    -11.388810
      10A    -11.356987    11A    -11.341370    12A    -11.330466
      13A    -11.302507    14A    -11.298926    15A    -11.296572
      16A    -11.293187    17A    -11.249755    18A     -1.436028
      19A     -1.397183    20A     -1.380723    21A     -1.374949
      22A     -1.346297    23A     -1.305359    24A     -1.274125
      25A     -1.181797    26A     -1.077387    27A     -1.070002
      28A     -1.019876    29A     -0.935148    30A     -0.912973
      31A     -0.876743    32A     -0.831087    33A     -0.813727
      34A     -0.766324    35A     -0.753630    36A     -0.735778
      37A     -0.721233    38A     -0.703855    39A     -0.699554
      40A     -0.688134    41A     -0.674378    42A     -0.655471
      43A     -0.651224    44A     -0.638124    45A     -0.622160
      46A     -0.616589    47A     -0.607929    48A     -0.591837
      49A     -0.577598    50A     -0.570584    51A     -0.554664
      52A     -0.546077    53A     -0.537744    54A     -0.531345
      55A     -0.497368    56A     -0.478422    57A     -0.474953
      58A     -0.463371    59A     -0.459795    60A     -0.453152
      61A     -0.438701    62A     -0.433099    63A     -0.394204
      64A     -0.346573

  @DF-RHF Final Energy:  -886.37154469388418

   => Energetics <=

    Nuclear Repulsion Energy =           1323.7534317594484037
    One-Electron Energy =               -3845.1087326432002556
    Two-Electron Energy =                1634.9837561898673357
    Total Energy =                       -886.3715446938842888
  Basis Set: (AUG-CC-PVTZ AUX)
    Blend: AUG-CC-PVTZ-RI
    Molecular point group: c1

    Geometry (in Angstrom), charge = 0, multiplicity = 1:

       Center              X                  Y                   Z               Mass
    ------------   -----------------  -----------------  -----------------  -----------------
         O           -1.246707420696    -0.651172471744     1.031919498543    15.994914619570
         O           -1.243581420696     2.484346528256    -0.686758501457    15.994914619570
         O           -3.215136420696     1.522594528256     0.744291498543    15.994914619570
         O           -2.355635420696    -3.065341471744     0.094344498543    15.994914619570
         O            1.361923579304     2.248529528256    -0.077137501457    15.994914619570
         N            0.844797579304     0.046718528256     0.255347498543    14.003074004430
         N            3.058619579304     0.721998528256    -0.294322501457    14.003074004430
         N            4.717856579304    -0.835159471744    -0.572893501457    14.003074004430
         C           -1.288090420696     1.079925528256    -0.592672501457    12.000000000000
         C           -2.713777420696     0.656702528256    -0.257988501457    12.000000000000
         C           -0.530339220696     0.458513028256     0.604439798543    12.000000000000
         C           -2.527862420696    -0.715390471744     0.360460498543    12.000000000000
         C           -2.526950420696    -1.848897471744    -0.639885501457    12.000000000000
         C            1.199262779304    -1.265704871744     0.317800498543    12.000000000000
         C            1.756987579304     1.068930528256    -0.059998501457    12.000000000000
         C            2.512494579304    -1.607644471744     0.046399498543    12.000000000000
         C            3.413376579304    -0.549157471744    -0.259520501457    12.000000000000
         H           -0.936212420696     0.592899528256    -1.515486501457     1.007825032230
         H           -3.361188420696     0.644160528256    -1.147060501457     1.007825032230
         H           -0.438896420696     1.223375528256     1.403402498543     1.007825032230
         H           -3.280563420696    -0.907238471744     1.130187498543     1.007825032230
         H           -1.711914420696    -1.698809471744    -1.370059501457     1.007825032230
         H           -3.484167420696    -1.832508471744    -1.184730501457     1.007825032230
         H           -0.296131420696     2.714674528256    -0.525595501457     1.007825032230
         H           -2.846162420696     2.401238528256     0.508067498543     1.007825032230
         H            0.435704579304    -1.961941471744     0.568472498543     1.007825032230
         H           -2.432480420696    -3.796936471744    -0.543828501457     1.007825032230
         H            2.830505579304    -2.643902471744     0.073326498543     1.007825032230
         H            5.126573579304    -1.669365471744    -0.163009501457     1.007825032230
         H            5.321207579304    -0.018558471744    -0.568889501457     1.007825032230

  Basis Set: AUG-CC-PVTZ
    Blend: AUG-CC-PVTZ
  Basis Set: (AUG-CC-PVTZ AUX)
    Blend: AUG-CC-PVTZ-JKFIT
	 Reference Energy          =    -886.3715446938841751 [Eh]
	 Singles Energy            =      -0.0000000000000000 [Eh]
	 Same-Spin Energy          =      -0.9015471852466264 [Eh]
	 Opposite-Spin Energy      =      -2.7151623508643690 [Eh]
	 Correlation Energy        =      -3.6167095361109953 [Eh]
	 Total Energy              =    -889.9882542299951638 [Eh]

	 ================> DF-SCS-MP2 Energies <==================
	-----------------------------------------------------------
	 SCS Same-Spin Scale       =       0.3333333333333333 [-]
	 SCS Opposite-Spin Scale   =       1.2000000000000000 [-]
	 SCS Same-Spin Energy      =      -0.3005157284155421 [Eh]
	 SCS Opposite-Spin Energy  =      -3.2581948210372427 [Eh]
	 SCS Correlation Energy    =      -3.5587105494527846 [Eh]
	 SCS Total Energy          =    -889.9302552433370010 [Eh]
	-----------------------------------------------------------

  Dipole Moment: [D]
     X:     1.5907      Y:    -6.0050      Z:    -1.8094     Total:     6.4702

*** Psi4 exiting successfully. Buy a developer a beer!
