                               Psi4 1.4a3.dev225

  ==> Input File <==

--------------------------------------------------------------------------
#psi4
#
memory 32 gb

molecule  {
0 1
  O       -1.3191770     0.6538360    -1.0992360
  O       -1.5735610    -2.4640850     0.5135810
  O       -3.5606630    -1.0699430    -0.4600060
  O       -1.4399290     3.1254620     0.1265180
  O        1.1065530    -2.3833650     0.0076020
  N        0.7686360    -0.1579440    -0.3706350
  N        2.9363770    -0.9938720     0.1460080
  N        4.7058880     0.4431110     0.3611260
  C       -1.3768610    -1.0680440     0.5552780
  C       -2.6935224    -0.3972864     0.4610306
  C       -0.6377490    -0.5042940    -0.6790150
  C       -2.3707440     0.9655450    -0.1585060
  C       -1.8992030     1.9895750     0.8571380
  C        1.2309690     1.1190800    -0.4442230
  C        1.6104480    -1.2470590    -0.0585760
  C        2.5474650     1.3753690    -0.1998620
  C        3.3802090     0.2523040     0.0808410
  H       -0.8441360    -0.7686950     1.4698480
  H       -3.2257400    -0.2778790     1.4400230
  H       -0.6227070    -1.2428120    -1.4883720
  H       -3.1941750     1.3785730    -0.7472070
  H       -1.0952130     1.5703990     1.4802000
  H       -2.7410530     2.2466610     1.5166010
  H       -0.6710550    -2.8260740     0.3542250
  H       -3.3063470    -2.0105220    -0.3629290
  H        0.4929290     1.8778260    -0.6840360
  H       -1.2098800     3.8154810     0.7720340
  H        2.9334840     2.3875570    -0.2389120
  H        5.1589650     1.2712730    -0.0008400
  H        5.2635310    -0.4031270     0.3606700
units angstrom
no_reorient  #important for SAPT in psi4, default
symmetry c1  #important for SAPT in psi4, default
}

set PROPERTIES_ORIGIN ["COM"]
properties('MP2/aug-cc-pvtz', properties = ['dipole'])
--------------------------------------------------------------------------

    Molecular point group: c1
  Charge       = 0
  Multiplicity = 1
  Basis Set: AUG-CC-PVTZ
    Blend: AUG-CC-PVTZ
  Basis Set: (AUG-CC-PVTZ AUX)
    Blend: AUG-CC-PVTZ-JKFIT

    Orbital Energies [Eh]
    ---------------------

    Doubly Occupied:

       1A    -20.586862     2A    -20.581118     3A    -20.560036
       4A    -20.555834     5A    -20.520135     6A    -15.633338
       7A    -15.599908     8A    -15.552054     9A    -11.386334
      10A    -11.358351    11A    -11.340287    12A    -11.325406
      13A    -11.303393    14A    -11.298682    15A    -11.296084
      16A    -11.293475    17A    -11.246843    18A     -1.429889
      19A     -1.394397    20A     -1.382939    21A     -1.375541
      22A     -1.342918    23A     -1.303984    24A     -1.271644
      25A     -1.181483    26A     -1.080104    27A     -1.070603
      28A     -1.021903    29A     -0.938016    30A     -0.906913
      31A     -0.876184    32A     -0.830648    33A     -0.810788
      34A     -0.766764    35A     -0.750827    36A     -0.737456
      37A     -0.721934    38A     -0.708631    39A     -0.701740
      40A     -0.685443    41A     -0.672332    42A     -0.654029
      43A     -0.649445    44A     -0.632448    45A     -0.620365
      46A     -0.615420    47A     -0.607069    48A     -0.592960
      49A     -0.575654    50A     -0.565354    51A     -0.555621
      52A     -0.543716    53A     -0.538178    54A     -0.531339
      55A     -0.497259    56A     -0.483130    57A     -0.478970
      58A     -0.463913    59A     -0.458050    60A     -0.453159
      61A     -0.440913    62A     -0.430553    63A     -0.392616
      64A     -0.348632

  @DF-RHF Final Energy:  -886.37092258428493

   => Energetics <=

    Nuclear Repulsion Energy =           1335.3389519772006224
    One-Electron Energy =               -3868.3597243089675430
    Two-Electron Energy =                1646.6498497474822216
    Total Energy =                       -886.3709225842849264
  Basis Set: (AUG-CC-PVTZ AUX)
    Blend: AUG-CC-PVTZ-RI
    Molecular point group: c1

    Geometry (in Angstrom), charge = 0, multiplicity = 1:

       Center              X                  Y                   Z               Mass
    ------------   -----------------  -----------------  -----------------  -----------------
         O           -1.334115516913     0.683565611503    -1.083612899233    15.994914619570
         O           -1.588499516913    -2.434355388497     0.529204100767    15.994914619570
         O           -3.575601516913    -1.040213388497    -0.444382899233    15.994914619570
         O           -1.454867516913     3.155191611503     0.142141100767    15.994914619570
         O            1.091614483087    -2.353635388497     0.023225100767    15.994914619570
         N            0.753697483087    -0.128214388497    -0.355011899233    14.003074004430
         N            2.921438483087    -0.964142388497     0.161631100767    14.003074004430
         N            4.690949483087     0.472840611503     0.376749100767    14.003074004430
         C           -1.391799516913    -1.038314388497     0.570901100767    12.000000000000
         C           -2.708460916913    -0.367556788497     0.476653700767    12.000000000000
         C           -0.652687516913    -0.474564388497    -0.663391899233    12.000000000000
         C           -2.385682516913     0.995274611503    -0.142882899233    12.000000000000
         C           -1.914141516913     2.019304611503     0.872761100767    12.000000000000
         C            1.216030483087     1.148809611503    -0.428599899233    12.000000000000
         C            1.595509483087    -1.217329388497    -0.042952899233    12.000000000000
         C            2.532526483087     1.405098611503    -0.184238899233    12.000000000000
         C            3.365270483087     0.282033611503     0.096464100767    12.000000000000
         H           -0.859074516913    -0.738965388497     1.485471100767     1.007825032230
         H           -3.240678516913    -0.248149388497     1.455646100767     1.007825032230
         H           -0.637645516913    -1.213082388497    -1.472748899233     1.007825032230
         H           -3.209113516913     1.408302611503    -0.731583899233     1.007825032230
         H           -1.110151516913     1.600128611503     1.495823100767     1.007825032230
         H           -2.755991516913     2.276390611503     1.532224100767     1.007825032230
         H           -0.685993516913    -2.796344388497     0.369848100767     1.007825032230
         H           -3.321285516913    -1.980792388497    -0.347305899233     1.007825032230
         H            0.477990483087     1.907555611503    -0.668412899233     1.007825032230
         H           -1.224818516913     3.845210611503     0.787657100767     1.007825032230
         H            2.918545483087     2.417286611503    -0.223288899233     1.007825032230
         H            5.144026483087     1.301002611503     0.014783100767     1.007825032230
         H            5.248592483087    -0.373397388497     0.376293100767     1.007825032230

  Basis Set: AUG-CC-PVTZ
    Blend: AUG-CC-PVTZ
  Basis Set: (AUG-CC-PVTZ AUX)
    Blend: AUG-CC-PVTZ-JKFIT
	 Reference Energy          =    -886.3709225842849264 [Eh]
	 Singles Energy            =      -0.0000000000000000 [Eh]
	 Same-Spin Energy          =      -0.9021018237402794 [Eh]
	 Opposite-Spin Energy      =      -2.7165372674778494 [Eh]
	 Correlation Energy        =      -3.6186390912181290 [Eh]
	 Total Energy              =    -889.9895616755030687 [Eh]

	 ================> DF-SCS-MP2 Energies <==================
	-----------------------------------------------------------
	 SCS Same-Spin Scale       =       0.3333333333333333 [-]
	 SCS Opposite-Spin Scale   =       1.2000000000000000 [-]
	 SCS Same-Spin Energy      =      -0.3007006079134265 [Eh]
	 SCS Opposite-Spin Energy  =      -3.2598447209734194 [Eh]
	 SCS Correlation Energy    =      -3.5605453288868456 [Eh]
	 SCS Total Energy          =    -889.9314679131717867 [Eh]
	-----------------------------------------------------------

  Dipole Moment: [D]
     X:     2.8156      Y:     5.8191      Z:     1.9411     Total:     6.7496

*** Psi4 exiting successfully. Buy a developer a beer!
