                               Psi4 1.3.2 release

  ==> Input File <==

--------------------------------------------------------------------------
#psi4
#
memory 32 gb

molecule  {
0 1
  O       -1.2481010    -0.6526680     1.0325150
  O       -1.2449750     2.4828510    -0.6861630
  O       -3.2165300     1.5210990     0.7448870
  O       -2.3570290    -3.0668370     0.0949400
  O        1.3605300     2.2470340    -0.0765420
  N        0.8434040     0.0452230     0.2559430
  N        3.1224291     0.7363678    -0.3102809
  N        4.7164630    -0.8366550    -0.5722980
  C       -1.2894840     1.0784300    -0.5920770
  C       -2.7151710     0.6552070    -0.2573930
  C       -0.5254080     0.4815200     0.6000940
  C       -2.5292560    -0.7168860     0.3610560
  C       -2.5283440    -1.8503930    -0.6392900
  C        1.2197750    -1.2614080     0.3112740
  C        1.7555940     1.0674350    -0.0594030
  C        2.5675189    -1.6570363     0.0383400
  C        3.4119830    -0.5506530    -0.2589250
  H       -0.9376060     0.5914040    -1.5148910
  H       -3.3625820     0.6426650    -1.1464650
  H       -0.4402900     1.2218800     1.4039980
  H       -3.2819570    -0.9087340     1.1307830
  H       -1.7133080    -1.7003050    -1.3694640
  H       -3.4855610    -1.8340040    -1.1841350
  H       -0.2975250     2.7131790    -0.5250000
  H       -2.8475560     2.3997430     0.5086630
  H        0.4343110    -1.9634370     0.5690680
  H       -2.4338740    -3.7984320    -0.5432330
  H        2.8291120    -2.6453980     0.0739220
  H        5.1251800    -1.6708610    -0.1624140
  H        5.3198140    -0.0200540    -0.5682940
units angstrom
no_reorient  #important for SAPT in psi4, default
symmetry c1  #important for SAPT in psi4, default
}

set PROPERTIES_ORIGIN ["COM"]
properties('MP2/aug-cc-pvtz', properties = ['dipole'])
--------------------------------------------------------------------------

    Molecular point group: c1
  Charge       = 0
  Multiplicity = 1
  Basis Set: AUG-CC-PVTZ
    Blend: AUG-CC-PVTZ
  Basis Set: (AUG-CC-PVTZ AUX)
    Blend: AUG-CC-PVTZ-JKFIT

    Orbital Energies [Eh]
    ---------------------

    Doubly Occupied:

       1A    -20.584954     2A    -20.583788     3A    -20.560515
       4A    -20.560117     5A    -20.530305     6A    -15.646180
       7A    -15.589018     8A    -15.559643     9A    -11.396578
      10A    -11.350841    11A    -11.346347    12A    -11.341164
      13A    -11.303032    14A    -11.300012    15A    -11.299361
      16A    -11.295551    17A    -11.250047    18A     -1.432582
      19A     -1.398313    20A     -1.382638    21A     -1.374883
      22A     -1.348942    23A     -1.304166    24A     -1.274959
      25A     -1.168112    26A     -1.073479    27A     -1.070326
      28A     -1.022924    29A     -0.936036    30A     -0.916070
      31A     -0.869153    32A     -0.830962    33A     -0.813773
      34A     -0.759081    35A     -0.756698    36A     -0.739746
      37A     -0.716205    38A     -0.703726    39A     -0.701244
      40A     -0.683469    41A     -0.677290    42A     -0.662373
      43A     -0.653335    44A     -0.640370    45A     -0.619207
      46A     -0.614129    47A     -0.602701    48A     -0.593245
      49A     -0.575975    50A     -0.570193    51A     -0.555441
      52A     -0.547446    53A     -0.540199    54A     -0.532729
      55A     -0.498071    56A     -0.479733    57A     -0.477088
      58A     -0.469741    59A     -0.464712    60A     -0.455703
      61A     -0.442729    62A     -0.435032    63A     -0.391286
      64A     -0.344712

  @DF-RHF Final Energy:  -886.35689015946650

   => Energetics <=

    Nuclear Repulsion Energy =           1320.2065319800642555
    One-Electron Energy =               -3837.8900874970822770
    Two-Electron Energy =                1631.3266653575517466
    Total Energy =                       -886.3568901594665022
  Basis Set: (AUG-CC-PVTZ AUX)
    Blend: AUG-CC-PVTZ-RI
    Molecular point group: c1

    Geometry (in Angstrom), charge = 0, multiplicity = 1:

       Center              X                  Y                   Z               Mass
    ------------   -----------------  -----------------  -----------------  -----------------
         O           -1.254642183040    -0.651217473061     1.033895860960    15.994914619570
         O           -1.251516183040     2.484301526939    -0.684782139040    15.994914619570
         O           -3.223071183040     1.522549526939     0.746267860960    15.994914619570
         O           -2.363570183040    -3.065386473061     0.096320860960    15.994914619570
         O            1.353988816960     2.248484526939    -0.075161139040    15.994914619570
         N            0.836862816960     0.046673526939     0.257323860960    14.003074004430
         N            3.115887916960     0.737818326939    -0.308900039040    14.003074004430
         N            4.709921816960    -0.835204473061    -0.570917139040    14.003074004430
         C           -1.296025183040     1.079880526939    -0.590696139040    12.000000000000
         C           -2.721712183040     0.656657526939    -0.256012139040    12.000000000000
         C           -0.531949183040     0.482970526939     0.601474860960    12.000000000000
         C           -2.535797183040    -0.715435473061     0.362436860960    12.000000000000
         C           -2.534885183040    -1.848942473061    -0.637909139040    12.000000000000
         C            1.213233816960    -1.259957473061     0.312654860960    12.000000000000
         C            1.749052816960     1.068885526939    -0.058022139040    12.000000000000
         C            2.560977716960    -1.655585773061     0.039720860960    12.000000000000
         C            3.405441816960    -0.549202473061    -0.257544139040    12.000000000000
         H           -0.944147183040     0.592854526939    -1.513510139040     1.007825032230
         H           -3.369123183040     0.644115526939    -1.145084139040     1.007825032230
         H           -0.446831183040     1.223330526939     1.405378860960     1.007825032230
         H           -3.288498183040    -0.907283473061     1.132163860960     1.007825032230
         H           -1.719849183040    -1.698854473061    -1.368083139040     1.007825032230
         H           -3.492102183040    -1.832553473061    -1.182754139040     1.007825032230
         H           -0.304066183040     2.714629526939    -0.523619139040     1.007825032230
         H           -2.854097183040     2.401193526939     0.510043860960     1.007825032230
         H            0.427769816960    -1.961986473061     0.570448860960     1.007825032230
         H           -2.440415183040    -3.796981473061    -0.541852139040     1.007825032230
         H            2.822570816960    -2.643947473061     0.075302860960     1.007825032230
         H            5.118638816960    -1.669410473061    -0.161033139040     1.007825032230
         H            5.313272816960    -0.018603473061    -0.566913139040     1.007825032230

  Basis Set: AUG-CC-PVTZ
    Blend: AUG-CC-PVTZ
  Basis Set: (AUG-CC-PVTZ AUX)
    Blend: AUG-CC-PVTZ-JKFIT
	 Reference Energy          =    -886.3568901594665022 [Eh]
	 Singles Energy            =      -0.0000000000000000 [Eh]
	 Same-Spin Energy          =      -0.9017354547037668 [Eh]
	 Opposite-Spin Energy      =      -2.7176089501541969 [Eh]
	 Correlation Energy        =      -3.6193444048579639 [Eh]
	 Total Energy              =    -889.9762345643244998 [Eh]

	 ================> DF-SCS-MP2 Energies <==================
	-----------------------------------------------------------
	 SCS Same-Spin Scale       =       0.3333333333333333 [-]
	 SCS Opposite-Spin Scale   =       1.2000000000000000 [-]
	 SCS Same-Spin Energy      =      -0.3005784849012556 [Eh]
	 SCS Opposite-Spin Energy  =      -3.2611307401850360 [Eh]
	 SCS Correlation Energy    =      -3.5617092250862914 [Eh]
	 SCS Total Energy          =    -889.9185993845527491 [Eh]
	-----------------------------------------------------------

  Dipole Moment: [D]
     X:     1.2165      Y:    -5.7672      Z:    -1.7561     Total:     6.1501

*** Psi4 exiting successfully. Buy a developer a beer!
