                               Psi4 1.4a3.dev225

  ==> Input File <==

--------------------------------------------------------------------------
#psi4
#
memory 32 gb

molecule  {
0 1
  O       -1.3191770     0.6538360    -1.0992360
  O       -1.5735610    -2.4640850     0.5135810
  O       -3.5606630    -1.0699430    -0.4600060
  O       -1.4399290     3.1254620     0.1265180
  O        1.1065530    -2.3833650     0.0076020
  N        0.7686360    -0.1579440    -0.3706350
  N        2.9363770    -0.9938720     0.1460080
  N        4.7058880     0.4431110     0.3611260
  C       -1.3768610    -1.0680440     0.5552780
  C       -2.7379840    -0.3746360     0.4578480
  C       -0.6377490    -0.5042940    -0.6790150
  C       -2.3707440     0.9655450    -0.1585060
  C       -1.8992030     1.9895750     0.8571380
  C        1.2309690     1.1190800    -0.4442230
  C        1.6104480    -1.2470590    -0.0585760
  C        2.5474650     1.3753690    -0.1998620
  C        3.3802090     0.2523040     0.0808410
  H       -0.8441360    -0.7686950     1.4698480
  H       -3.2257400    -0.2778790     1.4400230
  H       -0.6227070    -1.2428120    -1.4883720
  H       -3.1941750     1.3785730    -0.7472070
  H       -1.0952130     1.5703990     1.4802000
  H       -2.7410530     2.2466610     1.5166010
  H       -0.6710550    -2.8260740     0.3542250
  H       -3.3193332    -1.9624930    -0.3678861
  H        0.4929290     1.8778260    -0.6840360
  H       -1.2098800     3.8154810     0.7720340
  H        2.9334840     2.3875570    -0.2389120
  H        5.1589650     1.2712730    -0.0008400
  H        5.2635310    -0.4031270     0.3606700
units angstrom
no_reorient  #important for SAPT in psi4, default
symmetry c1  #important for SAPT in psi4, default
}

set PROPERTIES_ORIGIN ["COM"]
properties('MP2/aug-cc-pvtz', properties = ['dipole'])
--------------------------------------------------------------------------

    Molecular point group: c1
  Charge       = 0
  Multiplicity = 1
  Basis Set: AUG-CC-PVTZ
    Blend: AUG-CC-PVTZ
  Basis Set: (AUG-CC-PVTZ AUX)
    Blend: AUG-CC-PVTZ-JKFIT

    Orbital Energies [Eh]
    ---------------------

    Doubly Occupied:

       1A    -20.586943     2A    -20.581685     3A    -20.558367
       4A    -20.553666     5A    -20.519610     6A    -15.632978
       7A    -15.599656     8A    -15.551726     9A    -11.385900
      10A    -11.358050    11A    -11.339673    12A    -11.325145
      13A    -11.303825    14A    -11.298369    15A    -11.297125
      16A    -11.294349    17A    -11.246571    18A     -1.430076
      19A     -1.394329    20A     -1.386097    21A     -1.377597
      22A     -1.352203    23A     -1.303628    24A     -1.271369
      25A     -1.181180    26A     -1.079365    27A     -1.069975
      28A     -1.017535    29A     -0.937649    30A     -0.906765
      31A     -0.877487    32A     -0.831471    33A     -0.813585
      34A     -0.766573    35A     -0.750498    36A     -0.735053
      37A     -0.722359    38A     -0.709757    39A     -0.706387
      40A     -0.685128    41A     -0.678303    42A     -0.653570
      43A     -0.649760    44A     -0.633834    45A     -0.620572
      46A     -0.615314    47A     -0.608685    48A     -0.593089
      49A     -0.577865    50A     -0.565963    51A     -0.556256
      52A     -0.549180    53A     -0.538258    54A     -0.531399
      55A     -0.496032    56A     -0.480904    57A     -0.474488
      58A     -0.464099    59A     -0.458202    60A     -0.453585
      61A     -0.442670    62A     -0.430297    63A     -0.392251
      64A     -0.348213

  @DF-RHF Final Energy:  -886.37510212047778

   => Energetics <=

    Nuclear Repulsion Energy =           1334.8621837669163597
    One-Electron Energy =               -3867.3695876880365176
    Two-Electron Energy =                1646.1323018006426082
    Total Energy =                       -886.3751021204777771
  Basis Set: (AUG-CC-PVTZ AUX)
    Blend: AUG-CC-PVTZ-RI
    Molecular point group: c1

    Geometry (in Angstrom), charge = 0, multiplicity = 1:

       Center              X                  Y                   Z               Mass
    ------------   -----------------  -----------------  -----------------  -----------------
         O           -1.331866814414     0.682248340002    -1.083435237110    15.994914619570
         O           -1.586250814414    -2.435672659998     0.529381762890    15.994914619570
         O           -3.573352814414    -1.041530659998    -0.444205237110    15.994914619570
         O           -1.452618814414     3.153874340002     0.142318762890    15.994914619570
         O            1.093863185586    -2.354952659998     0.023402762890    15.994914619570
         N            0.755946185586    -0.129531659998    -0.354834237110    14.003074004430
         N            2.923687185586    -0.965459659998     0.161808762890    14.003074004430
         N            4.693198185586     0.471523340002     0.376926762890    14.003074004430
         C           -1.389550814414    -1.039631659998     0.571078762890    12.000000000000
         C           -2.750673814414    -0.346223659998     0.473648762890    12.000000000000
         C           -0.650438814414    -0.475881659998    -0.663214237110    12.000000000000
         C           -2.383433814414     0.993957340002    -0.142705237110    12.000000000000
         C           -1.911892814414     2.017987340002     0.872938762890    12.000000000000
         C            1.218279185586     1.147492340002    -0.428422237110    12.000000000000
         C            1.597758185586    -1.218646659998    -0.042775237110    12.000000000000
         C            2.534775185586     1.403781340002    -0.184061237110    12.000000000000
         C            3.367519185586     0.280716340002     0.096641762890    12.000000000000
         H           -0.856825814414    -0.740282659998     1.485648762890     1.007825032230
         H           -3.238429814414    -0.249466659998     1.455823762890     1.007825032230
         H           -0.635396814414    -1.214399659998    -1.472571237110     1.007825032230
         H           -3.206864814414     1.406985340002    -0.731406237110     1.007825032230
         H           -1.107902814414     1.598811340002     1.496000762890     1.007825032230
         H           -2.753742814414     2.275073340002     1.532401762890     1.007825032230
         H           -0.683744814414    -2.797661659998     0.370025762890     1.007825032230
         H           -3.332023014414    -1.934080659998    -0.352085337110     1.007825032230
         H            0.480239185586     1.906238340002    -0.668235237110     1.007825032230
         H           -1.222569814414     3.843893340002     0.787834762890     1.007825032230
         H            2.920794185586     2.415969340002    -0.223111237110     1.007825032230
         H            5.146275185586     1.299685340002     0.014960762890     1.007825032230
         H            5.250841185586    -0.374714659998     0.376470762890     1.007825032230

  Basis Set: AUG-CC-PVTZ
    Blend: AUG-CC-PVTZ
  Basis Set: (AUG-CC-PVTZ AUX)
    Blend: AUG-CC-PVTZ-JKFIT
	 Reference Energy          =    -886.3751021204777771 [Eh]
	 Singles Energy            =      -0.0000000000000000 [Eh]
	 Same-Spin Energy          =      -0.9010667122084438 [Eh]
	 Opposite-Spin Energy      =      -2.7143354544216143 [Eh]
	 Correlation Energy        =      -3.6154021666300582 [Eh]
	 Total Energy              =    -889.9905042871077967 [Eh]

	 ================> DF-SCS-MP2 Energies <==================
	-----------------------------------------------------------
	 SCS Same-Spin Scale       =       0.3333333333333333 [-]
	 SCS Opposite-Spin Scale   =       1.2000000000000000 [-]
	 SCS Same-Spin Energy      =      -0.3003555707361479 [Eh]
	 SCS Opposite-Spin Energy  =      -3.2572025453059372 [Eh]
	 SCS Correlation Energy    =      -3.5575581160420851 [Eh]
	 SCS Total Energy          =    -889.9326602365198369 [Eh]
	-----------------------------------------------------------

  Dipole Moment: [D]
     X:     2.7117      Y:     5.8619      Z:     1.9447     Total:     6.7451

*** Psi4 exiting successfully. Buy a developer a beer!
