                               Psi4 1.3.2 release

  ==> Input File <==

--------------------------------------------------------------------------
#psi4
#
memory 32 gb

molecule  {
0 1
  O       -1.2481010    -0.6526680     1.0325150
  O       -1.2449750     2.4828510    -0.6861630
  O       -3.2165300     1.5210990     0.7448870
  O       -2.3570290    -3.0668370     0.0949400
  O        1.3605300     2.2470340    -0.0765420
  N        0.8434040     0.0452230     0.2559430
  N        3.0572260     0.7205030    -0.2937270
  N        4.7164630    -0.8366550    -0.5722980
  C       -1.2894840     1.0784300    -0.5920770
  C       -2.7151710     0.6552070    -0.2573930
  C       -0.5254080     0.4815200     0.6000940
  C       -2.5292560    -0.7168860     0.3610560
  C       -2.5163735    -1.9353909    -0.5879864
  C        1.2197750    -1.2614080     0.3112740
  C        1.7555940     1.0674350    -0.0594030
  C        2.5111010    -1.6091400     0.0469950
  C        3.4119830    -0.5506530    -0.2589250
  H       -0.9376060     0.5914040    -1.5148910
  H       -3.3625820     0.6426650    -1.1464650
  H       -0.4402900     1.2218800     1.4039980
  H       -3.2819570    -0.9087340     1.1307830
  H       -1.7133080    -1.7003050    -1.3694640
  H       -3.4855610    -1.8340040    -1.1841350
  H       -0.2975250     2.7131790    -0.5250000
  H       -2.8475560     2.3997430     0.5086630
  H        0.4343110    -1.9634370     0.5690680
  H       -2.4338740    -3.7984320    -0.5432330
  H        2.8291120    -2.6453980     0.0739220
  H        5.1251800    -1.6708610    -0.1624140
  H        5.3198140    -0.0200540    -0.5682940
units angstrom
no_reorient  #important for SAPT in psi4, default
symmetry c1  #important for SAPT in psi4, default
}

set PROPERTIES_ORIGIN ["COM"]
properties('MP2/aug-cc-pvtz', properties = ['dipole'])
--------------------------------------------------------------------------

    Molecular point group: c1
  Charge       = 0
  Multiplicity = 1
  Basis Set: AUG-CC-PVTZ
    Blend: AUG-CC-PVTZ
  Basis Set: (AUG-CC-PVTZ AUX)
    Blend: AUG-CC-PVTZ-JKFIT

    Orbital Energies [Eh]
    ---------------------

    Doubly Occupied:

       1A    -20.592942     2A    -20.579272     3A    -20.557120
       4A    -20.555973     5A    -20.521324     6A    -15.636202
       7A    -15.599529     8A    -15.552874     9A    -11.387636
      10A    -11.357456    11A    -11.340264    12A    -11.328350
      13A    -11.305071    14A    -11.295539    15A    -11.295071
      16A    -11.292504    17A    -11.248240    18A     -1.432192
      19A     -1.417871    20A     -1.393791    21A     -1.376688
      22A     -1.345317    23A     -1.305519    24A     -1.273195
      25A     -1.181766    26A     -1.081356    27A     -1.059791
      28A     -1.018635    29A     -0.932056    30A     -0.908045
      31A     -0.876436    32A     -0.831228    33A     -0.808593
      34A     -0.766090    35A     -0.752720    36A     -0.744846
      37A     -0.726662    38A     -0.713848    39A     -0.696633
      40A     -0.685574    41A     -0.672675    42A     -0.656383
      43A     -0.651497    44A     -0.639102    45A     -0.622894
      46A     -0.621329    47A     -0.609300    48A     -0.594791
      49A     -0.580632    50A     -0.572040    51A     -0.556523
      52A     -0.543057    53A     -0.536692    54A     -0.526608
      55A     -0.496920    56A     -0.475064    57A     -0.466321
      58A     -0.459279    59A     -0.455182    60A     -0.447668
      61A     -0.437102    62A     -0.430628    63A     -0.394526
      64A     -0.349457

  @DF-RHF Final Energy:  -886.36463194741884

   => Energetics <=

    Nuclear Repulsion Energy =           1323.8521766562525954
    One-Electron Energy =               -3845.2938400144503248
    Two-Electron Energy =                1635.0770314107787726
    Total Energy =                       -886.3646319474189568
  Basis Set: (AUG-CC-PVTZ AUX)
    Blend: AUG-CC-PVTZ-RI
    Molecular point group: c1

    Geometry (in Angstrom), charge = 0, multiplicity = 1:

       Center              X                  Y                   Z               Mass
    ------------   -----------------  -----------------  -----------------  -----------------
         O           -1.248691961770    -0.648472039408     1.029982387691    15.994914619570
         O           -1.245565961770     2.487046960592    -0.688695612309    15.994914619570
         O           -3.217120961770     1.525294960592     0.742354387691    15.994914619570
         O           -2.357619961770    -3.062641039408     0.092407387691    15.994914619570
         O            1.359939038230     2.251229960592    -0.079074612309    15.994914619570
         N            0.842813038230     0.049418960592     0.253410387691    14.003074004430
         N            3.056635038230     0.724698960592    -0.296259612309    14.003074004430
         N            4.715872038230    -0.832459039408    -0.574830612309    14.003074004430
         C           -1.290074961770     1.082625960592    -0.594609612309    12.000000000000
         C           -2.715761961770     0.659402960592    -0.259925612309    12.000000000000
         C           -0.525998961770     0.485715960592     0.597561387691    12.000000000000
         C           -2.529846961770    -0.712690039408     0.358523387691    12.000000000000
         C           -2.516964461770    -1.931194939408    -0.590519012309    12.000000000000
         C            1.219184038230    -1.257212039408     0.308741387691    12.000000000000
         C            1.755003038230     1.071630960592    -0.061935612309    12.000000000000
         C            2.510510038230    -1.604944039408     0.044462387691    12.000000000000
         C            3.411392038230    -0.546457039408    -0.261457612309    12.000000000000
         H           -0.938196961770     0.595599960592    -1.517423612309     1.007825032230
         H           -3.363172961770     0.646860960592    -1.148997612309     1.007825032230
         H           -0.440880961770     1.226075960592     1.401465387691     1.007825032230
         H           -3.282547961770    -0.904538039408     1.128250387691     1.007825032230
         H           -1.713898961770    -1.696109039408    -1.371996612309     1.007825032230
         H           -3.486151961770    -1.829808039408    -1.186667612309     1.007825032230
         H           -0.298115961770     2.717374960592    -0.527532612309     1.007825032230
         H           -2.848146961770     2.403938960592     0.506130387691     1.007825032230
         H            0.433720038230    -1.959241039408     0.566535387691     1.007825032230
         H           -2.434464961770    -3.794236039408    -0.545765612309     1.007825032230
         H            2.828521038230    -2.641202039408     0.071389387691     1.007825032230
         H            5.124589038230    -1.666665039408    -0.164946612309     1.007825032230
         H            5.319223038230    -0.015858039408    -0.570826612309     1.007825032230

  Basis Set: AUG-CC-PVTZ
    Blend: AUG-CC-PVTZ
  Basis Set: (AUG-CC-PVTZ AUX)
    Blend: AUG-CC-PVTZ-JKFIT
	 Reference Energy          =    -886.3646319474188431 [Eh]
	 Singles Energy            =      -0.0000000000000000 [Eh]
	 Same-Spin Energy          =      -0.9012796935905630 [Eh]
	 Opposite-Spin Energy      =      -2.7138104981884723 [Eh]
	 Correlation Energy        =      -3.6150901917790352 [Eh]
	 Total Energy              =    -889.9797221391978610 [Eh]

	 ================> DF-SCS-MP2 Energies <==================
	-----------------------------------------------------------
	 SCS Same-Spin Scale       =       0.3333333333333333 [-]
	 SCS Opposite-Spin Scale   =       1.2000000000000000 [-]
	 SCS Same-Spin Energy      =      -0.3004265645301877 [Eh]
	 SCS Opposite-Spin Energy  =      -3.2565725978261666 [Eh]
	 SCS Correlation Energy    =      -3.5569991623563544 [Eh]
	 SCS Total Energy          =    -889.9216311097751486 [Eh]
	-----------------------------------------------------------

  Dipole Moment: [D]
     X:     1.7119      Y:    -6.3143      Z:    -1.6484     Total:     6.7467

*** Psi4 exiting successfully. Buy a developer a beer!
