                               Psi4 1.3.2 release

  ==> Input File <==

--------------------------------------------------------------------------
#psi4
#
memory 32 gb

molecule  {
0 1
  O       -1.2481010    -0.6526680     1.0325150
  O       -1.2449750     2.4828510    -0.6861630
  O       -3.2165300     1.5210990     0.7448870
  O       -2.3570290    -3.0668370     0.0949400
  O        1.3605300     2.2470340    -0.0765420
  N        0.8434040     0.0452230     0.2559430
  N        3.0572260     0.7205030    -0.2937270
  N        4.7164630    -0.8366550    -0.5722980
  C       -1.2894840     1.0784300    -0.5920770
  C       -2.7152835     0.6245437    -0.3008768
  C       -0.5254080     0.4815200     0.6000940
  C       -2.5292560    -0.7168860     0.3610560
  C       -2.5283440    -1.8503930    -0.6392900
  C        1.2197750    -1.2614080     0.3112740
  C        1.7555940     1.0674350    -0.0594030
  C        2.5111010    -1.6091400     0.0469950
  C        3.4119830    -0.5506530    -0.2589250
  H       -0.9716075     0.5737039    -1.5177142
  H       -3.3625820     0.6426650    -1.1464650
  H       -0.4402900     1.2218800     1.4039980
  H       -3.2819570    -0.9087340     1.1307830
  H       -1.7133080    -1.7003050    -1.3694640
  H       -3.4855610    -1.8340040    -1.1841350
  H       -0.2975250     2.7131790    -0.5250000
  H       -2.8475560     2.3997430     0.5086630
  H        0.4343110    -1.9634370     0.5690680
  H       -2.4338740    -3.7984320    -0.5432330
  H        2.8291120    -2.6453980     0.0739220
  H        5.1251800    -1.6708610    -0.1624140
  H        5.3198140    -0.0200540    -0.5682940
units angstrom
no_reorient  #important for SAPT in psi4, default
symmetry c1  #important for SAPT in psi4, default
}

set PROPERTIES_ORIGIN ["COM"]
properties('MP2/aug-cc-pvtz', properties = ['dipole'])
--------------------------------------------------------------------------

    Molecular point group: c1
  Charge       = 0
  Multiplicity = 1
  Basis Set: AUG-CC-PVTZ
    Blend: AUG-CC-PVTZ
  Basis Set: (AUG-CC-PVTZ AUX)
    Blend: AUG-CC-PVTZ-JKFIT

    Orbital Energies [Eh]
    ---------------------

    Doubly Occupied:

       1A    -20.582966     2A    -20.582558     3A    -20.558004
       4A    -20.552207     5A    -20.522163     6A    -15.637297
       7A    -15.600041     8A    -15.553550     9A    -11.388489
      10A    -11.358086    11A    -11.342873    12A    -11.328868
      13A    -11.301616    14A    -11.298490    15A    -11.298342
      16A    -11.292108    17A    -11.248855    18A     -1.429026
      19A     -1.396341    20A     -1.376474    21A     -1.371383
      22A     -1.333323    23A     -1.306290    24A     -1.274064
      25A     -1.182474    26A     -1.082310    27A     -1.072603
      28A     -1.022052    29A     -0.936404    30A     -0.909772
      31A     -0.877514    32A     -0.832642    33A     -0.815494
      34A     -0.767225    35A     -0.753308    36A     -0.735629
      37A     -0.721218    38A     -0.701740    39A     -0.693599
      40A     -0.685785    41A     -0.669375    42A     -0.655650
      43A     -0.650693    44A     -0.639899    45A     -0.620506
      46A     -0.615576    47A     -0.605931    48A     -0.594591
      49A     -0.575374    50A     -0.568930    51A     -0.553078
      52A     -0.541624    53A     -0.533215    54A     -0.532080
      55A     -0.498106    56A     -0.479461    57A     -0.475974
      58A     -0.462960    59A     -0.461103    60A     -0.451462
      61A     -0.443376    62A     -0.433472    63A     -0.395644
      64A     -0.350423

  @DF-RHF Final Energy:  -886.36937552071106

   => Energetics <=

    Nuclear Repulsion Energy =           1323.2530900759561518
    One-Electron Energy =               -3844.1815641459697872
    Two-Electron Energy =                1634.5590985493026892
    Total Energy =                       -886.3693755207109461
  Basis Set: (AUG-CC-PVTZ AUX)
    Blend: AUG-CC-PVTZ-RI
    Molecular point group: c1

    Geometry (in Angstrom), charge = 0, multiplicity = 1:

       Center              X                  Y                   Z               Mass
    ------------   -----------------  -----------------  -----------------  -----------------
         O           -1.247954511170    -0.651080901486     1.034673305065    15.994914619570
         O           -1.244828511170     2.484438098514    -0.684004694935    15.994914619570
         O           -3.216383511170     1.522686098514     0.747045305065    15.994914619570
         O           -2.356882511170    -3.065249901486     0.097098305065    15.994914619570
         O            1.360676488830     2.248621098514    -0.074383694935    15.994914619570
         N            0.843550488830     0.046810098514     0.258101305065    14.003074004430
         N            3.057372488830     0.722090098514    -0.291568694935    14.003074004430
         N            4.716609488830    -0.835067901486    -0.570139694935    14.003074004430
         C           -1.289337511170     1.080017098514    -0.589918694935    12.000000000000
         C           -2.715137011170     0.626130798514    -0.298718494935    12.000000000000
         C           -0.525261511170     0.483107098514     0.602252305065    12.000000000000
         C           -2.529109511170    -0.715298901486     0.363214305065    12.000000000000
         C           -2.528197511170    -1.848805901486    -0.637131694935    12.000000000000
         C            1.219921488830    -1.259820901486     0.313432305065    12.000000000000
         C            1.755740488830     1.069022098514    -0.057244694935    12.000000000000
         C            2.511247488830    -1.607552901486     0.049153305065    12.000000000000
         C            3.412129488830    -0.549065901486    -0.256766694935    12.000000000000
         H           -0.971461011170     0.575290998514    -1.515555894935     1.007825032230
         H           -3.362435511170     0.644252098514    -1.144306694935     1.007825032230
         H           -0.440143511170     1.223467098514     1.406156305065     1.007825032230
         H           -3.281810511170    -0.907146901486     1.132941305065     1.007825032230
         H           -1.713161511170    -1.698717901486    -1.367305694935     1.007825032230
         H           -3.485414511170    -1.832416901486    -1.181976694935     1.007825032230
         H           -0.297378511170     2.714766098514    -0.522841694935     1.007825032230
         H           -2.847409511170     2.401330098514     0.510821305065     1.007825032230
         H            0.434457488830    -1.961849901486     0.571226305065     1.007825032230
         H           -2.433727511170    -3.796844901486    -0.541074694935     1.007825032230
         H            2.829258488830    -2.643810901486     0.076080305065     1.007825032230
         H            5.125326488830    -1.669273901486    -0.160255694935     1.007825032230
         H            5.319960488830    -0.018466901486    -0.566135694935     1.007825032230

  Basis Set: AUG-CC-PVTZ
    Blend: AUG-CC-PVTZ
  Basis Set: (AUG-CC-PVTZ AUX)
    Blend: AUG-CC-PVTZ-JKFIT
	 Reference Energy          =    -886.3693755207110598 [Eh]
	 Singles Energy            =      -0.0000000000000000 [Eh]
	 Same-Spin Energy          =      -0.9013634737261551 [Eh]
	 Opposite-Spin Energy      =      -2.7158790002727167 [Eh]
	 Correlation Energy        =      -3.6172424739988718 [Eh]
	 Total Energy              =    -889.9866179947099454 [Eh]

	 ================> DF-SCS-MP2 Energies <==================
	-----------------------------------------------------------
	 SCS Same-Spin Scale       =       0.3333333333333333 [-]
	 SCS Opposite-Spin Scale   =       1.2000000000000000 [-]
	 SCS Same-Spin Energy      =      -0.3004544912420517 [Eh]
	 SCS Opposite-Spin Energy  =      -3.2590548003272599 [Eh]
	 SCS Correlation Energy    =      -3.5595092915693116 [Eh]
	 SCS Total Energy          =    -889.9288848122803302 [Eh]
	-----------------------------------------------------------

  Dipole Moment: [D]
     X:     1.7502      Y:    -6.0563      Z:    -1.9324     Total:     6.5936

*** Psi4 exiting successfully. Buy a developer a beer!
