                               Psi4 1.4a3.dev225

  ==> Input File <==

--------------------------------------------------------------------------
#psi4
#
memory 32 gb

molecule  {
0 1
  O       -1.3191770     0.6538360    -1.0992360
  O       -1.5735610    -2.4640850     0.5135810
  O       -3.5606630    -1.0699430    -0.4600060
  O       -1.4399290     3.1254620     0.1265180
  O        1.1065530    -2.3833650     0.0076020
  N        0.7686360    -0.1579440    -0.3706350
  N        2.9363770    -0.9938720     0.1460080
  N        4.7058880     0.4431110     0.3611260
  C       -1.3768610    -1.0680440     0.5552780
  C       -2.7379840    -0.3746360     0.4578480
  C       -0.6377490    -0.5042940    -0.6790150
  C       -2.3707440     0.9655450    -0.1585060
  C       -1.8992030     1.9895750     0.8571380
  C        1.2309690     1.1190800    -0.4442230
  C        1.5910247    -1.2507679    -0.0615729
  C        2.5474650     1.3753690    -0.1998620
  C        3.3802090     0.2523040     0.0808410
  H       -0.8441360    -0.7686950     1.4698480
  H       -3.2257400    -0.2778790     1.4400230
  H       -0.6227070    -1.2428120    -1.4883720
  H       -3.1941750     1.3785730    -0.7472070
  H       -1.0952130     1.5703990     1.4802000
  H       -2.7410530     2.2466610     1.5166010
  H       -0.6710550    -2.8260740     0.3542250
  H       -3.3063470    -2.0105220    -0.3629290
  H        0.4929290     1.8778260    -0.6840360
  H       -1.2098800     3.8154810     0.7720340
  H        2.9334840     2.3875570    -0.2389120
  H        5.1589650     1.2712730    -0.0008400
  H        5.2635310    -0.4031270     0.3606700
units angstrom
no_reorient  #important for SAPT in psi4, default
symmetry c1  #important for SAPT in psi4, default
}

set PROPERTIES_ORIGIN ["COM"]
properties('MP2/aug-cc-pvtz', properties = ['dipole'])
--------------------------------------------------------------------------

    Molecular point group: c1
  Charge       = 0
  Multiplicity = 1
  Basis Set: AUG-CC-PVTZ
    Blend: AUG-CC-PVTZ
  Basis Set: (AUG-CC-PVTZ AUX)
    Blend: AUG-CC-PVTZ-JKFIT

    Orbital Energies [Eh]
    ---------------------

    Doubly Occupied:

       1A    -20.586828     2A    -20.581736     3A    -20.560424
       4A    -20.556959     5A    -20.523086     6A    -15.633076
       7A    -15.597746     8A    -15.550565     9A    -11.386171
      10A    -11.355322    11A    -11.340061    12A    -11.324537
      13A    -11.303768    14A    -11.298276    15A    -11.297761
      16A    -11.294056    17A    -11.246248    18A     -1.430361
      19A     -1.398860    20A     -1.383640    21A     -1.376178
      22A     -1.347368    23A     -1.304721    24A     -1.271716
      25A     -1.175706    26A     -1.079155    27A     -1.068522
      28A     -1.017810    29A     -0.936359    30A     -0.908375
      31A     -0.874313    32A     -0.829571    33A     -0.812773
      34A     -0.764904    35A     -0.750887    36A     -0.736058
      37A     -0.721708    38A     -0.708239    39A     -0.703600
      40A     -0.684403    41A     -0.675391    42A     -0.653563
      43A     -0.650734    44A     -0.633648    45A     -0.621432
      46A     -0.614974    47A     -0.607612    48A     -0.594234
      49A     -0.577340    50A     -0.564895    51A     -0.556140
      52A     -0.548672    53A     -0.537555    54A     -0.532197
      55A     -0.496926    56A     -0.481076    57A     -0.474277
      58A     -0.464676    59A     -0.459656    60A     -0.453600
      61A     -0.442526    62A     -0.428265    63A     -0.390402
      64A     -0.348084

  @DF-RHF Final Energy:  -886.37397824646951

   => Energetics <=

    Nuclear Repulsion Energy =           1334.7544965423014673
    One-Electron Energy =               -3867.1975072277091385
    Two-Electron Energy =                1646.0690324389383932
    Total Energy =                       -886.3739782464695054
  Basis Set: (AUG-CC-PVTZ AUX)
    Blend: AUG-CC-PVTZ-RI
    Molecular point group: c1

    Geometry (in Angstrom), charge = 0, multiplicity = 1:

       Center              X                  Y                   Z               Mass
    ------------   -----------------  -----------------  -----------------  -----------------
         O           -1.330961816938     0.682630557866    -1.083307846098    15.994914619570
         O           -1.585345816938    -2.435290442134     0.529509153902    15.994914619570
         O           -3.572447816938    -1.041148442134    -0.444077846098    15.994914619570
         O           -1.451713816938     3.154256557866     0.142446153902    15.994914619570
         O            1.094768183062    -2.354570442134     0.023530153902    15.994914619570
         N            0.756851183062    -0.129149442134    -0.354706846098    14.003074004430
         N            2.924592183062    -0.965077442134     0.161936153902    14.003074004430
         N            4.694103183062     0.471905557866     0.377054153902    14.003074004430
         C           -1.388645816938    -1.039249442134     0.571206153902    12.000000000000
         C           -2.749768816938    -0.345841442134     0.473776153902    12.000000000000
         C           -0.649533816938    -0.475499442134    -0.663086846098    12.000000000000
         C           -2.382528816938     0.994339557866    -0.142577846098    12.000000000000
         C           -1.910987816938     2.018369557866     0.873066153902    12.000000000000
         C            1.219184183062     1.147874557866    -0.428294846098    12.000000000000
         C            1.579239883062    -1.221973342134    -0.045644746098    12.000000000000
         C            2.535680183062     1.404163557866    -0.183933846098    12.000000000000
         C            3.368424183062     0.281098557866     0.096769153902    12.000000000000
         H           -0.855920816938    -0.739900442134     1.485776153902     1.007825032230
         H           -3.237524816938    -0.249084442134     1.455951153902     1.007825032230
         H           -0.634491816938    -1.214017442134    -1.472443846098     1.007825032230
         H           -3.205959816938     1.407367557866    -0.731278846098     1.007825032230
         H           -1.106997816938     1.599193557866     1.496128153902     1.007825032230
         H           -2.752837816938     2.275455557866     1.532529153902     1.007825032230
         H           -0.682839816938    -2.797279442134     0.370153153902     1.007825032230
         H           -3.318131816938    -1.981727442134    -0.347000846098     1.007825032230
         H            0.481144183062     1.906620557866    -0.668107846098     1.007825032230
         H           -1.221664816938     3.844275557866     0.787962153902     1.007825032230
         H            2.921699183062     2.416351557866    -0.222983846098     1.007825032230
         H            5.147180183062     1.300067557866     0.015088153902     1.007825032230
         H            5.251746183062    -0.374332442134     0.376598153902     1.007825032230

  Basis Set: AUG-CC-PVTZ
    Blend: AUG-CC-PVTZ
  Basis Set: (AUG-CC-PVTZ AUX)
    Blend: AUG-CC-PVTZ-JKFIT
	 Reference Energy          =    -886.3739782464695054 [Eh]
	 Singles Energy            =      -0.0000000000000000 [Eh]
	 Same-Spin Energy          =      -0.9016650818943986 [Eh]
	 Opposite-Spin Energy      =      -2.7158988006552098 [Eh]
	 Correlation Energy        =      -3.6175638825496086 [Eh]
	 Total Energy              =    -889.9915421290190807 [Eh]

	 ================> DF-SCS-MP2 Energies <==================
	-----------------------------------------------------------
	 SCS Same-Spin Scale       =       0.3333333333333333 [-]
	 SCS Opposite-Spin Scale   =       1.2000000000000000 [-]
	 SCS Same-Spin Energy      =      -0.3005550272981329 [Eh]
	 SCS Opposite-Spin Energy  =      -3.2590785607862518 [Eh]
	 SCS Correlation Energy    =      -3.5596335880843846 [Eh]
	 SCS Total Energy          =    -889.9336118345538580 [Eh]
	-----------------------------------------------------------

  Dipole Moment: [D]
     X:     2.5993      Y:     5.7152      Z:     1.9388     Total:     6.5710

*** Psi4 exiting successfully. Buy a developer a beer!
