                               Psi4 1.3.2 release

  ==> Input File <==

--------------------------------------------------------------------------
#psi4
#
memory 32 gb

molecule  {
0 1
  O       -1.2481010    -0.6526680     1.0325150
  O       -1.2449750     2.4828510    -0.6861630
  O       -3.2165300     1.5210990     0.7448870
  O       -2.3570290    -3.0668370     0.0949400
  O        1.3208497     2.2331025    -0.0657176
  N        0.8084029     0.0792271     0.2611048
  N        3.0572260     0.7205030    -0.2937270
  N        4.7164630    -0.8366550    -0.5722980
  C       -1.2894840     1.0784300    -0.5920770
  C       -2.7151710     0.6552070    -0.2573930
  C       -0.5254080     0.4815200     0.6000940
  C       -2.5292560    -0.7168860     0.3610560
  C       -2.5283440    -1.8503930    -0.6392900
  C        1.2197750    -1.2614080     0.3112740
  C        1.7555940     1.0674350    -0.0594030
  C        2.5111010    -1.6091400     0.0469950
  C        3.4119830    -0.5506530    -0.2589250
  H       -0.9376060     0.5914040    -1.5148910
  H       -3.3625820     0.6426650    -1.1464650
  H       -0.4402900     1.2218800     1.4039980
  H       -3.2819570    -0.9087340     1.1307830
  H       -1.7133080    -1.7003050    -1.3694640
  H       -3.4855610    -1.8340040    -1.1841350
  H       -0.2975250     2.7131790    -0.5250000
  H       -2.8475560     2.3997430     0.5086630
  H        0.4343110    -1.9634370     0.5690680
  H       -2.4338740    -3.7984320    -0.5432330
  H        2.8291120    -2.6453980     0.0739220
  H        5.1251800    -1.6708610    -0.1624140
  H        5.3198140    -0.0200540    -0.5682940
units angstrom
no_reorient  #important for SAPT in psi4, default
symmetry c1  #important for SAPT in psi4, default
}

set PROPERTIES_ORIGIN ["COM"]
properties('MP2/aug-cc-pvtz', properties = ['dipole'])
--------------------------------------------------------------------------

    Molecular point group: c1
  Charge       = 0
  Multiplicity = 1
  Basis Set: AUG-CC-PVTZ
    Blend: AUG-CC-PVTZ
  Basis Set: (AUG-CC-PVTZ AUX)
    Blend: AUG-CC-PVTZ-JKFIT

    Orbital Energies [Eh]
    ---------------------

    Doubly Occupied:

       1A    -20.581173     2A    -20.579011     3A    -20.555358
       4A    -20.553391     5A    -20.519884     6A    -15.634095
       7A    -15.603696     8A    -15.557763     9A    -11.389016
      10A    -11.362622    11A    -11.335034    12A    -11.332688
      13A    -11.299765    14A    -11.294918    15A    -11.292708
      16A    -11.290216    17A    -11.253576    18A     -1.428697
      19A     -1.396397    20A     -1.377686    21A     -1.371249
      22A     -1.343386    23A     -1.305018    24A     -1.270440
      25A     -1.186685    26A     -1.084524    27A     -1.065536
      28A     -1.019205    29A     -0.936922    30A     -0.905949
      31A     -0.877095    32A     -0.832012    33A     -0.810563
      34A     -0.768890    35A     -0.749687    36A     -0.734261
      37A     -0.722729    38A     -0.702648    39A     -0.696383
      40A     -0.687218    41A     -0.672187    42A     -0.654506
      43A     -0.652253    44A     -0.637832    45A     -0.620182
      46A     -0.614115    47A     -0.605559    48A     -0.591264
      49A     -0.574198    50A     -0.568771    51A     -0.552543
      52A     -0.545444    53A     -0.536108    54A     -0.530624
      55A     -0.492872    56A     -0.475649    57A     -0.471654
      58A     -0.461441    59A     -0.459341    60A     -0.450015
      61A     -0.440015    62A     -0.434191    63A     -0.396886
      64A     -0.352719

  @DF-RHF Final Energy:  -886.36929383205620

   => Energetics <=

    Nuclear Repulsion Energy =           1324.7963877805302673
    One-Electron Energy =               -3847.3344314968126127
    Two-Electron Energy =                1636.1687498842259174
    Total Energy =                       -886.3692938320562007
  Basis Set: (AUG-CC-PVTZ AUX)
    Blend: AUG-CC-PVTZ-RI
    Molecular point group: c1

    Geometry (in Angstrom), charge = 0, multiplicity = 1:

       Center              X                  Y                   Z               Mass
    ------------   -----------------  -----------------  -----------------  -----------------
         O           -1.243473831124    -0.653710128345     1.031505418672    15.994914619570
         O           -1.240347831124     2.481808871655    -0.687172581328    15.994914619570
         O           -3.211902831124     1.520056871655     0.743877418672    15.994914619570
         O           -2.352401831124    -3.067879128345     0.093930418672    15.994914619570
         O            1.325476868876     2.232060371655    -0.066727181328    15.994914619570
         N            0.813030068876     0.078184971655     0.260095218672    14.003074004430
         N            3.061853168876     0.719460871655    -0.294736581328    14.003074004430
         N            4.721090168876    -0.837697128345    -0.573307581328    14.003074004430
         C           -1.284856831124     1.077387871655    -0.593086581328    12.000000000000
         C           -2.710543831124     0.654164871655    -0.258402581328    12.000000000000
         C           -0.520780831124     0.480477871655     0.599084418672    12.000000000000
         C           -2.524628831124    -0.717928128345     0.360046418672    12.000000000000
         C           -2.523716831124    -1.851435128345    -0.640299581328    12.000000000000
         C            1.224402168876    -1.262450128345     0.310264418672    12.000000000000
         C            1.760221168876     1.066392871655    -0.060412581328    12.000000000000
         C            2.515728168876    -1.610182128345     0.045985418672    12.000000000000
         C            3.416610168876    -0.551695128345    -0.259934581328    12.000000000000
         H           -0.932978831124     0.590361871655    -1.515900581328     1.007825032230
         H           -3.357954831124     0.641622871655    -1.147474581328     1.007825032230
         H           -0.435662831124     1.220837871655     1.402988418672     1.007825032230
         H           -3.277329831124    -0.909776128345     1.129773418672     1.007825032230
         H           -1.708680831124    -1.701347128345    -1.370473581328     1.007825032230
         H           -3.480933831124    -1.835046128345    -1.185144581328     1.007825032230
         H           -0.292897831124     2.712136871655    -0.526009581328     1.007825032230
         H           -2.842928831124     2.398700871655     0.507653418672     1.007825032230
         H            0.438938168876    -1.964479128345     0.568058418672     1.007825032230
         H           -2.429246831124    -3.799474128345    -0.544242581328     1.007825032230
         H            2.833739168876    -2.646440128345     0.072912418672     1.007825032230
         H            5.129807168876    -1.671903128345    -0.163423581328     1.007825032230
         H            5.324441168876    -0.021096128345    -0.569303581328     1.007825032230

  Basis Set: AUG-CC-PVTZ
    Blend: AUG-CC-PVTZ
  Basis Set: (AUG-CC-PVTZ AUX)
    Blend: AUG-CC-PVTZ-JKFIT
	 Reference Energy          =    -886.3692938320562007 [Eh]
	 Singles Energy            =      -0.0000000000000000 [Eh]
	 Same-Spin Energy          =      -0.9013139300994129 [Eh]
	 Opposite-Spin Energy      =      -2.7153341003924574 [Eh]
	 Correlation Energy        =      -3.6166480304918700 [Eh]
	 Total Energy              =    -889.9859418625480885 [Eh]

	 ================> DF-SCS-MP2 Energies <==================
	-----------------------------------------------------------
	 SCS Same-Spin Scale       =       0.3333333333333333 [-]
	 SCS Opposite-Spin Scale   =       1.2000000000000000 [-]
	 SCS Same-Spin Energy      =      -0.3004379766998043 [Eh]
	 SCS Opposite-Spin Energy  =      -3.2584009204709488 [Eh]
	 SCS Correlation Energy    =      -3.5588388971707530 [Eh]
	 SCS Total Energy          =    -889.9281327292269452 [Eh]
	-----------------------------------------------------------

  Dipole Moment: [D]
     X:     2.1073      Y:    -6.0485      Z:    -1.8680     Total:     6.6719

*** Psi4 exiting successfully. Buy a developer a beer!
