                               Psi4 1.3.2 release

  ==> Input File <==

--------------------------------------------------------------------------
#psi4
#
memory 32 gb

molecule  {
0 1
  O       -1.2467738    -0.6406902     1.0287182
  O       -1.2449750     2.4828510    -0.6861630
  O       -3.2165300     1.5210990     0.7448870
  O       -2.3570290    -3.0668370     0.0949400
  O        1.3605300     2.2470340    -0.0765420
  N        0.8434040     0.0452230     0.2559430
  N        3.0572260     0.7205030    -0.2937270
  N        4.7164630    -0.8366550    -0.5722980
  C       -1.2894840     1.0784300    -0.5920770
  C       -2.7034779     0.6589527    -0.2524563
  C       -0.5254080     0.4815200     0.6000940
  C       -2.5292560    -0.7168860     0.3610560
  C       -2.5283440    -1.8503930    -0.6392900
  C        1.2197750    -1.2614080     0.3112740
  C        1.7555940     1.0674350    -0.0594030
  C        2.5111010    -1.6091400     0.0469950
  C        3.4119830    -0.5506530    -0.2589250
  H       -0.9376060     0.5914040    -1.5148910
  H       -3.3625820     0.6426650    -1.1464650
  H       -0.4402900     1.2218800     1.4039980
  H       -3.2819570    -0.9087340     1.1307830
  H       -1.7133080    -1.7003050    -1.3694640
  H       -3.4855610    -1.8340040    -1.1841350
  H       -0.2975250     2.7131790    -0.5250000
  H       -2.8475560     2.3997430     0.5086630
  H        0.4343110    -1.9634370     0.5690680
  H       -2.4338740    -3.7984320    -0.5432330
  H        2.8291120    -2.6453980     0.0739220
  H        5.1251800    -1.6708610    -0.1624140
  H        5.3198140    -0.0200540    -0.5682940
units angstrom
no_reorient  #important for SAPT in psi4, default
symmetry c1  #important for SAPT in psi4, default
}

set PROPERTIES_ORIGIN ["COM"]
properties('MP2/aug-cc-pvtz', properties = ['dipole'])
--------------------------------------------------------------------------

    Molecular point group: c1
  Charge       = 0
  Multiplicity = 1
  Basis Set: AUG-CC-PVTZ
    Blend: AUG-CC-PVTZ
  Basis Set: (AUG-CC-PVTZ AUX)
    Blend: AUG-CC-PVTZ-JKFIT

    Orbital Energies [Eh]
    ---------------------

    Doubly Occupied:

       1A    -20.582704     2A    -20.580981     3A    -20.558012
       4A    -20.556978     5A    -20.521795     6A    -15.636557
       7A    -15.599784     8A    -15.553240     9A    -11.388073
      10A    -11.357772    11A    -11.340572    12A    -11.328551
      13A    -11.301685    14A    -11.297533    15A    -11.295802
      16A    -11.292903    17A    -11.248531    18A     -1.432177
      19A     -1.396707    20A     -1.380665    21A     -1.373731
      22A     -1.346593    23A     -1.305957    24A     -1.273672
      25A     -1.182134    26A     -1.081937    27A     -1.068694
      28A     -1.022434    29A     -0.935906    30A     -0.909576
      31A     -0.877213    32A     -0.832433    33A     -0.811510
      34A     -0.767067    35A     -0.752738    36A     -0.737060
      37A     -0.720275    38A     -0.703233    39A     -0.699038
      40A     -0.686081    41A     -0.672847    42A     -0.654916
      43A     -0.651800    44A     -0.638248    45A     -0.620997
      46A     -0.614555    47A     -0.607203    48A     -0.593650
      49A     -0.575766    50A     -0.570791    51A     -0.553981
      52A     -0.545705    53A     -0.537642    54A     -0.531899
      55A     -0.498357    56A     -0.477889    57A     -0.475163
      58A     -0.462315    59A     -0.459494    60A     -0.452845
      61A     -0.440116    62A     -0.432854    63A     -0.394994
      64A     -0.349849

  @DF-RHF Final Energy:  -886.37364109969849

   => Energetics <=

    Nuclear Repulsion Energy =           1324.3228550037035802
    One-Electron Energy =               -3846.2886272416390057
    Two-Electron Energy =                1635.5921311382367094
    Total Energy =                       -886.3736410996984887
  Basis Set: (AUG-CC-PVTZ AUX)
    Blend: AUG-CC-PVTZ-RI
    Molecular point group: c1

    Geometry (in Angstrom), charge = 0, multiplicity = 1:

       Center              X                  Y                   Z               Mass
    ------------   -----------------  -----------------  -----------------  -----------------
         O           -1.247438396969    -0.641663231315     1.028724333275    15.994914619570
         O           -1.245639596969     2.481877968685    -0.686156866725    15.994914619570
         O           -3.217194596969     1.520125968685     0.744893133275    15.994914619570
         O           -2.357693596969    -3.067810031315     0.094946133275    15.994914619570
         O            1.359865403031     2.246060968685    -0.076535866725    15.994914619570
         N            0.842739403031     0.044249968685     0.255949133275    14.003074004430
         N            3.056561403031     0.719529968685    -0.293720866725    14.003074004430
         N            4.715798403031    -0.837628031315    -0.572291866725    14.003074004430
         C           -1.290148596969     1.077456968685    -0.592070866725    12.000000000000
         C           -2.704142496969     0.657979668685    -0.252450166725    12.000000000000
         C           -0.526072596969     0.480546968685     0.600100133275    12.000000000000
         C           -2.529920596969    -0.717859031315     0.361062133275    12.000000000000
         C           -2.529008596969    -1.851366031315    -0.639283866725    12.000000000000
         C            1.219110403031    -1.262381031315     0.311280133275    12.000000000000
         C            1.754929403031     1.066461968685    -0.059396866725    12.000000000000
         C            2.510436403031    -1.610113031315     0.047001133275    12.000000000000
         C            3.411318403031    -0.551626031315    -0.258918866725    12.000000000000
         H           -0.938270596969     0.590430968685    -1.514884866725     1.007825032230
         H           -3.363246596969     0.641691968685    -1.146458866725     1.007825032230
         H           -0.440954596969     1.220906968685     1.404004133275     1.007825032230
         H           -3.282621596969    -0.909707031315     1.130789133275     1.007825032230
         H           -1.713972596969    -1.701278031315    -1.369457866725     1.007825032230
         H           -3.486225596969    -1.834977031315    -1.184128866725     1.007825032230
         H           -0.298189596969     2.712205968685    -0.524993866725     1.007825032230
         H           -2.848220596969     2.398769968685     0.508669133275     1.007825032230
         H            0.433646403031    -1.964410031315     0.569074133275     1.007825032230
         H           -2.434538596969    -3.799405031315    -0.543226866725     1.007825032230
         H            2.828447403031    -2.646371031315     0.073928133275     1.007825032230
         H            5.124515403031    -1.671834031315    -0.162407866725     1.007825032230
         H            5.319149403031    -0.021027031315    -0.568287866725     1.007825032230

  Basis Set: AUG-CC-PVTZ
    Blend: AUG-CC-PVTZ
  Basis Set: (AUG-CC-PVTZ AUX)
    Blend: AUG-CC-PVTZ-JKFIT
	 Reference Energy          =    -886.3736410996984887 [Eh]
	 Singles Energy            =      -0.0000000000000000 [Eh]
	 Same-Spin Energy          =      -0.9012333270763199 [Eh]
	 Opposite-Spin Energy      =      -2.7146221763176683 [Eh]
	 Correlation Energy        =      -3.6158555033939881 [Eh]
	 Total Energy              =    -889.9894966030924479 [Eh]

	 ================> DF-SCS-MP2 Energies <==================
	-----------------------------------------------------------
	 SCS Same-Spin Scale       =       0.3333333333333333 [-]
	 SCS Opposite-Spin Scale   =       1.2000000000000000 [-]
	 SCS Same-Spin Energy      =      -0.3004111090254399 [Eh]
	 SCS Opposite-Spin Energy  =      -3.2575466115812017 [Eh]
	 SCS Correlation Energy    =      -3.5579577206066415 [Eh]
	 SCS Total Energy          =    -889.9315988203051120 [Eh]
	-----------------------------------------------------------

  Dipole Moment: [D]
     X:     1.6958      Y:    -5.9856      Z:    -1.8006     Total:     6.4765

*** Psi4 exiting successfully. Buy a developer a beer!
