                               Psi4 1.3.2 release

  ==> Input File <==

--------------------------------------------------------------------------
#psi4
#
memory 32 gb

molecule  {
0 1
  O       -1.2596866    -0.6569704     1.0545565
  O       -1.2449750     2.4828510    -0.6861630
  O       -3.2165300     1.5210990     0.7448870
  O       -2.3570290    -3.0668370     0.0949400
  O        1.3605300     2.2470340    -0.0765420
  N        0.8434040     0.0452230     0.2559430
  N        3.0572260     0.7205030    -0.2937270
  N        4.7164630    -0.8366550    -0.5722980
  C       -1.2894840     1.0784300    -0.5920770
  C       -2.7151710     0.6552070    -0.2573930
  C       -0.5254080     0.4815200     0.6000940
  C       -2.5292560    -0.7168860     0.3610560
  C       -2.5283440    -1.8503930    -0.6392900
  C        1.2197750    -1.2614080     0.3112740
  C        1.7555940     1.0674350    -0.0594030
  C        2.5111010    -1.6091400     0.0469950
  C        3.4119830    -0.5506530    -0.2589250
  H       -0.9376060     0.5914040    -1.5148910
  H       -3.3625820     0.6426650    -1.1464650
  H       -0.4402900     1.2218800     1.4039980
  H       -3.2681811    -0.9088363     1.1439921
  H       -1.7133080    -1.7003050    -1.3694640
  H       -3.4855610    -1.8340040    -1.1841350
  H       -0.2975250     2.7131790    -0.5250000
  H       -2.8475560     2.3997430     0.5086630
  H        0.4343110    -1.9634370     0.5690680
  H       -2.4338740    -3.7984320    -0.5432330
  H        2.8291120    -2.6453980     0.0739220
  H        5.1251800    -1.6708610    -0.1624140
  H        5.3198140    -0.0200540    -0.5682940
units angstrom
no_reorient  #important for SAPT in psi4, default
symmetry c1  #important for SAPT in psi4, default
}

set PROPERTIES_ORIGIN ["COM"]
properties('MP2/aug-cc-pvtz', properties = ['dipole'])
--------------------------------------------------------------------------

    Molecular point group: c1
  Charge       = 0
  Multiplicity = 1
  Basis Set: AUG-CC-PVTZ
    Blend: AUG-CC-PVTZ
  Basis Set: (AUG-CC-PVTZ AUX)
    Blend: AUG-CC-PVTZ-JKFIT

    Orbital Energies [Eh]
    ---------------------

    Doubly Occupied:

       1A    -20.582011     2A    -20.581707     3A    -20.557853
       4A    -20.557664     5A    -20.522414     6A    -15.637727
       7A    -15.600155     8A    -15.553760     9A    -11.388782
      10A    -11.358238    11A    -11.342478    12A    -11.328973
      13A    -11.301142    14A    -11.297433    15A    -11.295766
      16A    -11.293071    17A    -11.248941    18A     -1.425747
      19A     -1.396085    20A     -1.379965    21A     -1.371793
      22A     -1.346385    23A     -1.306478    24A     -1.274301
      25A     -1.182645    26A     -1.082356    27A     -1.066883
      28A     -1.021238    29A     -0.935573    30A     -0.909710
      31A     -0.877453    32A     -0.832093    33A     -0.811180
      34A     -0.767266    35A     -0.751972    36A     -0.735544
      37A     -0.720255    38A     -0.702827    39A     -0.698283
      40A     -0.685083    41A     -0.672550    42A     -0.653413
      43A     -0.651798    44A     -0.638371    45A     -0.620541
      46A     -0.614541    47A     -0.606299    48A     -0.594243
      49A     -0.575398    50A     -0.567008    51A     -0.554053
      52A     -0.545918    53A     -0.537762    54A     -0.531901
      55A     -0.498478    56A     -0.477413    57A     -0.474750
      58A     -0.461853    59A     -0.460276    60A     -0.453302
      61A     -0.441099    62A     -0.433661    63A     -0.395603
      64A     -0.350446

  @DF-RHF Final Energy:  -886.37228077349766

   => Energetics <=

    Nuclear Repulsion Energy =           1323.0022206895637282
    One-Electron Energy =               -3843.6691927848596606
    Two-Electron Energy =                1634.2946913217981546
    Total Energy =                       -886.3722807734977778
  Basis Set: (AUG-CC-PVTZ AUX)
    Blend: AUG-CC-PVTZ-RI
    Molecular point group: c1

    Geometry (in Angstrom), charge = 0, multiplicity = 1:

       Center              X                  Y                   Z               Mass
    ------------   -----------------  -----------------  -----------------  -----------------
         O           -1.258981421279    -0.656686869802     1.053051422474    15.994914619570
         O           -1.244269821279     2.483134530198    -0.687668077526    15.994914619570
         O           -3.215824821279     1.521382530198     0.743381922474    15.994914619570
         O           -2.356323821279    -3.066553469802     0.093434922474    15.994914619570
         O            1.361235178721     2.247317530198    -0.078047077526    15.994914619570
         N            0.844109178721     0.045506530198     0.254437922474    14.003074004430
         N            3.057931178721     0.720786530198    -0.295232077526    14.003074004430
         N            4.717168178721    -0.836371469802    -0.573803077526    14.003074004430
         C           -1.288778821279     1.078713530198    -0.593582077526    12.000000000000
         C           -2.714465821279     0.655490530198    -0.258898077526    12.000000000000
         C           -0.524702821279     0.481803530198     0.598588922474    12.000000000000
         C           -2.528550821279    -0.716602469802     0.359550922474    12.000000000000
         C           -2.527638821279    -1.850109469802    -0.640795077526    12.000000000000
         C            1.220480178721    -1.261124469802     0.309768922474    12.000000000000
         C            1.756299178721     1.067718530198    -0.060908077526    12.000000000000
         C            2.511806178721    -1.608856469802     0.045489922474    12.000000000000
         C            3.412688178721    -0.550369469802    -0.260430077526    12.000000000000
         H           -0.936900821279     0.591687530198    -1.516396077526     1.007825032230
         H           -3.361876821279     0.642948530198    -1.147970077526     1.007825032230
         H           -0.439584821279     1.222163530198     1.402492922474     1.007825032230
         H           -3.267475921279    -0.908552769802     1.142487022474     1.007825032230
         H           -1.712602821279    -1.700021469802    -1.370969077526     1.007825032230
         H           -3.484855821279    -1.833720469802    -1.185640077526     1.007825032230
         H           -0.296819821279     2.713462530198    -0.526505077526     1.007825032230
         H           -2.846850821279     2.400026530198     0.507157922474     1.007825032230
         H            0.435016178721    -1.963153469802     0.567562922474     1.007825032230
         H           -2.433168821279    -3.798148469802    -0.544738077526     1.007825032230
         H            2.829817178721    -2.645114469802     0.072416922474     1.007825032230
         H            5.125885178721    -1.670577469802    -0.163919077526     1.007825032230
         H            5.320519178721    -0.019770469802    -0.569799077526     1.007825032230

  Basis Set: AUG-CC-PVTZ
    Blend: AUG-CC-PVTZ
  Basis Set: (AUG-CC-PVTZ AUX)
    Blend: AUG-CC-PVTZ-JKFIT
	 Reference Energy          =    -886.3722807734976641 [Eh]
	 Singles Energy            =      -0.0000000000000000 [Eh]
	 Same-Spin Energy          =      -0.9013413331961496 [Eh]
	 Opposite-Spin Energy      =      -2.7154817692109425 [Eh]
	 Correlation Energy        =      -3.6168231024070923 [Eh]
	 Total Energy              =    -889.9891038759047888 [Eh]

	 ================> DF-SCS-MP2 Energies <==================
	-----------------------------------------------------------
	 SCS Same-Spin Scale       =       0.3333333333333333 [-]
	 SCS Opposite-Spin Scale   =       1.2000000000000000 [-]
	 SCS Same-Spin Energy      =      -0.3004471110653832 [Eh]
	 SCS Opposite-Spin Energy  =      -3.2585781230531308 [Eh]
	 SCS Correlation Energy    =      -3.5590252341185140 [Eh]
	 SCS Total Energy          =    -889.9313060076161719 [Eh]
	-----------------------------------------------------------

  Dipole Moment: [D]
     X:     1.7705      Y:    -5.9239      Z:    -1.8591     Total:     6.4563

*** Psi4 exiting successfully. Buy a developer a beer!
