                               Psi4 1.4a3.dev225

  ==> Input File <==

--------------------------------------------------------------------------
#psi4
#
memory 32 gb

molecule  {
0 1
  O       -1.3191770     0.6538360    -1.0992360
  O       -1.5735610    -2.4640850     0.5135810
  O       -3.5606630    -1.0699430    -0.4600060
  O       -1.4399290     3.1254620     0.1265180
  O        1.1065530    -2.3833650     0.0076020
  N        0.7686360    -0.1579440    -0.3706350
  N        2.9363770    -0.9938720     0.1460080
  N        4.7058880     0.4431110     0.3611260
  C       -1.3768610    -1.0680440     0.5552780
  C       -2.7379840    -0.3746360     0.4578480
  C       -0.6377490    -0.5042940    -0.6790150
  C       -2.3755756     0.9479127    -0.1503969
  C       -1.8992030     1.9895750     0.8571380
  C        1.2309690     1.1190800    -0.4442230
  C        1.6104480    -1.2470590    -0.0585760
  C        2.5474650     1.3753690    -0.1998620
  C        3.3802090     0.2523040     0.0808410
  H       -0.8441360    -0.7686950     1.4698480
  H       -3.2257400    -0.2778790     1.4400230
  H       -0.6227070    -1.2428120    -1.4883720
  H       -3.1941750     1.3785730    -0.7472070
  H       -1.0952130     1.5703990     1.4802000
  H       -2.7410530     2.2466610     1.5166010
  H       -0.6710550    -2.8260740     0.3542250
  H       -3.3063470    -2.0105220    -0.3629290
  H        0.4929290     1.8778260    -0.6840360
  H       -1.2098800     3.8154810     0.7720340
  H        2.9334840     2.3875570    -0.2389120
  H        5.1589650     1.2712730    -0.0008400
  H        5.2635310    -0.4031270     0.3606700
units angstrom
no_reorient  #important for SAPT in psi4, default
symmetry c1  #important for SAPT in psi4, default
}

set PROPERTIES_ORIGIN ["COM"]
properties('MP2/aug-cc-pvtz', properties = ['dipole'])
--------------------------------------------------------------------------

    Molecular point group: c1
  Charge       = 0
  Multiplicity = 1
  Basis Set: AUG-CC-PVTZ
    Blend: AUG-CC-PVTZ
  Basis Set: (AUG-CC-PVTZ AUX)
    Blend: AUG-CC-PVTZ-JKFIT

    Orbital Energies [Eh]
    ---------------------

    Doubly Occupied:

       1A    -20.586992     2A    -20.581295     3A    -20.559556
       4A    -20.556757     5A    -20.519668     6A    -15.632873
       7A    -15.599610     8A    -15.551686     9A    -11.385886
      10A    -11.357995    11A    -11.339263    12A    -11.325016
      13A    -11.304029    14A    -11.298335    15A    -11.297375
      16A    -11.293113    17A    -11.246468    18A     -1.428825
      19A     -1.393916    20A     -1.383103    21A     -1.375449
      22A     -1.347001    23A     -1.303564    24A     -1.271168
      25A     -1.181103    26A     -1.079126    27A     -1.070513
      28A     -1.016520    29A     -0.936551    30A     -0.906477
      31A     -0.877383    32A     -0.831086    33A     -0.811553
      34A     -0.766295    35A     -0.750401    36A     -0.734797
      37A     -0.722128    38A     -0.707723    39A     -0.703714
      40A     -0.684800    41A     -0.675460    42A     -0.653059
      43A     -0.648873    44A     -0.633798    45A     -0.619891
      46A     -0.614723    47A     -0.607479    48A     -0.593156
      49A     -0.577119    50A     -0.563724    51A     -0.556019
      52A     -0.549616    53A     -0.536564    54A     -0.530306
      55A     -0.495688    56A     -0.480965    57A     -0.475586
      58A     -0.462801    59A     -0.457967    60A     -0.453538
      61A     -0.442350    62A     -0.430096    63A     -0.392204
      64A     -0.348167

  @DF-RHF Final Energy:  -886.37345627283776

   => Energetics <=

    Nuclear Repulsion Energy =           1334.7129586111011577
    One-Electron Energy =               -3867.1363106304411303
    Two-Electron Energy =                1646.0498957465024432
    Total Energy =                       -886.3734562728377568
  Basis Set: (AUG-CC-PVTZ AUX)
    Blend: AUG-CC-PVTZ-RI
    Molecular point group: c1

    Geometry (in Angstrom), charge = 0, multiplicity = 1:

       Center              X                  Y                   Z               Mass
    ------------   -----------------  -----------------  -----------------  -----------------
         O           -1.331682141207     0.683317891277    -1.083856097593    15.994914619570
         O           -1.586066141207    -2.434603108723     0.528960902407    15.994914619570
         O           -3.573168141207    -1.040461108723    -0.444626097593    15.994914619570
         O           -1.452434141207     3.154943891277     0.141897902407    15.994914619570
         O            1.094047858793    -2.353883108723     0.022981902407    15.994914619570
         N            0.756130858793    -0.128462108723    -0.355255097593    14.003074004430
         N            2.923871858793    -0.964390108723     0.161387902407    14.003074004430
         N            4.693382858793     0.472592891277     0.376505902407    14.003074004430
         C           -1.389366141207    -1.038562108723     0.570657902407    12.000000000000
         C           -2.750489141207    -0.345154108723     0.473227902407    12.000000000000
         C           -0.650254141207    -0.474812108723    -0.663635097593    12.000000000000
         C           -2.388080741207     0.977394591277    -0.135016997593    12.000000000000
         C           -1.911708141207     2.019056891277     0.872517902407    12.000000000000
         C            1.218463858793     1.148561891277    -0.428843097593    12.000000000000
         C            1.597942858793    -1.217577108723    -0.043196097593    12.000000000000
         C            2.534959858793     1.404850891277    -0.184482097593    12.000000000000
         C            3.367703858793     0.281785891277     0.096220902407    12.000000000000
         H           -0.856641141207    -0.739213108723     1.485227902407     1.007825032230
         H           -3.238245141207    -0.248397108723     1.455402902407     1.007825032230
         H           -0.635212141207    -1.213330108723    -1.472992097593     1.007825032230
         H           -3.206680141207     1.408054891277    -0.731827097593     1.007825032230
         H           -1.107718141207     1.599880891277     1.495579902407     1.007825032230
         H           -2.753558141207     2.276142891277     1.531980902407     1.007825032230
         H           -0.683560141207    -2.796592108723     0.369604902407     1.007825032230
         H           -3.318852141207    -1.981040108723    -0.347549097593     1.007825032230
         H            0.480423858793     1.907307891277    -0.668656097593     1.007825032230
         H           -1.222385141207     3.844962891277     0.787413902407     1.007825032230
         H            2.920978858793     2.417038891277    -0.223532097593     1.007825032230
         H            5.146459858793     1.300754891277     0.014539902407     1.007825032230
         H            5.251025858793    -0.373645108723     0.376049902407     1.007825032230

  Basis Set: AUG-CC-PVTZ
    Blend: AUG-CC-PVTZ
  Basis Set: (AUG-CC-PVTZ AUX)
    Blend: AUG-CC-PVTZ-JKFIT
	 Reference Energy          =    -886.3734562728377568 [Eh]
	 Singles Energy            =      -0.0000000000000000 [Eh]
	 Same-Spin Energy          =      -0.9019519991185879 [Eh]
	 Opposite-Spin Energy      =      -2.7161400338821724 [Eh]
	 Correlation Energy        =      -3.6180920330007602 [Eh]
	 Total Energy              =    -889.9915483058384780 [Eh]

	 ================> DF-SCS-MP2 Energies <==================
	-----------------------------------------------------------
	 SCS Same-Spin Scale       =       0.3333333333333333 [-]
	 SCS Opposite-Spin Scale   =       1.2000000000000000 [-]
	 SCS Same-Spin Energy      =      -0.3006506663728626 [Eh]
	 SCS Opposite-Spin Energy  =      -3.2593680406586070 [Eh]
	 SCS Correlation Energy    =      -3.5600187070314697 [Eh]
	 SCS Total Energy          =    -889.9334749798691746 [Eh]
	-----------------------------------------------------------

  Dipole Moment: [D]
     X:     2.7274      Y:     5.7838      Z:     1.9560     Total:     6.6871

*** Psi4 exiting successfully. Buy a developer a beer!
