                               Psi4 1.4a3.dev225

  ==> Input File <==

--------------------------------------------------------------------------
#psi4
#
memory 32 gb

molecule  {
0 1
  O       -1.3191770     0.6538360    -1.0992360
  O       -1.5735610    -2.4640850     0.5135810
  O       -3.5606630    -1.0699430    -0.4600060
  O       -1.4399290     3.1254620     0.1265180
  O        1.1065530    -2.3833650     0.0076020
  N        0.7686360    -0.1579440    -0.3706350
  N        2.9363770    -0.9938720     0.1460080
  N        4.7058880     0.4431110     0.3611260
  C       -1.3768610    -1.0680440     0.5552780
  C       -2.7379840    -0.3746360     0.4578480
  C       -0.6377490    -0.5042940    -0.6790150
  C       -2.3707440     0.9655450    -0.1585060
  C       -1.8992030     1.9895750     0.8571380
  C        1.2309690     1.1190800    -0.4442230
  C        1.6104480    -1.2470590    -0.0585760
  C        2.5474650     1.3753690    -0.1998620
  C        3.3608327     0.2495151     0.0767443
  H       -0.8441360    -0.7686950     1.4698480
  H       -3.2257400    -0.2778790     1.4400230
  H       -0.6227070    -1.2428120    -1.4883720
  H       -3.1941750     1.3785730    -0.7472070
  H       -1.0952130     1.5703990     1.4802000
  H       -2.7410530     2.2466610     1.5166010
  H       -0.6710550    -2.8260740     0.3542250
  H       -3.3063470    -2.0105220    -0.3629290
  H        0.4929290     1.8778260    -0.6840360
  H       -1.2098800     3.8154810     0.7720340
  H        2.9334840     2.3875570    -0.2389120
  H        5.1589650     1.2712730    -0.0008400
  H        5.2635310    -0.4031270     0.3606700
units angstrom
no_reorient  #important for SAPT in psi4, default
symmetry c1  #important for SAPT in psi4, default
}

set PROPERTIES_ORIGIN ["COM"]
properties('MP2/aug-cc-pvtz', properties = ['dipole'])
--------------------------------------------------------------------------

    Molecular point group: c1
  Charge       = 0
  Multiplicity = 1
  Basis Set: AUG-CC-PVTZ
    Blend: AUG-CC-PVTZ
  Basis Set: (AUG-CC-PVTZ AUX)
    Blend: AUG-CC-PVTZ-JKFIT

    Orbital Energies [Eh]
    ---------------------

    Doubly Occupied:

       1A    -20.587224     2A    -20.582165     3A    -20.560039
       4A    -20.556967     5A    -20.520962     6A    -15.634619
       7A    -15.595730     8A    -15.553331     9A    -11.387064
      10A    -11.357010    11A    -11.340553    12A    -11.326230
      13A    -11.304096    14A    -11.298529    15A    -11.297734
      16A    -11.294105    17A    -11.246574    18A     -1.430118
      19A     -1.395509    20A     -1.383655    21A     -1.376153
      22A     -1.347170    23A     -1.303640    24A     -1.268807
      25A     -1.180056    26A     -1.081664    27A     -1.068682
      28A     -1.018259    29A     -0.937168    30A     -0.908280
      31A     -0.876884    32A     -0.830448    33A     -0.812964
      34A     -0.765383    35A     -0.751385    36A     -0.735857
      37A     -0.719494    38A     -0.708026    39A     -0.702493
      40A     -0.683850    41A     -0.674579    42A     -0.654445
      43A     -0.650221    44A     -0.634670    45A     -0.621472
      46A     -0.615809    47A     -0.607407    48A     -0.593494
      49A     -0.577648    50A     -0.564970    51A     -0.555893
      52A     -0.548783    53A     -0.536947    54A     -0.529472
      55A     -0.496647    56A     -0.481360    57A     -0.474282
      58A     -0.464090    59A     -0.460443    60A     -0.453712
      61A     -0.442476    62A     -0.432264    63A     -0.393451
      64A     -0.349433

  @DF-RHF Final Energy:  -886.37361350218794

   => Energetics <=

    Nuclear Repulsion Energy =           1334.8775262236540584
    One-Electron Energy =               -3867.4165909373928116
    Two-Electron Energy =                1646.1654512115508169
    Total Energy =                       -886.3736135021879363
  Basis Set: (AUG-CC-PVTZ AUX)
    Blend: AUG-CC-PVTZ-RI
    Molecular point group: c1

    Geometry (in Angstrom), charge = 0, multiplicity = 1:

       Center              X                  Y                   Z               Mass
    ------------   -----------------  -----------------  -----------------  -----------------
         O           -1.330964137109     0.682585141751    -1.083253554094    15.994914619570
         O           -1.585348137109    -2.435335858249     0.529563445906    15.994914619570
         O           -3.572450137109    -1.041193858249    -0.444023554094    15.994914619570
         O           -1.451716137109     3.154211141751     0.142500445906    15.994914619570
         O            1.094765862891    -2.354615858249     0.023584445906    15.994914619570
         N            0.756848862891    -0.129194858249    -0.354652554094    14.003074004430
         N            2.924589862891    -0.965122858249     0.161990445906    14.003074004430
         N            4.694100862891     0.471860141751     0.377108445906    14.003074004430
         C           -1.388648137109    -1.039294858249     0.571260445906    12.000000000000
         C           -2.749771137109    -0.345886858249     0.473830445906    12.000000000000
         C           -0.649536137109    -0.475544858249    -0.663032554094    12.000000000000
         C           -2.382531137109     0.994294141751    -0.142523554094    12.000000000000
         C           -1.910990137109     2.018324141751     0.873120445906    12.000000000000
         C            1.219181862891     1.147829141751    -0.428240554094    12.000000000000
         C            1.598660862891    -1.218309858249    -0.042593554094    12.000000000000
         C            2.535677862891     1.404118141751    -0.183879554094    12.000000000000
         C            3.349045562891     0.278264241751     0.092726745906    12.000000000000
         H           -0.855923137109    -0.739945858249     1.485830445906     1.007825032230
         H           -3.237527137109    -0.249129858249     1.456005445906     1.007825032230
         H           -0.634494137109    -1.214062858249    -1.472389554094     1.007825032230
         H           -3.205962137109     1.407322141751    -0.731224554094     1.007825032230
         H           -1.107000137109     1.599148141751     1.496182445906     1.007825032230
         H           -2.752840137109     2.275410141751     1.532583445906     1.007825032230
         H           -0.682842137109    -2.797324858249     0.370207445906     1.007825032230
         H           -3.318134137109    -1.981772858249    -0.346946554094     1.007825032230
         H            0.481141862891     1.906575141751    -0.668053554094     1.007825032230
         H           -1.221667137109     3.844230141751     0.788016445906     1.007825032230
         H            2.921696862891     2.416306141751    -0.222929554094     1.007825032230
         H            5.147177862891     1.300022141751     0.015142445906     1.007825032230
         H            5.251743862891    -0.374377858249     0.376652445906     1.007825032230

  Basis Set: AUG-CC-PVTZ
    Blend: AUG-CC-PVTZ
  Basis Set: (AUG-CC-PVTZ AUX)
    Blend: AUG-CC-PVTZ-JKFIT
	 Reference Energy          =    -886.3736135021879363 [Eh]
	 Singles Energy            =      -0.0000000000000000 [Eh]
	 Same-Spin Energy          =      -0.9018446994029270 [Eh]
	 Opposite-Spin Energy      =      -2.7160049798752617 [Eh]
	 Correlation Energy        =      -3.6178496792781889 [Eh]
	 Total Energy              =    -889.9914631814660879 [Eh]

	 ================> DF-SCS-MP2 Energies <==================
	-----------------------------------------------------------
	 SCS Same-Spin Scale       =       0.3333333333333333 [-]
	 SCS Opposite-Spin Scale   =       1.2000000000000000 [-]
	 SCS Same-Spin Energy      =      -0.3006148998009757 [Eh]
	 SCS Opposite-Spin Energy  =      -3.2592059758503140 [Eh]
	 SCS Correlation Energy    =      -3.5598208756512895 [Eh]
	 SCS Total Energy          =    -889.9334343778392622 [Eh]
	-----------------------------------------------------------

  Dipole Moment: [D]
     X:     2.5250      Y:     5.7603      Z:     1.9149     Total:     6.5744

*** Psi4 exiting successfully. Buy a developer a beer!
