                               Psi4 1.3.2 release

  ==> Input File <==

--------------------------------------------------------------------------
#psi4
#
memory 32 gb

molecule  {
0 1
  O       -1.2481010    -0.6526680     1.0325150
  O       -1.2449750     2.4828510    -0.6861630
  O       -3.2165300     1.5210990     0.7448870
  O       -2.3570290    -3.0668370     0.0949400
  O        1.3504754     2.2436502    -0.0742338
  N        0.8434040     0.0452230     0.2559430
  N        3.0543825     0.7090147    -0.2922090
  N        4.7164630    -0.8366550    -0.5722980
  C       -1.2894840     1.0784300    -0.5920770
  C       -2.7151710     0.6552070    -0.2573930
  C       -0.5254080     0.4815200     0.6000940
  C       -2.5292560    -0.7168860     0.3610560
  C       -2.5283440    -1.8503930    -0.6392900
  C        1.2197750    -1.2614080     0.3112740
  C        1.7555940     1.0674350    -0.0594030
  C        2.5111010    -1.6091400     0.0469950
  C        3.4119830    -0.5506530    -0.2589250
  H       -0.9376060     0.5914040    -1.5148910
  H       -3.3625820     0.6426650    -1.1464650
  H       -0.4402900     1.2218800     1.4039980
  H       -3.2819570    -0.9087340     1.1307830
  H       -1.7133080    -1.7003050    -1.3694640
  H       -3.4855610    -1.8340040    -1.1841350
  H       -0.2975250     2.7131790    -0.5250000
  H       -2.8475560     2.3997430     0.5086630
  H        0.4343110    -1.9634370     0.5690680
  H       -2.4338740    -3.7984320    -0.5432330
  H        2.8291120    -2.6453980     0.0739220
  H        5.1251800    -1.6708610    -0.1624140
  H        5.3198140    -0.0200540    -0.5682940
units angstrom
no_reorient  #important for SAPT in psi4, default
symmetry c1  #important for SAPT in psi4, default
}

set PROPERTIES_ORIGIN ["COM"]
properties('MP2/aug-cc-pvtz', properties = ['dipole'])
--------------------------------------------------------------------------

    Molecular point group: c1
  Charge       = 0
  Multiplicity = 1
  Basis Set: AUG-CC-PVTZ
    Blend: AUG-CC-PVTZ
  Basis Set: (AUG-CC-PVTZ AUX)
    Blend: AUG-CC-PVTZ-JKFIT

    Orbital Energies [Eh]
    ---------------------

    Doubly Occupied:

       1A    -20.582060     2A    -20.581295     3A    -20.557624
       4A    -20.556937     5A    -20.523370     6A    -15.636331
       7A    -15.599226     8A    -15.552836     9A    -11.389638
      10A    -11.356715    11A    -11.341197    12A    -11.327727
      13A    -11.300993    14A    -11.296710    15A    -11.296429
      16A    -11.292775    17A    -11.247945    18A     -1.429323
      19A     -1.397261    20A     -1.379932    21A     -1.372635
      22A     -1.346132    23A     -1.307651    24A     -1.273858
      25A     -1.183881    26A     -1.081490    27A     -1.067530
      28A     -1.021234    29A     -0.935546    30A     -0.909150
      31A     -0.878706    32A     -0.832133    33A     -0.811701
      34A     -0.767138    35A     -0.752354    36A     -0.736075
      37A     -0.720633    38A     -0.702867    39A     -0.698260
      40A     -0.685800    41A     -0.672611    42A     -0.655208
      43A     -0.651877    44A     -0.638603    45A     -0.620649
      46A     -0.614506    47A     -0.606643    48A     -0.594281
      49A     -0.575592    50A     -0.569726    51A     -0.553894
      52A     -0.545698    53A     -0.537610    54A     -0.531821
      55A     -0.498102    56A     -0.477326    57A     -0.474275
      58A     -0.462752    59A     -0.460580    60A     -0.452616
      61A     -0.440331    62A     -0.432329    63A     -0.396567
      64A     -0.349822

  @DF-RHF Final Energy:  -886.37376522038517

   => Energetics <=

    Nuclear Repulsion Energy =           1324.1952265011993859
    One-Electron Energy =               -3846.0489480957189699
    Two-Electron Energy =                1635.4799563741346446
    Total Energy =                       -886.3737652203851667
  Basis Set: (AUG-CC-PVTZ AUX)
    Blend: AUG-CC-PVTZ-RI
    Molecular point group: c1

    Geometry (in Angstrom), charge = 0, multiplicity = 1:

       Center              X                  Y                   Z               Mass
    ------------   -----------------  -----------------  -----------------  -----------------
         O           -1.247275644546    -0.651783547601     1.032275683772    15.994914619570
         O           -1.244149644546     2.483735452399    -0.686402316228    15.994914619570
         O           -3.215704644546     1.521983452399     0.744647683772    15.994914619570
         O           -2.356203644546    -3.065952547601     0.094700683772    15.994914619570
         O            1.351300755454     2.244534652399    -0.074473116228    15.994914619570
         N            0.844229355454     0.046107452399     0.255703683772    14.003074004430
         N            3.055207855454     0.709899152399    -0.292448316228    14.003074004430
         N            4.717288355454    -0.835770547601    -0.572537316228    14.003074004430
         C           -1.288658644546     1.079314452399    -0.592316316228    12.000000000000
         C           -2.714345644546     0.656091452399    -0.257632316228    12.000000000000
         C           -0.524582644546     0.482404452399     0.599854683772    12.000000000000
         C           -2.528430644546    -0.716001547601     0.360816683772    12.000000000000
         C           -2.527518644546    -1.849508547601    -0.639529316228    12.000000000000
         C            1.220600355454    -1.260523547601     0.311034683772    12.000000000000
         C            1.756419355454     1.068319452399    -0.059642316228    12.000000000000
         C            2.511926355454    -1.608255547601     0.046755683772    12.000000000000
         C            3.412808355454    -0.549768547601    -0.259164316228    12.000000000000
         H           -0.936780644546     0.592288452399    -1.515130316228     1.007825032230
         H           -3.361756644546     0.643549452399    -1.146704316228     1.007825032230
         H           -0.439464644546     1.222764452399     1.403758683772     1.007825032230
         H           -3.281131644546    -0.907849547601     1.130543683772     1.007825032230
         H           -1.712482644546    -1.699420547601    -1.369703316228     1.007825032230
         H           -3.484735644546    -1.833119547601    -1.184374316228     1.007825032230
         H           -0.296699644546     2.714063452399    -0.525239316228     1.007825032230
         H           -2.846730644546     2.400627452399     0.508423683772     1.007825032230
         H            0.435136355454    -1.962552547601     0.568828683772     1.007825032230
         H           -2.433048644546    -3.797547547601    -0.543472316228     1.007825032230
         H            2.829937355454    -2.644513547601     0.073682683772     1.007825032230
         H            5.126005355454    -1.669976547601    -0.162653316228     1.007825032230
         H            5.320639355454    -0.019169547601    -0.568533316228     1.007825032230

  Basis Set: AUG-CC-PVTZ
    Blend: AUG-CC-PVTZ
  Basis Set: (AUG-CC-PVTZ AUX)
    Blend: AUG-CC-PVTZ-JKFIT
	 Reference Energy          =    -886.3737652203851667 [Eh]
	 Singles Energy            =      -0.0000000000000000 [Eh]
	 Same-Spin Energy          =      -0.9012360061629557 [Eh]
	 Opposite-Spin Energy      =      -2.7147594720935619 [Eh]
	 Correlation Energy        =      -3.6159954782565178 [Eh]
	 Total Energy              =    -889.9897606986417031 [Eh]

	 ================> DF-SCS-MP2 Energies <==================
	-----------------------------------------------------------
	 SCS Same-Spin Scale       =       0.3333333333333333 [-]
	 SCS Opposite-Spin Scale   =       1.2000000000000000 [-]
	 SCS Same-Spin Energy      =      -0.3004120020543186 [Eh]
	 SCS Opposite-Spin Energy  =      -3.2577113665122743 [Eh]
	 SCS Correlation Energy    =      -3.5581233685665929 [Eh]
	 SCS Total Energy          =    -889.9318885889517787 [Eh]
	-----------------------------------------------------------

  Dipole Moment: [D]
     X:     1.7300      Y:    -5.9008      Z:    -1.8265     Total:     6.4147

*** Psi4 exiting successfully. Buy a developer a beer!
