                               Psi4 1.3.2 release

  ==> Input File <==

--------------------------------------------------------------------------
#psi4
#
memory 32 gb

molecule  {
0 1
  O       -1.2481010    -0.6526680     1.0325150
  O       -1.2449750     2.4828510    -0.6861630
  O       -3.2165300     1.5210990     0.7448870
  O       -2.3570290    -3.0668370     0.0949400
  O        1.3605300     2.2470340    -0.0765420
  N        0.8434040     0.0452230     0.2559430
  N        3.0572260     0.7205030    -0.2937270
  N        4.7164630    -0.8366550    -0.5722980
  C       -1.2894840     1.0784300    -0.5920770
  C       -2.8086971     0.6274433    -0.2354375
  C       -0.5254080     0.4815200     0.6000940
  C       -2.5292560    -0.7168860     0.3610560
  C       -2.5283440    -1.8503930    -0.6392900
  C        1.2197750    -1.2614080     0.3112740
  C        1.7555940     1.0674350    -0.0594030
  C        2.5111010    -1.6091400     0.0469950
  C        3.4119830    -0.5506530    -0.2589250
  H       -0.9376060     0.5914040    -1.5148910
  H       -3.3625820     0.6426650    -1.1464650
  H       -0.4402900     1.2218800     1.4039980
  H       -3.2819570    -0.9087340     1.1307830
  H       -1.7133080    -1.7003050    -1.3694640
  H       -3.4855610    -1.8340040    -1.1841350
  H       -0.2975250     2.7131790    -0.5250000
  H       -2.8475560     2.3997430     0.5086630
  H        0.4343110    -1.9634370     0.5690680
  H       -2.4338740    -3.7984320    -0.5432330
  H        2.8291120    -2.6453980     0.0739220
  H        5.1251800    -1.6708610    -0.1624140
  H        5.3198140    -0.0200540    -0.5682940
units angstrom
no_reorient  #important for SAPT in psi4, default
symmetry c1  #important for SAPT in psi4, default
}

set PROPERTIES_ORIGIN ["COM"]
properties('MP2/aug-cc-pvtz', properties = ['dipole'])
--------------------------------------------------------------------------

    Molecular point group: c1
  Charge       = 0
  Multiplicity = 1
  Basis Set: AUG-CC-PVTZ
    Blend: AUG-CC-PVTZ
  Basis Set: (AUG-CC-PVTZ AUX)
    Blend: AUG-CC-PVTZ-JKFIT

    Orbital Energies [Eh]
    ---------------------

    Doubly Occupied:

       1A    -20.582326     2A    -20.581883     3A    -20.559254
       4A    -20.556185     5A    -20.521222     6A    -15.636296
       7A    -15.599392     8A    -15.552784     9A    -11.387565
      10A    -11.357310    11A    -11.340275    12A    -11.327988
      13A    -11.301423    14A    -11.297215    15A    -11.296399
      16A    -11.294502    17A    -11.248017    18A     -1.428268
      19A     -1.396016    20A     -1.381991    21A     -1.372764
      22A     -1.350471    23A     -1.305433    24A     -1.273207
      25A     -1.181702    26A     -1.081252    27A     -1.065680
      28A     -1.012271    29A     -0.932607    30A     -0.909018
      31A     -0.878816    32A     -0.831391    33A     -0.814583
      34A     -0.766509    35A     -0.751186    36A     -0.732036
      37A     -0.720318    38A     -0.708875    39A     -0.698293
      40A     -0.685062    41A     -0.677175    42A     -0.654873
      43A     -0.650036    44A     -0.639013    45A     -0.619500
      46A     -0.615077    47A     -0.607431    48A     -0.593811
      49A     -0.577458    50A     -0.568919    51A     -0.559043
      52A     -0.547937    53A     -0.535913    54A     -0.530896
      55A     -0.496031    56A     -0.476652    57A     -0.472582
      58A     -0.461533    59A     -0.459493    60A     -0.445451
      61A     -0.432635    62A     -0.431977    63A     -0.394197
      64A     -0.348974

  @DF-RHF Final Energy:  -886.36565209990476

   => Energetics <=

    Nuclear Repulsion Energy =           1322.1895431877890132
    One-Electron Energy =               -3842.0815977067536551
    Two-Electron Energy =                1633.5264024190601049
    Total Energy =                       -886.3656520999047643
  Basis Set: (AUG-CC-PVTZ AUX)
    Blend: AUG-CC-PVTZ-RI
    Molecular point group: c1

    Geometry (in Angstrom), charge = 0, multiplicity = 1:

       Center              X                  Y                   Z               Mass
    ------------   -----------------  -----------------  -----------------  -----------------
         O           -1.243484085969    -0.651297425299     1.031431166701    15.994914619570
         O           -1.240358085969     2.484221574701    -0.687246833299    15.994914619570
         O           -3.211913085969     1.522469574701     0.743803166701    15.994914619570
         O           -2.352412085969    -3.065466425299     0.093856166701    15.994914619570
         O            1.365146914031     2.248404574701    -0.077625833299    15.994914619570
         N            0.848020914031     0.046593574701     0.254859166701    14.003074004430
         N            3.061842914031     0.721873574701    -0.294810833299    14.003074004430
         N            4.721079914031    -0.835284425299    -0.573381833299    14.003074004430
         C           -1.284867085969     1.079800574701    -0.593160833299    12.000000000000
         C           -2.804080185969     0.628813874701    -0.236521333299    12.000000000000
         C           -0.520791085969     0.482890574701     0.599010166701    12.000000000000
         C           -2.524639085969    -0.715515425299     0.359972166701    12.000000000000
         C           -2.523727085969    -1.849022425299    -0.640373833299    12.000000000000
         C            1.224391914031    -1.260037425299     0.310190166701    12.000000000000
         C            1.760210914031     1.068805574701    -0.060486833299    12.000000000000
         C            2.515717914031    -1.607769425299     0.045911166701    12.000000000000
         C            3.416599914031    -0.549282425299    -0.260008833299    12.000000000000
         H           -0.932989085969     0.592774574701    -1.515974833299     1.007825032230
         H           -3.357965085969     0.644035574701    -1.147548833299     1.007825032230
         H           -0.435673085969     1.223250574701     1.402914166701     1.007825032230
         H           -3.277340085969    -0.907363425299     1.129699166701     1.007825032230
         H           -1.708691085969    -1.698934425299    -1.370547833299     1.007825032230
         H           -3.480944085969    -1.832633425299    -1.185218833299     1.007825032230
         H           -0.292908085969     2.714549574701    -0.526083833299     1.007825032230
         H           -2.842939085969     2.401113574701     0.507579166701     1.007825032230
         H            0.438927914031    -1.962066425299     0.567984166701     1.007825032230
         H           -2.429257085969    -3.797061425299    -0.544316833299     1.007825032230
         H            2.833728914031    -2.644027425299     0.072838166701     1.007825032230
         H            5.129796914031    -1.669490425299    -0.163497833299     1.007825032230
         H            5.324430914031    -0.018683425299    -0.569377833299     1.007825032230

  Basis Set: AUG-CC-PVTZ
    Blend: AUG-CC-PVTZ
  Basis Set: (AUG-CC-PVTZ AUX)
    Blend: AUG-CC-PVTZ-JKFIT
	 Reference Energy          =    -886.3656520999047643 [Eh]
	 Singles Energy            =      -0.0000000000000000 [Eh]
	 Same-Spin Energy          =      -0.9014705588379868 [Eh]
	 Opposite-Spin Energy      =      -2.7151073505713903 [Eh]
	 Correlation Energy        =      -3.6165779094093771 [Eh]
	 Total Energy              =    -889.9822300093140939 [Eh]

	 ================> DF-SCS-MP2 Energies <==================
	-----------------------------------------------------------
	 SCS Same-Spin Scale       =       0.3333333333333333 [-]
	 SCS Opposite-Spin Scale   =       1.2000000000000000 [-]
	 SCS Same-Spin Energy      =      -0.3004901862793289 [Eh]
	 SCS Opposite-Spin Energy  =      -3.2581288206856684 [Eh]
	 SCS Correlation Energy    =      -3.5586190069649972 [Eh]
	 SCS Total Energy          =    -889.9242711068698100 [Eh]
	-----------------------------------------------------------

  Dipole Moment: [D]
     X:     1.5706      Y:    -5.8829      Z:    -1.8110     Total:     6.3525

*** Psi4 exiting successfully. Buy a developer a beer!
