                               Psi4 1.3.2 release

  ==> Input File <==

--------------------------------------------------------------------------
#psi4
#
memory 32 gb

molecule  {
0 1
  O       -1.2481010    -0.6526680     1.0325150
  O       -1.2449750     2.4828510    -0.6861630
  O       -3.2165300     1.5210990     0.7448870
  O       -2.3570290    -3.0668370     0.0949400
  O        1.3605300     2.2470340    -0.0765420
  N        0.8545086     0.0482435     0.2530103
  N        3.0572260     0.7205030    -0.2937270
  N        4.7164630    -0.8366550    -0.5722980
  C       -1.2894840     1.0784300    -0.5920770
  C       -2.7151710     0.6552070    -0.2573930
  C       -0.5254080     0.4815200     0.6000940
  C       -2.5292560    -0.7168860     0.3610560
  C       -2.5283440    -1.8503930    -0.6392900
  C        1.2197750    -1.2614080     0.3112740
  C        1.7555940     1.0674350    -0.0594030
  C        2.5137444    -1.5976941     0.0451189
  C        3.4119830    -0.5506530    -0.2589250
  H       -0.9376060     0.5914040    -1.5148910
  H       -3.3625820     0.6426650    -1.1464650
  H       -0.4402900     1.2218800     1.4039980
  H       -3.2819570    -0.9087340     1.1307830
  H       -1.7133080    -1.7003050    -1.3694640
  H       -3.4855610    -1.8340040    -1.1841350
  H       -0.2975250     2.7131790    -0.5250000
  H       -2.8475560     2.3997430     0.5086630
  H        0.4343110    -1.9634370     0.5690680
  H       -2.4338740    -3.7984320    -0.5432330
  H        2.8291120    -2.6453980     0.0739220
  H        5.1251800    -1.6708610    -0.1624140
  H        5.3198140    -0.0200540    -0.5682940
units angstrom
no_reorient  #important for SAPT in psi4, default
symmetry c1  #important for SAPT in psi4, default
}

set PROPERTIES_ORIGIN ["COM"]
properties('MP2/aug-cc-pvtz', properties = ['dipole'])
--------------------------------------------------------------------------

    Molecular point group: c1
  Charge       = 0
  Multiplicity = 1
  Basis Set: AUG-CC-PVTZ
    Blend: AUG-CC-PVTZ
  Basis Set: (AUG-CC-PVTZ AUX)
    Blend: AUG-CC-PVTZ-JKFIT

    Orbital Energies [Eh]
    ---------------------

    Doubly Occupied:

       1A    -20.582627     2A    -20.582459     3A    -20.558035
       4A    -20.557285     5A    -20.520595     6A    -15.637260
       7A    -15.599141     8A    -15.552419     9A    -11.386691
      10A    -11.356232    11A    -11.342560    12A    -11.329157
      13A    -11.301576    14A    -11.297420    15A    -11.297038
      16A    -11.293296    17A    -11.248614    18A     -1.429558
      19A     -1.396749    20A     -1.380359    21A     -1.373107
      22A     -1.346468    23A     -1.306446    24A     -1.273650
      25A     -1.181433    26A     -1.082345    27A     -1.068131
      28A     -1.022190    29A     -0.935426    30A     -0.912077
      31A     -0.876921    32A     -0.832039    33A     -0.812195
      34A     -0.767485    35A     -0.752391    36A     -0.736160
      37A     -0.720245    38A     -0.703119    39A     -0.698623
      40A     -0.685628    41A     -0.672624    42A     -0.654810
      43A     -0.650373    44A     -0.638645    45A     -0.622261
      46A     -0.615089    47A     -0.607626    48A     -0.591227
      49A     -0.576116    50A     -0.570134    51A     -0.553988
      52A     -0.545625    53A     -0.537613    54A     -0.532120
      55A     -0.497668    56A     -0.477815    57A     -0.474668
      58A     -0.462339    59A     -0.459518    60A     -0.453073
      61A     -0.440861    62A     -0.432955    63A     -0.394869
      64A     -0.350328

  @DF-RHF Final Energy:  -886.37293938638345

   => Energetics <=

    Nuclear Repulsion Energy =           1323.9020432574993720
    One-Electron Energy =               -3845.4549794641134213
    Two-Electron Energy =                1635.1799968202305990
    Total Energy =                       -886.3729393863834503
  Basis Set: (AUG-CC-PVTZ AUX)
    Blend: AUG-CC-PVTZ-RI
    Molecular point group: c1

    Geometry (in Angstrom), charge = 0, multiplicity = 1:

       Center              X                  Y                   Z               Mass
    ------------   -----------------  -----------------  -----------------  -----------------
         O           -1.248871212823    -0.653407018186     1.032776561583    15.994914619570
         O           -1.245745212823     2.482111981814    -0.685901438417    15.994914619570
         O           -3.217300212823     1.520359981814     0.745148561583    15.994914619570
         O           -2.357799212823    -3.067576018186     0.095201561583    15.994914619570
         O            1.359759787177     2.246294981814    -0.076280438417    15.994914619570
         N            0.853738387177     0.047504481814     0.253271861583    14.003074004430
         N            3.056455787177     0.719763981814    -0.293465438417    14.003074004430
         N            4.715692787177    -0.837394018186    -0.572036438417    14.003074004430
         C           -1.290254212823     1.077690981814    -0.591815438417    12.000000000000
         C           -2.715941212823     0.654467981814    -0.257131438417    12.000000000000
         C           -0.526178212823     0.480780981814     0.600355561583    12.000000000000
         C           -2.530026212823    -0.717625018186     0.361317561583    12.000000000000
         C           -2.529114212823    -1.851132018186    -0.639028438417    12.000000000000
         C            1.219004787177    -1.262147018186     0.311535561583    12.000000000000
         C            1.754823787177     1.066695981814    -0.059141438417    12.000000000000
         C            2.512974187177    -1.598433118186     0.045380461583    12.000000000000
         C            3.411212787177    -0.551392018186    -0.258663438417    12.000000000000
         H           -0.938376212823     0.590664981814    -1.514629438417     1.007825032230
         H           -3.363352212823     0.641925981814    -1.146203438417     1.007825032230
         H           -0.441060212823     1.221140981814     1.404259561583     1.007825032230
         H           -3.282727212823    -0.909473018186     1.131044561583     1.007825032230
         H           -1.714078212823    -1.701044018186    -1.369202438417     1.007825032230
         H           -3.486331212823    -1.834743018186    -1.183873438417     1.007825032230
         H           -0.298295212823     2.712439981814    -0.524738438417     1.007825032230
         H           -2.848326212823     2.399003981814     0.508924561583     1.007825032230
         H            0.433540787177    -1.964176018186     0.569329561583     1.007825032230
         H           -2.434644212823    -3.799171018186    -0.542971438417     1.007825032230
         H            2.828341787177    -2.646137018186     0.074183561583     1.007825032230
         H            5.124409787177    -1.671600018186    -0.162152438417     1.007825032230
         H            5.319043787177    -0.020793018186    -0.568032438417     1.007825032230

  Basis Set: AUG-CC-PVTZ
    Blend: AUG-CC-PVTZ
  Basis Set: (AUG-CC-PVTZ AUX)
    Blend: AUG-CC-PVTZ-JKFIT
	 Reference Energy          =    -886.3729393863834503 [Eh]
	 Singles Energy            =      -0.0000000000000000 [Eh]
	 Same-Spin Energy          =      -0.9014139187280940 [Eh]
	 Opposite-Spin Energy      =      -2.7150460034504529 [Eh]
	 Correlation Energy        =      -3.6164599221785467 [Eh]
	 Total Energy              =    -889.9893993085620423 [Eh]

	 ================> DF-SCS-MP2 Energies <==================
	-----------------------------------------------------------
	 SCS Same-Spin Scale       =       0.3333333333333333 [-]
	 SCS Opposite-Spin Scale   =       1.2000000000000000 [-]
	 SCS Same-Spin Energy      =      -0.3004713062426980 [Eh]
	 SCS Opposite-Spin Energy  =      -3.2580552041405433 [Eh]
	 SCS Correlation Energy    =      -3.5585265103832411 [Eh]
	 SCS Total Energy          =    -889.9314658967666674 [Eh]
	-----------------------------------------------------------

  Dipole Moment: [D]
     X:     1.6449      Y:    -5.9931      Z:    -1.8072     Total:     6.4722

*** Psi4 exiting successfully. Buy a developer a beer!
