                               Psi4 1.3.2 release

  ==> Input File <==

--------------------------------------------------------------------------
#psi4
#
memory 32 gb

molecule  {
0 1
  O       -1.2481010    -0.6526680     1.0325150
  O       -1.2449750     2.4828510    -0.6861630
  O       -3.2165300     1.5210990     0.7448870
  O       -2.3570290    -3.0668370     0.0949400
  O        1.3605300     2.2470340    -0.0765420
  N        0.8434040     0.0452230     0.2559430
  N        3.0572260     0.7205030    -0.2937270
  N        4.7164630    -0.8366550    -0.5722980
  C       -1.2894840     1.0784300    -0.5920770
  C       -2.7047660     0.6530037    -0.2652677
  C       -0.5254080     0.4815200     0.6000940
  C       -2.5292560    -0.7168860     0.3610560
  C       -2.5283440    -1.8503930    -0.6392900
  C        1.2197750    -1.2614080     0.3112740
  C        1.7555940     1.0674350    -0.0594030
  C        2.5111010    -1.6091400     0.0469950
  C        3.4119830    -0.5506530    -0.2589250
  H       -0.9376060     0.5914040    -1.5148910
  H       -3.3625820     0.6426650    -1.1464650
  H       -0.4402900     1.2218800     1.4039980
  H       -3.2781276    -0.9173380     1.1323240
  H       -1.7133080    -1.7003050    -1.3694640
  H       -3.4855610    -1.8340040    -1.1841350
  H       -0.2975250     2.7131790    -0.5250000
  H       -2.8475560     2.3997430     0.5086630
  H        0.4343110    -1.9634370     0.5690680
  H       -2.4338740    -3.7984320    -0.5432330
  H        2.8291120    -2.6453980     0.0739220
  H        5.1251800    -1.6708610    -0.1624140
  H        5.3198140    -0.0200540    -0.5682940
units angstrom
no_reorient  #important for SAPT in psi4, default
symmetry c1  #important for SAPT in psi4, default
}

set PROPERTIES_ORIGIN ["COM"]
properties('MP2/aug-cc-pvtz', properties = ['dipole'])
--------------------------------------------------------------------------

    Molecular point group: c1
  Charge       = 0
  Multiplicity = 1
  Basis Set: AUG-CC-PVTZ
    Blend: AUG-CC-PVTZ
  Basis Set: (AUG-CC-PVTZ AUX)
    Blend: AUG-CC-PVTZ-JKFIT

    Orbital Energies [Eh]
    ---------------------

    Doubly Occupied:

       1A    -20.582365     2A    -20.581637     3A    -20.557440
       4A    -20.556880     5A    -20.522106     6A    -15.637047
       7A    -15.599937     8A    -15.553443     9A    -11.388375
      10A    -11.357958    11A    -11.341808    12A    -11.328639
      13A    -11.301147    14A    -11.297274    15A    -11.296759
      16A    -11.292984    17A    -11.248667    18A     -1.429428
      19A     -1.396418    20A     -1.379208    21A     -1.372722
      22A     -1.343970    23A     -1.306171    24A     -1.273908
      25A     -1.182349    26A     -1.082156    27A     -1.068966
      28A     -1.022523    29A     -0.935928    30A     -0.909566
      31A     -0.877117    32A     -0.832420    33A     -0.812032
      34A     -0.767078    35A     -0.752693    36A     -0.736681
      37A     -0.720410    38A     -0.702428    39A     -0.697695
      40A     -0.685715    41A     -0.671805    42A     -0.654685
      43A     -0.651607    44A     -0.638459    45A     -0.620777
      46A     -0.614524    47A     -0.606373    48A     -0.593931
      49A     -0.575291    50A     -0.569651    51A     -0.553426
      52A     -0.544461    53A     -0.537445    54A     -0.531902
      55A     -0.498524    56A     -0.478310    57A     -0.475702
      58A     -0.462292    59A     -0.460143    60A     -0.453332
      61A     -0.441105    62A     -0.433205    63A     -0.395341
      64A     -0.350167

  @DF-RHF Final Energy:  -886.37299989357393

   => Energetics <=

    Nuclear Repulsion Energy =           1323.8274581244279489
    One-Electron Energy =               -3845.3119028427113335
    Two-Electron Energy =                1635.1114448247092241
    Total Energy =                       -886.3729998935739332
  Basis Set: (AUG-CC-PVTZ AUX)
    Blend: AUG-CC-PVTZ-RI
    Molecular point group: c1

    Geometry (in Angstrom), charge = 0, multiplicity = 1:

       Center              X                  Y                   Z               Mass
    ------------   -----------------  -----------------  -----------------  -----------------
         O           -1.248630556900    -0.652523551285     1.032897355806    15.994914619570
         O           -1.245504556900     2.482995448715    -0.685780644194    15.994914619570
         O           -3.217059556900     1.521243448715     0.745269355806    15.994914619570
         O           -2.357558556900    -3.066692551285     0.095322355806    15.994914619570
         O            1.360000443100     2.247178448715    -0.076159644194    15.994914619570
         N            0.842874443100     0.045367448715     0.256325355806    14.003074004430
         N            3.056696443100     0.720647448715    -0.293344644194    14.003074004430
         N            4.715933443100    -0.836510551285    -0.571915644194    14.003074004430
         C           -1.290013556900     1.078574448715    -0.591694644194    12.000000000000
         C           -2.705295556900     0.653148148715    -0.264885344194    12.000000000000
         C           -0.525937556900     0.481664448715     0.600476355806    12.000000000000
         C           -2.529785556900    -0.716741551285     0.361438355806    12.000000000000
         C           -2.528873556900    -1.850248551285    -0.638907644194    12.000000000000
         C            1.219245443100    -1.261263551285     0.311656355806    12.000000000000
         C            1.755064443100     1.067579448715    -0.059020644194    12.000000000000
         C            2.510571443100    -1.608995551285     0.047377355806    12.000000000000
         C            3.411453443100    -0.550508551285    -0.258542644194    12.000000000000
         H           -0.938135556900     0.591548448715    -1.514508644194     1.007825032230
         H           -3.363111556900     0.642809448715    -1.146082644194     1.007825032230
         H           -0.440819556900     1.222024448715     1.404380355806     1.007825032230
         H           -3.278657156900    -0.917193551285     1.132706355806     1.007825032230
         H           -1.713837556900    -1.700160551285    -1.369081644194     1.007825032230
         H           -3.486090556900    -1.833859551285    -1.183752644194     1.007825032230
         H           -0.298054556900     2.713323448715    -0.524617644194     1.007825032230
         H           -2.848085556900     2.399887448715     0.509045355806     1.007825032230
         H            0.433781443100    -1.963292551285     0.569450355806     1.007825032230
         H           -2.434403556900    -3.798287551285    -0.542850644194     1.007825032230
         H            2.828582443100    -2.645253551285     0.074304355806     1.007825032230
         H            5.124650443100    -1.670716551285    -0.162031644194     1.007825032230
         H            5.319284443100    -0.019909551285    -0.567911644194     1.007825032230

  Basis Set: AUG-CC-PVTZ
    Blend: AUG-CC-PVTZ
  Basis Set: (AUG-CC-PVTZ AUX)
    Blend: AUG-CC-PVTZ-JKFIT
	 Reference Energy          =    -886.3729998935739332 [Eh]
	 Singles Energy            =      -0.0000000000000000 [Eh]
	 Same-Spin Energy          =      -0.9012845793796606 [Eh]
	 Opposite-Spin Energy      =      -2.7151357823970761 [Eh]
	 Correlation Energy        =      -3.6164203617767368 [Eh]
	 Total Energy              =    -889.9894202553506375 [Eh]

	 ================> DF-SCS-MP2 Energies <==================
	-----------------------------------------------------------
	 SCS Same-Spin Scale       =       0.3333333333333333 [-]
	 SCS Opposite-Spin Scale   =       1.2000000000000000 [-]
	 SCS Same-Spin Energy      =      -0.3004281931265535 [Eh]
	 SCS Opposite-Spin Energy  =      -3.2581629388764912 [Eh]
	 SCS Correlation Energy    =      -3.5585911320030448 [Eh]
	 SCS Total Energy          =    -889.9315910255769495 [Eh]
	-----------------------------------------------------------

  Dipole Moment: [D]
     X:     1.7329      Y:    -5.9759      Z:    -1.8391     Total:     6.4882

*** Psi4 exiting successfully. Buy a developer a beer!
