                               Psi4 1.3.2 release

  ==> Input File <==

--------------------------------------------------------------------------
#psi4
#
memory 32 gb

molecule  {
0 1
  O       -1.2481010    -0.6526680     1.0325150
  O       -1.2449750     2.4828510    -0.6861630
  O       -3.2165300     1.5210990     0.7448870
  O       -2.3570290    -3.0668370     0.0949400
  O        1.3605300     2.2470340    -0.0765420
  N        0.8128441    -0.0017519     0.2026385
  N        3.0572260     0.7205030    -0.2937270
  N        4.7164630    -0.8366550    -0.5722980
  C       -1.2894840     1.0784300    -0.5920770
  C       -2.7151710     0.6552070    -0.2573930
  C       -0.5254080     0.4815200     0.6000940
  C       -2.5292560    -0.7168860     0.3610560
  C       -2.5283440    -1.8503930    -0.6392900
  C        1.2197750    -1.2614080     0.3112740
  C        1.7555940     1.0674350    -0.0594030
  C        2.5111010    -1.6091400     0.0469950
  C        3.4119830    -0.5506530    -0.2589250
  H       -0.9376060     0.5914040    -1.5148910
  H       -3.3625820     0.6426650    -1.1464650
  H       -0.4974928     1.2265048     1.4037469
  H       -3.2819570    -0.9087340     1.1307830
  H       -1.7133080    -1.7003050    -1.3694640
  H       -3.4855610    -1.8340040    -1.1841350
  H       -0.2975250     2.7131790    -0.5250000
  H       -2.8475560     2.3997430     0.5086630
  H        0.4343110    -1.9634370     0.5690680
  H       -2.4338740    -3.7984320    -0.5432330
  H        2.8291120    -2.6453980     0.0739220
  H        5.1251800    -1.6708610    -0.1624140
  H        5.3198140    -0.0200540    -0.5682940
units angstrom
no_reorient  #important for SAPT in psi4, default
symmetry c1  #important for SAPT in psi4, default
}

set PROPERTIES_ORIGIN ["COM"]
properties('MP2/aug-cc-pvtz', properties = ['dipole'])
--------------------------------------------------------------------------

    Molecular point group: c1
  Charge       = 0
  Multiplicity = 1
  Basis Set: AUG-CC-PVTZ
    Blend: AUG-CC-PVTZ
  Basis Set: (AUG-CC-PVTZ AUX)
    Blend: AUG-CC-PVTZ-JKFIT

    Orbital Energies [Eh]
    ---------------------

    Doubly Occupied:

       1A    -20.581584     2A    -20.579628     3A    -20.558230
       4A    -20.558105     5A    -20.528755     6A    -15.638828
       7A    -15.599355     8A    -15.553795     9A    -11.394336
      10A    -11.357493    11A    -11.342462    12A    -11.325431
      13A    -11.300504    14A    -11.296095    15A    -11.295849
      16A    -11.292712    17A    -11.244185    18A     -1.429398
      19A     -1.396177    20A     -1.380410    21A     -1.372575
      22A     -1.346938    23A     -1.309008    24A     -1.276635
      25A     -1.182990    26A     -1.080514    27A     -1.067266
      28A     -1.020328    29A     -0.935676    30A     -0.904725
      31A     -0.877990    32A     -0.831915    33A     -0.811590
      34A     -0.766185    35A     -0.754810    36A     -0.738166
      37A     -0.719543    38A     -0.701857    39A     -0.698499
      40A     -0.684420    41A     -0.672736    42A     -0.653503
      43A     -0.652135    44A     -0.635716    45A     -0.621064
      46A     -0.612558    47A     -0.606807    48A     -0.598827
      49A     -0.574595    50A     -0.568211    51A     -0.554604
      52A     -0.546057    53A     -0.537694    54A     -0.532083
      55A     -0.504631    56A     -0.477272    57A     -0.474513
      58A     -0.464547    59A     -0.460725    60A     -0.452980
      61A     -0.439709    62A     -0.431915    63A     -0.396558
      64A     -0.347134

  @DF-RHF Final Energy:  -886.36853878529632

   => Energetics <=

    Nuclear Repulsion Energy =           1323.8453877741765154
    One-Electron Energy =               -3845.3247755043566940
    Two-Electron Energy =                1635.1108489448836281
    Total Energy =                       -886.3685387852963231
  Basis Set: (AUG-CC-PVTZ AUX)
    Blend: AUG-CC-PVTZ-RI
    Molecular point group: c1

    Geometry (in Angstrom), charge = 0, multiplicity = 1:

       Center              X                  Y                   Z               Mass
    ------------   -----------------  -----------------  -----------------  -----------------
         O           -1.246103453192    -0.649981149401     1.035586683332    15.994914619570
         O           -1.242977453192     2.485537850599    -0.683091316668    15.994914619570
         O           -3.214532453192     1.523785850599     0.747958683332    15.994914619570
         O           -2.355031453192    -3.064150149401     0.098011683332    15.994914619570
         O            1.362527546808     2.249720850599    -0.073470316668    15.994914619570
         N            0.814841646808     0.000934950599     0.205710183332    14.003074004430
         N            3.059223546808     0.723189850599    -0.290655316668    14.003074004430
         N            4.718460546808    -0.833968149401    -0.569226316668    14.003074004430
         C           -1.287486453192     1.081116850599    -0.589005316668    12.000000000000
         C           -2.713173453192     0.657893850599    -0.254321316668    12.000000000000
         C           -0.523410453192     0.484206850599     0.603165683332    12.000000000000
         C           -2.527258453192    -0.714199149401     0.364127683332    12.000000000000
         C           -2.526346453192    -1.847706149401    -0.636218316668    12.000000000000
         C            1.221772546808    -1.258721149401     0.314345683332    12.000000000000
         C            1.757591546808     1.070121850599    -0.056331316668    12.000000000000
         C            2.513098546808    -1.606453149401     0.050066683332    12.000000000000
         C            3.413980546808    -0.547966149401    -0.255853316668    12.000000000000
         H           -0.935608453192     0.594090850599    -1.511819316668     1.007825032230
         H           -3.360584453192     0.645351850599    -1.143393316668     1.007825032230
         H           -0.495495253192     1.229191650599     1.406818583332     1.007825032230
         H           -3.279959453192    -0.906047149401     1.133854683332     1.007825032230
         H           -1.711310453192    -1.697618149401    -1.366392316668     1.007825032230
         H           -3.483563453192    -1.831317149401    -1.181063316668     1.007825032230
         H           -0.295527453192     2.715865850599    -0.521928316668     1.007825032230
         H           -2.845558453192     2.402429850599     0.511734683332     1.007825032230
         H            0.436308546808    -1.960750149401     0.572139683332     1.007825032230
         H           -2.431876453192    -3.795745149401    -0.540161316668     1.007825032230
         H            2.831109546808    -2.642711149401     0.076993683332     1.007825032230
         H            5.127177546808    -1.668174149401    -0.159342316668     1.007825032230
         H            5.321811546808    -0.017367149401    -0.565222316668     1.007825032230

  Basis Set: AUG-CC-PVTZ
    Blend: AUG-CC-PVTZ
  Basis Set: (AUG-CC-PVTZ AUX)
    Blend: AUG-CC-PVTZ-JKFIT
	 Reference Energy          =    -886.3685387852963231 [Eh]
	 Singles Energy            =      -0.0000000000000000 [Eh]
	 Same-Spin Energy          =      -0.9016355558916763 [Eh]
	 Opposite-Spin Energy      =      -2.7156113409605296 [Eh]
	 Correlation Energy        =      -3.6172468968522060 [Eh]
	 Total Energy              =    -889.9857856821485029 [Eh]

	 ================> DF-SCS-MP2 Energies <==================
	-----------------------------------------------------------
	 SCS Same-Spin Scale       =       0.3333333333333333 [-]
	 SCS Opposite-Spin Scale   =       1.2000000000000000 [-]
	 SCS Same-Spin Energy      =      -0.3005451852972254 [Eh]
	 SCS Opposite-Spin Energy  =      -3.2587336091526353 [Eh]
	 SCS Correlation Energy    =      -3.5592787944498605 [Eh]
	 SCS Total Energy          =    -889.9278175797461472 [Eh]
	-----------------------------------------------------------

  Dipole Moment: [D]
     X:     1.7036      Y:    -5.7227      Z:    -1.8127     Total:     6.2400

*** Psi4 exiting successfully. Buy a developer a beer!
