                               Psi4 1.3.2 release

  ==> Input File <==

--------------------------------------------------------------------------
#psi4
#
memory 32 gb

molecule  {
0 1
  O       -1.2481010    -0.6526680     1.0325150
  O       -1.2449750     2.4828510    -0.6861630
  O       -3.2165300     1.5210990     0.7448870
  O       -2.3570290    -3.0668370     0.0949400
  O        1.3605300     2.2470340    -0.0765420
  N        0.8434040     0.0452230     0.2559430
  N        3.0572260     0.7205030    -0.2937270
  N        4.7164630    -0.8366550    -0.5722980
  C       -1.2640796     1.0088881    -0.5622831
  C       -2.7151710     0.6552070    -0.2573930
  C       -0.5254080     0.4815200     0.6000940
  C       -2.4510517    -0.7090515     0.3498322
  C       -2.5283440    -1.8503930    -0.6392900
  C        1.2197750    -1.2614080     0.3112740
  C        1.7555940     1.0674350    -0.0594030
  C        2.5111010    -1.6091400     0.0469950
  C        3.4119830    -0.5506530    -0.2589250
  H       -0.9376060     0.5914040    -1.5148910
  H       -3.3625820     0.6426650    -1.1464650
  H       -0.4402900     1.2218800     1.4039980
  H       -3.2819570    -0.9087340     1.1307830
  H       -1.7133080    -1.7003050    -1.3694640
  H       -3.4855610    -1.8340040    -1.1841350
  H       -0.2975250     2.7131790    -0.5250000
  H       -2.8475560     2.3997430     0.5086630
  H        0.4343110    -1.9634370     0.5690680
  H       -2.4338740    -3.7984320    -0.5432330
  H        2.8291120    -2.6453980     0.0739220
  H        5.1251800    -1.6708610    -0.1624140
  H        5.3198140    -0.0200540    -0.5682940
units angstrom
no_reorient  #important for SAPT in psi4, default
symmetry c1  #important for SAPT in psi4, default
}

set PROPERTIES_ORIGIN ["COM"]
properties('MP2/aug-cc-pvtz', properties = ['dipole'])
--------------------------------------------------------------------------

    Molecular point group: c1
  Charge       = 0
  Multiplicity = 1
  Basis Set: AUG-CC-PVTZ
    Blend: AUG-CC-PVTZ
  Basis Set: (AUG-CC-PVTZ AUX)
    Blend: AUG-CC-PVTZ-JKFIT

    Orbital Energies [Eh]
    ---------------------

    Doubly Occupied:

       1A    -20.590530     2A    -20.581441     3A    -20.557984
       4A    -20.551877     5A    -20.523039     6A    -15.639571
       7A    -15.601428     8A    -15.555078     9A    -11.390010
      10A    -11.359770    11A    -11.346320    12A    -11.331267
      13A    -11.299677    14A    -11.296834    15A    -11.295575
      16A    -11.293554    17A    -11.250938    18A     -1.450280
      19A     -1.400746    20A     -1.375198    21A     -1.370250
      22A     -1.330215    23A     -1.308365    24A     -1.277655
      25A     -1.184528    26A     -1.088089    27A     -1.070658
      28A     -1.031784    29A     -0.938189    30A     -0.913220
      31A     -0.878139    32A     -0.832970    33A     -0.814849
      34A     -0.769061    35A     -0.758278    36A     -0.733182
      37A     -0.723353    38A     -0.701737    39A     -0.697388
      40A     -0.687690    41A     -0.672032    42A     -0.657089
      43A     -0.652617    44A     -0.643826    45A     -0.621667
      46A     -0.618644    47A     -0.608182    48A     -0.593889
      49A     -0.579735    50A     -0.566831    51A     -0.552168
      52A     -0.544339    53A     -0.535258    54A     -0.529962
      55A     -0.496980    56A     -0.476902    57A     -0.467019
      58A     -0.462732    59A     -0.460760    60A     -0.455609
      61A     -0.444574    62A     -0.433409    63A     -0.397929
      64A     -0.352840

  @DF-RHF Final Energy:  -886.35850274185395

   => Energetics <=

    Nuclear Repulsion Energy =           1326.2806495484107927
    One-Electron Energy =               -3850.0268774222181491
    Two-Electron Energy =                1637.3877251319536299
    Total Energy =                       -886.3585027418539539
  Basis Set: (AUG-CC-PVTZ AUX)
    Blend: AUG-CC-PVTZ-RI
    Molecular point group: c1

    Geometry (in Angstrom), charge = 0, multiplicity = 1:

       Center              X                  Y                   Z               Mass
    ------------   -----------------  -----------------  -----------------  -----------------
         O           -1.253215712907    -0.649621782920     1.031598288132    15.994914619570
         O           -1.250089712907     2.485897217080    -0.687079711868    15.994914619570
         O           -3.221644712907     1.524145217080     0.743970288132    15.994914619570
         O           -2.362143712907    -3.063790782920     0.094023288132    15.994914619570
         O            1.355415287093     2.250080217080    -0.077458711868    15.994914619570
         N            0.838289287093     0.048269217080     0.255026288132    14.003074004430
         N            3.052111287093     0.723549217080    -0.294643711868    14.003074004430
         N            4.711348287093    -0.833608782920    -0.573214711868    14.003074004430
         C           -1.269194312907     1.011934317080    -0.563199811868    12.000000000000
         C           -2.720285712907     0.658253217080    -0.258309711868    12.000000000000
         C           -0.530522712907     0.484566217080     0.599177288132    12.000000000000
         C           -2.456166412907    -0.706005282920     0.348915488132    12.000000000000
         C           -2.533458712907    -1.847346782920    -0.640206711868    12.000000000000
         C            1.214660287093    -1.258361782920     0.310357288132    12.000000000000
         C            1.750479287093     1.070481217080    -0.060319711868    12.000000000000
         C            2.505986287093    -1.606093782920     0.046078288132    12.000000000000
         C            3.406868287093    -0.547606782920    -0.259841711868    12.000000000000
         H           -0.942720712907     0.594450217080    -1.515807711868     1.007825032230
         H           -3.367696712907     0.645711217080    -1.147381711868     1.007825032230
         H           -0.445404712907     1.224926217080     1.403081288132     1.007825032230
         H           -3.287071712907    -0.905687782920     1.129866288132     1.007825032230
         H           -1.718422712907    -1.697258782920    -1.370380711868     1.007825032230
         H           -3.490675712907    -1.830957782920    -1.185051711868     1.007825032230
         H           -0.302639712907     2.716225217080    -0.525916711868     1.007825032230
         H           -2.852670712907     2.402789217080     0.507746288132     1.007825032230
         H            0.429196287093    -1.960390782920     0.568151288132     1.007825032230
         H           -2.438988712907    -3.795385782920    -0.544149711868     1.007825032230
         H            2.823997287093    -2.642351782920     0.073005288132     1.007825032230
         H            5.120065287093    -1.667814782920    -0.163330711868     1.007825032230
         H            5.314699287093    -0.017007782920    -0.569210711868     1.007825032230

  Basis Set: AUG-CC-PVTZ
    Blend: AUG-CC-PVTZ
  Basis Set: (AUG-CC-PVTZ AUX)
    Blend: AUG-CC-PVTZ-JKFIT
	 Reference Energy          =    -886.3585027418539539 [Eh]
	 Singles Energy            =      -0.0000000000000000 [Eh]
	 Same-Spin Energy          =      -0.9024847986417087 [Eh]
	 Opposite-Spin Energy      =      -2.7171062865490825 [Eh]
	 Correlation Energy        =      -3.6195910851907911 [Eh]
	 Total Energy              =    -889.9780938270447450 [Eh]

	 ================> DF-SCS-MP2 Energies <==================
	-----------------------------------------------------------
	 SCS Same-Spin Scale       =       0.3333333333333333 [-]
	 SCS Opposite-Spin Scale   =       1.2000000000000000 [-]
	 SCS Same-Spin Energy      =      -0.3008282662139029 [Eh]
	 SCS Opposite-Spin Energy  =      -3.2605275438588990 [Eh]
	 SCS Correlation Energy    =      -3.5613558100728020 [Eh]
	 SCS Total Energy          =    -889.9198585519267226 [Eh]
	-----------------------------------------------------------

  Dipole Moment: [D]
     X:     2.0122      Y:    -6.0385      Z:    -1.7643     Total:     6.6049

*** Psi4 exiting successfully. Buy a developer a beer!
