                               Psi4 1.4a3.dev225

  ==> Input File <==

--------------------------------------------------------------------------
#psi4
#
memory 32 gb

molecule  {
0 1
  O       -1.3191770     0.6538360    -1.0992360
  O       -1.5735610    -2.4640850     0.5135810
  O       -3.5606630    -1.0699430    -0.4600060
  O       -1.4399290     3.1254620     0.1265180
  O        1.1065530    -2.3833650     0.0076020
  N        0.7686360    -0.1579440    -0.3706350
  N        2.9363770    -0.9938720     0.1460080
  N        4.7058880     0.4431110     0.3611260
  C       -1.3768610    -1.0680440     0.5552780
  C       -2.7379840    -0.3746360     0.4578480
  C       -0.6377490    -0.5042940    -0.6790150
  C       -2.3707440     0.9655450    -0.1585060
  C       -1.8992030     1.9895750     0.8571380
  C        1.2309690     1.1190800    -0.4442230
  C        1.5902077    -1.2927018    -0.0559178
  C        2.5474650     1.3753690    -0.1998620
  C        3.3802090     0.2523040     0.0808410
  H       -0.8441360    -0.7686950     1.4698480
  H       -3.2257400    -0.2778790     1.4400230
  H       -0.6227070    -1.2428120    -1.4883720
  H       -3.1941750     1.3785730    -0.7472070
  H       -1.0952130     1.5703990     1.4802000
  H       -2.7410530     2.2466610     1.5166010
  H       -0.6710550    -2.8260740     0.3542250
  H       -3.3063470    -2.0105220    -0.3629290
  H        0.4929290     1.8778260    -0.6840360
  H       -1.2098800     3.8154810     0.7720340
  H        2.9334840     2.3875570    -0.2389120
  H        5.1589650     1.2712730    -0.0008400
  H        5.2635310    -0.4031270     0.3606700
units angstrom
no_reorient  #important for SAPT in psi4, default
symmetry c1  #important for SAPT in psi4, default
}

set PROPERTIES_ORIGIN ["COM"]
properties('MP2/aug-cc-pvtz', properties = ['dipole'])
--------------------------------------------------------------------------

    Molecular point group: c1
  Charge       = 0
  Multiplicity = 1
  Basis Set: AUG-CC-PVTZ
    Blend: AUG-CC-PVTZ
  Basis Set: (AUG-CC-PVTZ AUX)
    Blend: AUG-CC-PVTZ-JKFIT

    Orbital Energies [Eh]
    ---------------------

    Doubly Occupied:

       1A    -20.585895     2A    -20.580319     3A    -20.562810
       4A    -20.557209     5A    -20.534102     6A    -15.627350
       7A    -15.595489     8A    -15.546742     9A    -11.388202
      10A    -11.353294    11A    -11.338154    12A    -11.321547
      13A    -11.302950    14A    -11.297866    15A    -11.297596
      16A    -11.294045    17A    -11.241532    18A     -1.434161
      19A     -1.415540    20A     -1.383916    21A     -1.376352
      22A     -1.348797    23A     -1.305587    24A     -1.266685
      25A     -1.171249    26A     -1.075829    27A     -1.067991
      28A     -1.015455    29A     -0.934511    30A     -0.900892
      31A     -0.872630    32A     -0.828273    33A     -0.811992
      34A     -0.761663    35A     -0.748842    36A     -0.736325
      37A     -0.722222    38A     -0.707326    39A     -0.703208
      40A     -0.684008    41A     -0.674378    42A     -0.658779
      43A     -0.652252    44A     -0.632776    45A     -0.623165
      46A     -0.614427    47A     -0.606303    48A     -0.597683
      49A     -0.576836    50A     -0.563913    51A     -0.556091
      52A     -0.548545    53A     -0.542100    54A     -0.533942
      55A     -0.501099    56A     -0.480675    57A     -0.475171
      58A     -0.472438    59A     -0.460803    60A     -0.453670
      61A     -0.442210    62A     -0.420766    63A     -0.388965
      64A     -0.344683

  @DF-RHF Final Energy:  -886.37217840970891

   => Energetics <=

    Nuclear Repulsion Energy =           1334.4382661851520879
    One-Electron Energy =               -3866.5804398930190473
    Two-Electron Energy =                1645.7699952981581646
    Total Energy =                       -886.3721784097090222
  Basis Set: (AUG-CC-PVTZ AUX)
    Blend: AUG-CC-PVTZ-RI
    Molecular point group: c1

    Geometry (in Angstrom), charge = 0, multiplicity = 1:

       Center              X                  Y                   Z               Mass
    ------------   -----------------  -----------------  -----------------  -----------------
         O           -1.330921485453     0.684700639206    -1.083587012047    15.994914619570
         O           -1.585305485453    -2.433220360794     0.529229987953    15.994914619570
         O           -3.572407485453    -1.039078360794    -0.444357012047    15.994914619570
         O           -1.451673485453     3.156326639206     0.142166987953    15.994914619570
         O            1.094808514547    -2.352500360794     0.023250987953    15.994914619570
         N            0.756891514547    -0.127079360794    -0.354986012047    14.003074004430
         N            2.924632514547    -0.963007360794     0.161656987953    14.003074004430
         N            4.694143514547     0.473975639206     0.376774987953    14.003074004430
         C           -1.388605485453    -1.037179360794     0.570926987953    12.000000000000
         C           -2.749728485453    -0.343771360794     0.473496987953    12.000000000000
         C           -0.649493485453    -0.473429360794    -0.663366012047    12.000000000000
         C           -2.382488485453     0.996409639206    -0.142857012047    12.000000000000
         C           -1.910947485453     2.020439639206     0.872786987953    12.000000000000
         C            1.219224514547     1.149944639206    -0.428574012047    12.000000000000
         C            1.578463214547    -1.261837160794    -0.040268812047    12.000000000000
         C            2.535720514547     1.406233639206    -0.184213012047    12.000000000000
         C            3.368464514547     0.283168639206     0.096489987953    12.000000000000
         H           -0.855880485453    -0.737830360794     1.485496987953     1.007825032230
         H           -3.237484485453    -0.247014360794     1.455671987953     1.007825032230
         H           -0.634451485453    -1.211947360794    -1.472723012047     1.007825032230
         H           -3.205919485453     1.409437639206    -0.731558012047     1.007825032230
         H           -1.106957485453     1.601263639206     1.495848987953     1.007825032230
         H           -2.752797485453     2.277525639206     1.532249987953     1.007825032230
         H           -0.682799485453    -2.795209360794     0.369873987953     1.007825032230
         H           -3.318091485453    -1.979657360794    -0.347280012047     1.007825032230
         H            0.481184514547     1.908690639206    -0.668387012047     1.007825032230
         H           -1.221624485453     3.846345639206     0.787682987953     1.007825032230
         H            2.921739514547     2.418421639206    -0.223263012047     1.007825032230
         H            5.147220514547     1.302137639206     0.014808987953     1.007825032230
         H            5.251786514547    -0.372262360794     0.376318987953     1.007825032230

  Basis Set: AUG-CC-PVTZ
    Blend: AUG-CC-PVTZ
  Basis Set: (AUG-CC-PVTZ AUX)
    Blend: AUG-CC-PVTZ-JKFIT
	 Reference Energy          =    -886.3721784097089085 [Eh]
	 Singles Energy            =      -0.0000000000000000 [Eh]
	 Same-Spin Energy          =      -0.9010973153821032 [Eh]
	 Opposite-Spin Energy      =      -2.7149817573950035 [Eh]
	 Correlation Energy        =      -3.6160790727771066 [Eh]
	 Total Energy              =    -889.9882574824860058 [Eh]

	 ================> DF-SCS-MP2 Energies <==================
	-----------------------------------------------------------
	 SCS Same-Spin Scale       =       0.3333333333333333 [-]
	 SCS Opposite-Spin Scale   =       1.2000000000000000 [-]
	 SCS Same-Spin Energy      =      -0.3003657717940344 [Eh]
	 SCS Opposite-Spin Energy  =      -3.2579781088740041 [Eh]
	 SCS Correlation Energy    =      -3.5583438806680383 [Eh]
	 SCS Total Energy          =    -889.9305222903769845 [Eh]
	-----------------------------------------------------------

  Dipole Moment: [D]
     X:     2.4681      Y:     5.3107      Z:     1.9697     Total:     6.1786

*** Psi4 exiting successfully. Buy a developer a beer!
