                               Psi4 1.3.2 release

  ==> Input File <==

--------------------------------------------------------------------------
#psi4
#
memory 32 gb

molecule  {
0 1
  O       -1.2481010    -0.6526680     1.0325150
  O       -1.2449750     2.4828510    -0.6861630
  O       -3.2165300     1.5210990     0.7448870
  O       -2.3570290    -3.0668370     0.0949400
  O        1.3605300     2.2470340    -0.0765420
  N        0.8434040     0.0452230     0.2559430
  N        3.0572260     0.7205030    -0.2937270
  N        4.7164630    -0.8366550    -0.5722980
  C       -1.2894840     1.0784300    -0.5920770
  C       -2.7151710     0.6552070    -0.2573930
  C       -0.5288327     0.4692135     0.6018326
  C       -2.5292560    -0.7168860     0.3610560
  C       -2.5283440    -1.8503930    -0.6392900
  C        1.2197750    -1.2614080     0.3112740
  C        1.7643227     1.0590092    -0.0612279
  C        2.5111010    -1.6091400     0.0469950
  C        3.4119830    -0.5506530    -0.2589250
  H       -0.9376060     0.5914040    -1.5148910
  H       -3.3625820     0.6426650    -1.1464650
  H       -0.4402900     1.2218800     1.4039980
  H       -3.2819570    -0.9087340     1.1307830
  H       -1.7133080    -1.7003050    -1.3694640
  H       -3.4855610    -1.8340040    -1.1841350
  H       -0.2975250     2.7131790    -0.5250000
  H       -2.8475560     2.3997430     0.5086630
  H        0.4343110    -1.9634370     0.5690680
  H       -2.4338740    -3.7984320    -0.5432330
  H        2.8291120    -2.6453980     0.0739220
  H        5.1251800    -1.6708610    -0.1624140
  H        5.3198140    -0.0200540    -0.5682940
units angstrom
no_reorient  #important for SAPT in psi4, default
symmetry c1  #important for SAPT in psi4, default
}

set PROPERTIES_ORIGIN ["COM"]
properties('MP2/aug-cc-pvtz', properties = ['dipole'])
--------------------------------------------------------------------------

    Molecular point group: c1
  Charge       = 0
  Multiplicity = 1
  Basis Set: AUG-CC-PVTZ
    Blend: AUG-CC-PVTZ
  Basis Set: (AUG-CC-PVTZ AUX)
    Blend: AUG-CC-PVTZ-JKFIT

    Orbital Energies [Eh]
    ---------------------

    Doubly Occupied:

       1A    -20.582801     2A    -20.582647     3A    -20.557471
       4A    -20.556377     5A    -20.518513     6A    -15.637312
       7A    -15.600947     8A    -15.554347     9A    -11.387716
      10A    -11.359305    11A    -11.341519    12A    -11.328949
      13A    -11.301636    14A    -11.297651    15A    -11.296111
      16A    -11.292703    17A    -11.249159    18A     -1.431828
      19A     -1.392718    20A     -1.379885    21A     -1.373494
      22A     -1.345602    23A     -1.304485    24A     -1.274160
      25A     -1.185322    26A     -1.082083    27A     -1.068535
      28A     -1.020974    29A     -0.935564    30A     -0.909830
      31A     -0.878627    32A     -0.832297    33A     -0.812600
      34A     -0.768282    35A     -0.752593    36A     -0.735347
      37A     -0.720673    38A     -0.703090    39A     -0.698631
      40A     -0.686286    41A     -0.673202    42A     -0.654541
      43A     -0.650408    44A     -0.638618    45A     -0.621261
      46A     -0.614375    47A     -0.607157    48A     -0.591869
      49A     -0.576368    50A     -0.570109    51A     -0.554119
      52A     -0.545788    53A     -0.536902    54A     -0.530714
      55A     -0.496450    56A     -0.477698    57A     -0.474287
      58A     -0.462108    59A     -0.457619    60A     -0.452454
      61A     -0.440254    62A     -0.434101    63A     -0.395708
      64A     -0.350017

  @DF-RHF Final Energy:  -886.37292955036094

   => Energetics <=

    Nuclear Repulsion Energy =           1323.7663517370733643
    One-Electron Energy =               -3845.1901660607140911
    Two-Electron Energy =                1635.0508847732799040
    Total Energy =                       -886.3729295503608228
  Basis Set: (AUG-CC-PVTZ AUX)
    Blend: AUG-CC-PVTZ-RI
    Molecular point group: c1

    Geometry (in Angstrom), charge = 0, multiplicity = 1:

       Center              X                  Y                   Z               Mass
    ------------   -----------------  -----------------  -----------------  -----------------
         O           -1.248362867713    -0.651644532769     1.032519267710    15.994914619570
         O           -1.245236867713     2.483874467231    -0.686158732290    15.994914619570
         O           -3.216791867713     1.522122467231     0.744891267710    15.994914619570
         O           -2.357290867713    -3.065813532769     0.094944267710    15.994914619570
         O            1.360268132287     2.248057467231    -0.076537732290    15.994914619570
         N            0.843142132287     0.046246467231     0.255947267710    14.003074004430
         N            3.056964132287     0.721526467231    -0.293722732290    14.003074004430
         N            4.716201132287    -0.835631532769    -0.572293732290    14.003074004430
         C           -1.289745867713     1.079453467231    -0.592072732290    12.000000000000
         C           -2.715432867713     0.656230467231    -0.257388732290    12.000000000000
         C           -0.529094567713     0.470236967231     0.601836867710    12.000000000000
         C           -2.529517867713    -0.715862532769     0.361060267710    12.000000000000
         C           -2.528605867713    -1.849369532769    -0.639285732290    12.000000000000
         C            1.219513132287    -1.260384532769     0.311278267710    12.000000000000
         C            1.764060832287     1.060032667231    -0.061223632290    12.000000000000
         C            2.510839132287    -1.608116532769     0.046999267710    12.000000000000
         C            3.411721132287    -0.549629532769    -0.258920732290    12.000000000000
         H           -0.937867867713     0.592427467231    -1.514886732290     1.007825032230
         H           -3.362843867713     0.643688467231    -1.146460732290     1.007825032230
         H           -0.440551867713     1.222903467231     1.404002267710     1.007825032230
         H           -3.282218867713    -0.907710532769     1.130787267710     1.007825032230
         H           -1.713569867713    -1.699281532769    -1.369459732290     1.007825032230
         H           -3.485822867713    -1.832980532769    -1.184130732290     1.007825032230
         H           -0.297786867713     2.714202467231    -0.524995732290     1.007825032230
         H           -2.847817867713     2.400766467231     0.508667267710     1.007825032230
         H            0.434049132287    -1.962413532769     0.569072267710     1.007825032230
         H           -2.434135867713    -3.797408532769    -0.543228732290     1.007825032230
         H            2.828850132287    -2.644374532769     0.073926267710     1.007825032230
         H            5.124918132287    -1.669837532769    -0.162409732290     1.007825032230
         H            5.319552132287    -0.019030532769    -0.568289732290     1.007825032230

  Basis Set: AUG-CC-PVTZ
    Blend: AUG-CC-PVTZ
  Basis Set: (AUG-CC-PVTZ AUX)
    Blend: AUG-CC-PVTZ-JKFIT
	 Reference Energy          =    -886.3729295503609364 [Eh]
	 Singles Energy            =      -0.0000000000000000 [Eh]
	 Same-Spin Energy          =      -0.9014339358085970 [Eh]
	 Opposite-Spin Energy      =      -2.7149723420646712 [Eh]
	 Correlation Energy        =      -3.6164062778732680 [Eh]
	 Total Energy              =    -889.9893358282341751 [Eh]

	 ================> DF-SCS-MP2 Energies <==================
	-----------------------------------------------------------
	 SCS Same-Spin Scale       =       0.3333333333333333 [-]
	 SCS Opposite-Spin Scale   =       1.2000000000000000 [-]
	 SCS Same-Spin Energy      =      -0.3004779786028656 [Eh]
	 SCS Opposite-Spin Energy  =      -3.2579668104776052 [Eh]
	 SCS Correlation Energy    =      -3.5584447890804709 [Eh]
	 SCS Total Energy          =    -889.9313743394413905 [Eh]
	-----------------------------------------------------------

  Dipole Moment: [D]
     X:     1.7464      Y:    -6.0830      Z:    -1.8249     Total:     6.5865

*** Psi4 exiting successfully. Buy a developer a beer!
