                               Psi4 1.3.2 release

  ==> Input File <==

--------------------------------------------------------------------------
#psi4
#
memory 32 gb

molecule  {
0 1
  O       -1.2481010    -0.6526680     1.0325150
  O       -1.2449750     2.4828510    -0.6861630
  O       -3.2165300     1.5210990     0.7448870
  O       -2.3570290    -3.0668370     0.0949400
  O        1.3605300     2.2470340    -0.0765420
  N        0.8434040     0.0452230     0.2559430
  N        3.0572260     0.7205030    -0.2937270
  N        4.7164630    -0.8366550    -0.5722980
  C       -1.2894840     1.0784300    -0.5920770
  C       -2.5281188     0.7107345    -0.3013040
  C       -0.5254080     0.4815200     0.6000940
  C       -2.5292560    -0.7168860     0.3610560
  C       -2.5283440    -1.8503930    -0.6392900
  C        1.2197750    -1.2614080     0.3112740
  C        1.7555940     1.0674350    -0.0594030
  C        2.5111010    -1.6091400     0.0469950
  C        3.4119830    -0.5506530    -0.2589250
  H       -0.9376060     0.5914040    -1.5148910
  H       -3.3625820     0.6426650    -1.1464650
  H       -0.4402900     1.2218800     1.4039980
  H       -3.2819570    -0.9087340     1.1307830
  H       -1.7133080    -1.7003050    -1.3694640
  H       -3.4855610    -1.8340040    -1.1841350
  H       -0.2975250     2.7131790    -0.5250000
  H       -2.8475560     2.3997430     0.5086630
  H        0.4343110    -1.9634370     0.5690680
  H       -2.4338740    -3.7984320    -0.5432330
  H        2.8291120    -2.6453980     0.0739220
  H        5.1251800    -1.6708610    -0.1624140
  H        5.3198140    -0.0200540    -0.5682940
units angstrom
no_reorient  #important for SAPT in psi4, default
symmetry c1  #important for SAPT in psi4, default
}

set PROPERTIES_ORIGIN ["COM"]
properties('MP2/aug-cc-pvtz', properties = ['dipole'])
--------------------------------------------------------------------------

    Molecular point group: c1
  Charge       = 0
  Multiplicity = 1
  Basis Set: AUG-CC-PVTZ
    Blend: AUG-CC-PVTZ
  Basis Set: (AUG-CC-PVTZ AUX)
    Blend: AUG-CC-PVTZ-JKFIT

    Orbital Energies [Eh]
    ---------------------

    Doubly Occupied:

       1A    -20.582899     2A    -20.580388     3A    -20.560472
       4A    -20.555240     5A    -20.523736     6A    -15.638609
       7A    -15.600926     8A    -15.554659     9A    -11.389864
      10A    -11.359138    11A    -11.345229    12A    -11.329796
      13A    -11.302065    14A    -11.300602    15A    -11.295362
      16A    -11.289889    17A    -11.249853    18A     -1.432892
      19A     -1.397724    20A     -1.382015    21A     -1.373909
      22A     -1.329745    23A     -1.307516    24A     -1.275171
      25A     -1.183528    26A     -1.097920    27A     -1.079437
      28A     -1.034488    29A     -0.942974    30A     -0.910417
      31A     -0.873519    32A     -0.836836    33A     -0.802663
      34A     -0.768832    35A     -0.756346    36A     -0.746805
      37A     -0.721687    38A     -0.704472    39A     -0.693876
      40A     -0.686788    41A     -0.663239    42A     -0.657550
      43A     -0.654237    44A     -0.635250    45A     -0.624113
      46A     -0.615017    47A     -0.605715    48A     -0.593971
      49A     -0.576198    50A     -0.571207    51A     -0.551853
      52A     -0.539423    53A     -0.534579    54A     -0.524140
      55A     -0.505664    56A     -0.491756    57A     -0.478096
      58A     -0.463939    59A     -0.456401    60A     -0.454944
      61A     -0.434895    62A     -0.430711    63A     -0.396028
      64A     -0.351624

  @DF-RHF Final Energy:  -886.32034708957474

   => Energetics <=

    Nuclear Repulsion Energy =           1326.8237940647632058
    One-Electron Energy =               -3851.0706138325385837
    Two-Electron Energy =                1637.9264726782007529
    Total Energy =                       -886.3203470895746250
  Basis Set: (AUG-CC-PVTZ AUX)
    Blend: AUG-CC-PVTZ-RI
    Molecular point group: c1

    Geometry (in Angstrom), charge = 0, multiplicity = 1:

       Center              X                  Y                   Z               Mass
    ------------   -----------------  -----------------  -----------------  -----------------
         O           -1.257334929872    -0.655409123922     1.034682689039    15.994914619570
         O           -1.254208929872     2.480109876078    -0.683995310961    15.994914619570
         O           -3.225763929872     1.518357876078     0.747054689039    15.994914619570
         O           -2.366262929872    -3.069578123922     0.097107689039    15.994914619570
         O            1.351296070128     2.244292876078    -0.074374310961    15.994914619570
         N            0.834170070128     0.042481876078     0.258110689039    14.003074004430
         N            3.047992070128     0.717761876078    -0.291559310961    14.003074004430
         N            4.707229070128    -0.839396123922    -0.570130310961    14.003074004430
         C           -1.298717929872     1.075688876078    -0.589909310961    12.000000000000
         C           -2.537352729872     0.707993376078    -0.299136310961    12.000000000000
         C           -0.534641929872     0.478778876078     0.602261689039    12.000000000000
         C           -2.538489929872    -0.719627123922     0.363223689039    12.000000000000
         C           -2.537577929872    -1.853134123922    -0.637122310961    12.000000000000
         C            1.210541070128    -1.264149123922     0.313441689039    12.000000000000
         C            1.746360070128     1.064693876078    -0.057235310961    12.000000000000
         C            2.501867070128    -1.611881123922     0.049162689039    12.000000000000
         C            3.402749070128    -0.553394123922    -0.256757310961    12.000000000000
         H           -0.946839929872     0.588662876078    -1.512723310961     1.007825032230
         H           -3.371815929872     0.639923876078    -1.144297310961     1.007825032230
         H           -0.449523929872     1.219138876078     1.406165689039     1.007825032230
         H           -3.291190929872    -0.911475123922     1.132950689039     1.007825032230
         H           -1.722541929872    -1.703046123922    -1.367296310961     1.007825032230
         H           -3.494794929872    -1.836745123922    -1.181967310961     1.007825032230
         H           -0.306758929872     2.710437876078    -0.522832310961     1.007825032230
         H           -2.856789929872     2.397001876078     0.510830689039     1.007825032230
         H            0.425077070128    -1.966178123922     0.571235689039     1.007825032230
         H           -2.443107929872    -3.801173123922    -0.541065310961     1.007825032230
         H            2.819878070128    -2.648139123922     0.076089689039     1.007825032230
         H            5.115946070128    -1.673602123922    -0.160246310961     1.007825032230
         H            5.310580070128    -0.022795123922    -0.566126310961     1.007825032230

  Basis Set: AUG-CC-PVTZ
    Blend: AUG-CC-PVTZ
  Basis Set: (AUG-CC-PVTZ AUX)
    Blend: AUG-CC-PVTZ-JKFIT
	 Reference Energy          =    -886.3203470895747387 [Eh]
	 Singles Energy            =      -0.0000000000000000 [Eh]
	 Same-Spin Energy          =      -0.9041427157541303 [Eh]
	 Opposite-Spin Energy      =      -2.7202567767401904 [Eh]
	 Correlation Energy        =      -3.6243994924943208 [Eh]
	 Total Energy              =    -889.9447465820691150 [Eh]

	 ================> DF-SCS-MP2 Energies <==================
	-----------------------------------------------------------
	 SCS Same-Spin Scale       =       0.3333333333333333 [-]
	 SCS Opposite-Spin Scale   =       1.2000000000000000 [-]
	 SCS Same-Spin Energy      =      -0.3013809052513767 [Eh]
	 SCS Opposite-Spin Energy  =      -3.2643081320882286 [Eh]
	 SCS Correlation Energy    =      -3.5656890373396051 [Eh]
	 SCS Total Energy          =    -889.8860361269142913 [Eh]
	-----------------------------------------------------------

  Dipole Moment: [D]
     X:     2.0346      Y:    -6.0727      Z:    -1.8229     Total:     6.6589

*** Psi4 exiting successfully. Buy a developer a beer!
