                               Psi4 1.3.2 release

  ==> Input File <==

--------------------------------------------------------------------------
#psi4
#
memory 32 gb

molecule  {
0 1
  O       -1.2481010    -0.6526680     1.0325150
  O       -1.2449750     2.4828510    -0.6861630
  O       -3.2165300     1.5210990     0.7448870
  O       -2.3570290    -3.0668370     0.0949400
  O        1.3605300     2.2470340    -0.0765420
  N        0.8434040     0.0452230     0.2559430
  N        3.0572260     0.7205030    -0.2937270
  N        4.7164630    -0.8366550    -0.5722980
  C       -1.2894840     1.0784300    -0.5920770
  C       -2.7151710     0.6552070    -0.2573930
  C       -0.5254080     0.4815200     0.6000940
  C       -2.5292560    -0.7168860     0.3610560
  C       -2.5283440    -1.8503930    -0.6392900
  C        1.1644622    -1.0693810     0.3031424
  C        1.7555940     1.0674350    -0.0594030
  C        2.5111010    -1.6091400     0.0469950
  C        3.4119830    -0.5506530    -0.2589250
  H       -0.9376060     0.5914040    -1.5148910
  H       -3.3625820     0.6426650    -1.1464650
  H       -0.4402900     1.2218800     1.4039980
  H       -3.2819570    -0.9087340     1.1307830
  H       -1.7133080    -1.7003050    -1.3694640
  H       -3.4855610    -1.8340040    -1.1841350
  H       -0.2975250     2.7131790    -0.5250000
  H       -2.8475560     2.3997430     0.5086630
  H        0.4343110    -1.9634370     0.5690680
  H       -2.4338740    -3.7984320    -0.5432330
  H        2.8291120    -2.6453980     0.0739220
  H        5.1251800    -1.6708610    -0.1624140
  H        5.3198140    -0.0200540    -0.5682940
units angstrom
no_reorient  #important for SAPT in psi4, default
symmetry c1  #important for SAPT in psi4, default
}

set PROPERTIES_ORIGIN ["COM"]
properties('MP2/aug-cc-pvtz', properties = ['dipole'])
--------------------------------------------------------------------------

    Molecular point group: c1
  Charge       = 0
  Multiplicity = 1
  Basis Set: AUG-CC-PVTZ
    Blend: AUG-CC-PVTZ
  Basis Set: (AUG-CC-PVTZ AUX)
    Blend: AUG-CC-PVTZ-JKFIT

    Orbital Energies [Eh]
    ---------------------

    Doubly Occupied:

       1A    -20.590805     2A    -20.585171     3A    -20.565772
       4A    -20.564639     5A    -20.530259     6A    -15.657601
       7A    -15.585079     8A    -15.546685     9A    -11.395065
      10A    -11.356027    11A    -11.340608    12A    -11.328200
      13A    -11.308264    14A    -11.305607    15A    -11.303666
      16A    -11.300808    17A    -11.235143    18A     -1.456353
      19A     -1.414399    20A     -1.388942    21A     -1.377598
      22A     -1.354282    23A     -1.348529    24A     -1.281220
      25A     -1.178505    26A     -1.075386    27A     -1.070408
      28A     -1.019699    29A     -0.950437    30A     -0.934644
      31A     -0.876613    32A     -0.837569    33A     -0.816838
      34A     -0.775068    35A     -0.764915    36A     -0.749256
      37A     -0.715442    38A     -0.706076    39A     -0.703542
      40A     -0.682480    41A     -0.675355    42A     -0.667510
      43A     -0.657248    44A     -0.644690    45A     -0.624346
      46A     -0.620227    47A     -0.609312    48A     -0.591635
      49A     -0.576369    50A     -0.567269    51A     -0.554879
      52A     -0.544604    53A     -0.535820    54A     -0.533398
      55A     -0.519223    56A     -0.485173    57A     -0.480877
      58A     -0.469403    59A     -0.464378    60A     -0.460439
      61A     -0.446343    62A     -0.428285    63A     -0.394411
      64A     -0.324569

  @DF-RHF Final Energy:  -886.31107603012561

   => Energetics <=

    Nuclear Repulsion Energy =           1328.2587791578264387
    One-Electron Energy =               -3853.4329923293998945
    Two-Electron Energy =                1638.8631371414480782
    Total Energy =                       -886.3110760301256050
  Basis Set: (AUG-CC-PVTZ AUX)
    Blend: AUG-CC-PVTZ-RI
    Molecular point group: c1

    Geometry (in Angstrom), charge = 0, multiplicity = 1:

       Center              X                  Y                   Z               Mass
    ------------   -----------------  -----------------  -----------------  -----------------
         O           -1.245370498615    -0.662147468503     1.032916426701    15.994914619570
         O           -1.242244498615     2.473371531497    -0.685761573299    15.994914619570
         O           -3.213799498615     1.511619531497     0.745288426701    15.994914619570
         O           -2.354298498615    -3.076316468503     0.095341426701    15.994914619570
         O            1.363260501385     2.237554531497    -0.076140573299    15.994914619570
         N            0.846134501385     0.035743531497     0.256344426701    14.003074004430
         N            3.059956501385     0.711023531497    -0.293325573299    14.003074004430
         N            4.719193501385    -0.846134468503    -0.571896573299    14.003074004430
         C           -1.286753498615     1.068950531497    -0.591675573299    12.000000000000
         C           -2.712440498615     0.645727531497    -0.256991573299    12.000000000000
         C           -0.522677498615     0.472040531497     0.600495426701    12.000000000000
         C           -2.526525498615    -0.726365468503     0.361457426701    12.000000000000
         C           -2.525613498615    -1.859872468503    -0.638888573299    12.000000000000
         C            1.167192701385    -1.078860468503     0.303543826701    12.000000000000
         C            1.758324501385     1.057955531497    -0.059001573299    12.000000000000
         C            2.513831501385    -1.618619468503     0.047396426701    12.000000000000
         C            3.414713501385    -0.560132468503    -0.258523573299    12.000000000000
         H           -0.934875498615     0.581924531497    -1.514489573299     1.007825032230
         H           -3.359851498615     0.633185531497    -1.146063573299     1.007825032230
         H           -0.437559498615     1.212400531497     1.404399426701     1.007825032230
         H           -3.279226498615    -0.918213468503     1.131184426701     1.007825032230
         H           -1.710577498615    -1.709784468503    -1.369062573299     1.007825032230
         H           -3.482830498615    -1.843483468503    -1.183733573299     1.007825032230
         H           -0.294794498615     2.703699531497    -0.524598573299     1.007825032230
         H           -2.844825498615     2.390263531497     0.509064426701     1.007825032230
         H            0.437041501385    -1.972916468503     0.569469426701     1.007825032230
         H           -2.431143498615    -3.807911468503    -0.542831573299     1.007825032230
         H            2.831842501385    -2.654877468503     0.074323426701     1.007825032230
         H            5.127910501385    -1.680340468503    -0.162012573299     1.007825032230
         H            5.322544501385    -0.029533468503    -0.567892573299     1.007825032230

  Basis Set: AUG-CC-PVTZ
    Blend: AUG-CC-PVTZ
  Basis Set: (AUG-CC-PVTZ AUX)
    Blend: AUG-CC-PVTZ-JKFIT
	 Reference Energy          =    -886.3110760301256050 [Eh]
	 Singles Energy            =      -0.0000000000000000 [Eh]
	 Same-Spin Energy          =      -0.9029043220024823 [Eh]
	 Opposite-Spin Energy      =      -2.7154109225483833 [Eh]
	 Correlation Energy        =      -3.6183152445508657 [Eh]
	 Total Energy              =    -889.9293912746765045 [Eh]

	 ================> DF-SCS-MP2 Energies <==================
	-----------------------------------------------------------
	 SCS Same-Spin Scale       =       0.3333333333333333 [-]
	 SCS Opposite-Spin Scale   =       1.2000000000000000 [-]
	 SCS Same-Spin Energy      =      -0.3009681073341607 [Eh]
	 SCS Opposite-Spin Energy  =      -3.2584931070580598 [Eh]
	 SCS Correlation Energy    =      -3.5594612143922206 [Eh]
	 SCS Total Energy          =    -889.8705372445177773 [Eh]
	-----------------------------------------------------------

  Dipole Moment: [D]
     X:     0.5813      Y:    -5.4575      Z:    -1.6904     Total:     5.7428

*** Psi4 exiting successfully. Buy a developer a beer!
