                               Psi4 1.3.2 release

  ==> Input File <==

--------------------------------------------------------------------------
#psi4
#
memory 32 gb

molecule  {
0 1
  O       -1.2875080    -0.6238479     1.0394353
  O       -1.2449750     2.4828510    -0.6861630
  O       -3.2165300     1.5210990     0.7448870
  O       -2.3570290    -3.0668370     0.0949400
  O        1.3605300     2.2470340    -0.0765420
  N        0.8548189     0.0939334     0.2434545
  N        3.0572260     0.7205030    -0.2937270
  N        4.7164630    -0.8366550    -0.5722980
  C       -1.2894840     1.0784300    -0.5920770
  C       -2.7151710     0.6552070    -0.2573930
  C       -0.5254080     0.4815200     0.6000940
  C       -2.5292560    -0.7168860     0.3610560
  C       -2.5283440    -1.8503930    -0.6392900
  C        1.2197750    -1.2614080     0.3112740
  C        1.7555940     1.0674350    -0.0594030
  C        2.5111010    -1.6091400     0.0469950
  C        3.4119830    -0.5506530    -0.2589250
  H       -0.9376060     0.5914040    -1.5148910
  H       -3.3625820     0.6426650    -1.1464650
  H       -0.4402900     1.2218800     1.4039980
  H       -3.2819570    -0.9087340     1.1307830
  H       -1.7133080    -1.7003050    -1.3694640
  H       -3.4855610    -1.8340040    -1.1841350
  H       -0.2975250     2.7131790    -0.5250000
  H       -2.8475560     2.3997430     0.5086630
  H        0.4343110    -1.9634370     0.5690680
  H       -2.4338740    -3.7984320    -0.5432330
  H        2.8291120    -2.6453980     0.0739220
  H        5.1251800    -1.6708610    -0.1624140
  H        5.3198140    -0.0200540    -0.5682940
units angstrom
no_reorient  #important for SAPT in psi4, default
symmetry c1  #important for SAPT in psi4, default
}

set PROPERTIES_ORIGIN ["COM"]
properties('MP2/aug-cc-pvtz', properties = ['dipole'])
--------------------------------------------------------------------------

    Molecular point group: c1
  Charge       = 0
  Multiplicity = 1
  Basis Set: AUG-CC-PVTZ
    Blend: AUG-CC-PVTZ
  Basis Set: (AUG-CC-PVTZ AUX)
    Blend: AUG-CC-PVTZ-JKFIT

    Orbital Energies [Eh]
    ---------------------

    Doubly Occupied:

       1A    -20.582150     2A    -20.581943     3A    -20.555643
       4A    -20.554845     5A    -20.514972     6A    -15.637187
       7A    -15.602280     8A    -15.554555     9A    -11.382550
      10A    -11.360447    11A    -11.341313    12A    -11.334486
      13A    -11.300136    14A    -11.294181    15A    -11.293835
      16A    -11.289815    17A    -11.256169    18A     -1.433770
      19A     -1.399500    20A     -1.378583    21A     -1.372673
      22A     -1.344077    23A     -1.304616    24A     -1.272282
      25A     -1.183271    26A     -1.085532    27A     -1.064840
      28A     -1.024351    29A     -0.935918    30A     -0.914878
      31A     -0.876728    32A     -0.830608    33A     -0.812418
      34A     -0.770132    35A     -0.750835    36A     -0.734643
      37A     -0.722229    38A     -0.703339    39A     -0.698487
      40A     -0.687744    41A     -0.674730    42A     -0.654633
      43A     -0.652172    44A     -0.640507    45A     -0.621589
      46A     -0.619026    47A     -0.608458    48A     -0.587673
      49A     -0.575780    50A     -0.570625    51A     -0.552589
      52A     -0.545580    53A     -0.536433    54A     -0.532705
      55A     -0.491433    56A     -0.476294    57A     -0.470690
      58A     -0.459352    59A     -0.456995    60A     -0.450181
      61A     -0.440595    62A     -0.434619    63A     -0.395331
      64A     -0.355600

  @DF-RHF Final Energy:  -886.37051853909657

   => Energetics <=

    Nuclear Repulsion Energy =           1324.1266888370389552
    One-Electron Energy =               -3845.9113074599208630
    Two-Electron Energy =                1635.4141000837851152
    Total Energy =                       -886.3705185390965653
  Basis Set: (AUG-CC-PVTZ AUX)
    Blend: AUG-CC-PVTZ-RI
    Molecular point group: c1

    Geometry (in Angstrom), charge = 0, multiplicity = 1:

       Center              X                  Y                   Z               Mass
    ------------   -----------------  -----------------  -----------------  -----------------
         O           -1.285572633136    -0.628550228249     1.039699361802    15.994914619570
         O           -1.243039633136     2.478148671751    -0.685898938198    15.994914619570
         O           -3.214594633136     1.516396671751     0.745151061802    15.994914619570
         O           -2.355093633136    -3.071539328249     0.095204061802    15.994914619570
         O            1.362465366864     2.242331671751    -0.076277938198    15.994914619570
         N            0.856754266864     0.089231071751     0.243718561802    14.003074004430
         N            3.059161366864     0.715800671751    -0.293462938198    14.003074004430
         N            4.718398366864    -0.841357328249    -0.572033938198    14.003074004430
         C           -1.287548633136     1.073727671751    -0.591812938198    12.000000000000
         C           -2.713235633136     0.650504671751    -0.257128938198    12.000000000000
         C           -0.523472633136     0.476817671751     0.600358061802    12.000000000000
         C           -2.527320633136    -0.721588328249     0.361320061802    12.000000000000
         C           -2.526408633136    -1.855095328249    -0.639025938198    12.000000000000
         C            1.221710366864    -1.266110328249     0.311538061802    12.000000000000
         C            1.757529366864     1.062732671751    -0.059138938198    12.000000000000
         C            2.513036366864    -1.613842328249     0.047259061802    12.000000000000
         C            3.413918366864    -0.555355328249    -0.258660938198    12.000000000000
         H           -0.935670633136     0.586701671751    -1.514626938198     1.007825032230
         H           -3.360646633136     0.637962671751    -1.146200938198     1.007825032230
         H           -0.438354633136     1.217177671751     1.404262061802     1.007825032230
         H           -3.280021633136    -0.913436328249     1.131047061802     1.007825032230
         H           -1.711372633136    -1.705007328249    -1.369199938198     1.007825032230
         H           -3.483625633136    -1.838706328249    -1.183870938198     1.007825032230
         H           -0.295589633136     2.708476671751    -0.524735938198     1.007825032230
         H           -2.845620633136     2.395040671751     0.508927061802     1.007825032230
         H            0.436246366864    -1.968139328249     0.569332061802     1.007825032230
         H           -2.431938633136    -3.803134328249    -0.542968938198     1.007825032230
         H            2.831047366864    -2.650100328249     0.074186061802     1.007825032230
         H            5.127115366864    -1.675563328249    -0.162149938198     1.007825032230
         H            5.321749366864    -0.024756328249    -0.568029938198     1.007825032230

  Basis Set: AUG-CC-PVTZ
    Blend: AUG-CC-PVTZ
  Basis Set: (AUG-CC-PVTZ AUX)
    Blend: AUG-CC-PVTZ-JKFIT
	 Reference Energy          =    -886.3705185390965653 [Eh]
	 Singles Energy            =      -0.0000000000000000 [Eh]
	 Same-Spin Energy          =      -0.9007431602156812 [Eh]
	 Opposite-Spin Energy      =      -2.7142102985438896 [Eh]
	 Correlation Energy        =      -3.6149534587595706 [Eh]
	 Total Energy              =    -889.9854719978561661 [Eh]

	 ================> DF-SCS-MP2 Energies <==================
	-----------------------------------------------------------
	 SCS Same-Spin Scale       =       0.3333333333333333 [-]
	 SCS Opposite-Spin Scale   =       1.2000000000000000 [-]
	 SCS Same-Spin Energy      =      -0.3002477200718937 [Eh]
	 SCS Opposite-Spin Energy  =      -3.2570523582526674 [Eh]
	 SCS Correlation Energy    =      -3.5573000783245612 [Eh]
	 SCS Total Energy          =    -889.9278186174211669 [Eh]
	-----------------------------------------------------------

  Dipole Moment: [D]
     X:     1.9846      Y:    -6.2467      Z:    -1.8004     Total:     6.7972

*** Psi4 exiting successfully. Buy a developer a beer!
