                               Psi4 1.3.2 release

  ==> Input File <==

--------------------------------------------------------------------------
#psi4
#
memory 32 gb

molecule  {
0 1
  O       -1.2481010    -0.6526680     1.0325150
  O       -1.2449750     2.4828510    -0.6861630
  O       -3.2165300     1.5210990     0.7448870
  O       -2.3570290    -3.0668370     0.0949400
  O        1.4010415     2.2596686    -0.0857601
  N        0.8434040     0.0452230     0.2559430
  N        3.0676066     0.7667117    -0.2996193
  N        4.7164630    -0.8366550    -0.5722980
  C       -1.2894840     1.0784300    -0.5920770
  C       -2.7151710     0.6552070    -0.2573930
  C       -0.5254080     0.4815200     0.6000940
  C       -2.5292560    -0.7168860     0.3610560
  C       -2.5283440    -1.8503930    -0.6392900
  C        1.2197750    -1.2614080     0.3112740
  C        1.7555940     1.0674350    -0.0594030
  C        2.5111010    -1.6091400     0.0469950
  C        3.4119830    -0.5506530    -0.2589250
  H       -0.9376060     0.5914040    -1.5148910
  H       -3.3625820     0.6426650    -1.1464650
  H       -0.4402900     1.2218800     1.4039980
  H       -3.2819570    -0.9087340     1.1307830
  H       -1.7133080    -1.7003050    -1.3694640
  H       -3.4855610    -1.8340040    -1.1841350
  H       -0.2975250     2.7131790    -0.5250000
  H       -2.8475560     2.3997430     0.5086630
  H        0.4343110    -1.9634370     0.5690680
  H       -2.4338740    -3.7984320    -0.5432330
  H        2.8291120    -2.6453980     0.0739220
  H        5.1251800    -1.6708610    -0.1624140
  H        5.3198140    -0.0200540    -0.5682940
units angstrom
no_reorient  #important for SAPT in psi4, default
symmetry c1  #important for SAPT in psi4, default
}

set PROPERTIES_ORIGIN ["COM"]
properties('MP2/aug-cc-pvtz', properties = ['dipole'])
--------------------------------------------------------------------------

    Molecular point group: c1
  Charge       = 0
  Multiplicity = 1
  Basis Set: AUG-CC-PVTZ
    Blend: AUG-CC-PVTZ
  Basis Set: (AUG-CC-PVTZ AUX)
    Blend: AUG-CC-PVTZ-JKFIT

    Orbital Energies [Eh]
    ---------------------

    Doubly Occupied:

       1A    -20.582989     2A    -20.582856     3A    -20.558495
       4A    -20.558443     5A    -20.516446     6A    -15.639306
       7A    -15.602271     8A    -15.555354     9A    -11.383043
      10A    -11.362039    11A    -11.343011    12A    -11.331653
      13A    -11.301950    14A    -11.297794    15A    -11.297540
      16A    -11.293728    17A    -11.250897    18A     -1.429722
      19A     -1.393054    20A     -1.380876    21A     -1.373519
      22A     -1.347026    23A     -1.300946    24A     -1.273230
      25A     -1.174969    26A     -1.083759    27A     -1.068559
      28A     -1.022003    29A     -0.935468    30A     -0.911009
      31A     -0.871622    32A     -0.833121    33A     -0.812299
      34A     -0.766167    35A     -0.752735    36A     -0.736747
      37A     -0.718763    38A     -0.703421    39A     -0.699254
      40A     -0.684572    41A     -0.673715    42A     -0.653661
      43A     -0.648950    44A     -0.638038    45A     -0.620791
      46A     -0.614168    47A     -0.606956    48A     -0.591269
      49A     -0.576441    50A     -0.569902    51A     -0.554534
      52A     -0.545723    53A     -0.537461    54A     -0.531561
      55A     -0.498040    56A     -0.478243    57A     -0.475166
      58A     -0.462852    59A     -0.454731    60A     -0.453715
      61A     -0.442718    62A     -0.435160    63A     -0.389727
      64A     -0.350450

  @DF-RHF Final Energy:  -886.36844806636373

   => Energetics <=

    Nuclear Repulsion Energy =           1321.8315566510632380
    One-Electron Energy =               -3841.3307458703316115
    Two-Electron Energy =                1633.1307411529046476
    Total Energy =                       -886.3684480663637260
  Basis Set: (AUG-CC-PVTZ AUX)
    Blend: AUG-CC-PVTZ-RI
    Molecular point group: c1

    Geometry (in Angstrom), charge = 0, multiplicity = 1:

       Center              X                  Y                   Z               Mass
    ------------   -----------------  -----------------  -----------------  -----------------
         O           -1.251364651991    -0.656161218056     1.033460983345    15.994914619570
         O           -1.248238651991     2.479357781944    -0.685217016655    15.994914619570
         O           -3.219793651991     1.517605781944     0.745832983345    15.994914619570
         O           -2.360292651991    -3.070330218056     0.095885983345    15.994914619570
         O            1.397777848009     2.256175381944    -0.084814116655    15.994914619570
         N            0.840140348009     0.041729781944     0.256888983345    14.003074004430
         N            3.064342948009     0.763218481944    -0.298673316655    14.003074004430
         N            4.713199348009    -0.840148218056    -0.571352016655    14.003074004430
         C           -1.292747651991     1.074936781944    -0.591131016655    12.000000000000
         C           -2.718434651991     0.651713781944    -0.256447016655    12.000000000000
         C           -0.528671651991     0.478026781944     0.601039983345    12.000000000000
         C           -2.532519651991    -0.720379218056     0.362001983345    12.000000000000
         C           -2.531607651991    -1.853886218056    -0.638344016655    12.000000000000
         C            1.216511348009    -1.264901218056     0.312219983345    12.000000000000
         C            1.752330348009     1.063941781944    -0.058457016655    12.000000000000
         C            2.507837348009    -1.612633218056     0.047940983345    12.000000000000
         C            3.408719348009    -0.554146218056    -0.257979016655    12.000000000000
         H           -0.940869651991     0.587910781944    -1.513945016655     1.007825032230
         H           -3.365845651991     0.639171781944    -1.145519016655     1.007825032230
         H           -0.443553651991     1.218386781944     1.404943983345     1.007825032230
         H           -3.285220651991    -0.912227218056     1.131728983345     1.007825032230
         H           -1.716571651991    -1.703798218056    -1.368518016655     1.007825032230
         H           -3.488824651991    -1.837497218056    -1.183189016655     1.007825032230
         H           -0.300788651991     2.709685781944    -0.524054016655     1.007825032230
         H           -2.850819651991     2.396249781944     0.509608983345     1.007825032230
         H            0.431047348009    -1.966930218056     0.570013983345     1.007825032230
         H           -2.437137651991    -3.801925218056    -0.542287016655     1.007825032230
         H            2.825848348009    -2.648891218056     0.074867983345     1.007825032230
         H            5.121916348009    -1.674354218056    -0.161468016655     1.007825032230
         H            5.316550348009    -0.023547218056    -0.567348016655     1.007825032230

  Basis Set: AUG-CC-PVTZ
    Blend: AUG-CC-PVTZ
  Basis Set: (AUG-CC-PVTZ AUX)
    Blend: AUG-CC-PVTZ-JKFIT
	 Reference Energy          =    -886.3684480663637260 [Eh]
	 Singles Energy            =      -0.0000000000000000 [Eh]
	 Same-Spin Energy          =      -0.9014110505985686 [Eh]
	 Opposite-Spin Energy      =      -2.7159514149947146 [Eh]
	 Correlation Energy        =      -3.6173624655932830 [Eh]
	 Total Energy              =    -889.9858105319569859 [Eh]

	 ================> DF-SCS-MP2 Energies <==================
	-----------------------------------------------------------
	 SCS Same-Spin Scale       =       0.3333333333333333 [-]
	 SCS Opposite-Spin Scale   =       1.2000000000000000 [-]
	 SCS Same-Spin Energy      =      -0.3004703501995228 [Eh]
	 SCS Opposite-Spin Energy  =      -3.2591416979936576 [Eh]
	 SCS Correlation Energy    =      -3.5596120481931806 [Eh]
	 SCS Total Energy          =    -889.9280601145569563 [Eh]
	-----------------------------------------------------------

  Dipole Moment: [D]
     X:     1.6303      Y:    -6.1359      Z:    -1.8091     Total:     6.6015

*** Psi4 exiting successfully. Buy a developer a beer!
