                               Psi4 1.3.2 release

  ==> Input File <==

--------------------------------------------------------------------------
#psi4
#
memory 32 gb

molecule  {
0 1
  O       -1.2416044    -0.5809066     1.0089774
  O       -1.2449750     2.4828510    -0.6861630
  O       -3.2165300     1.5210990     0.7448870
  O       -2.3570290    -3.0668370     0.0949400
  O        1.3605300     2.2470340    -0.0765420
  N        0.8434040     0.0452230     0.2559430
  N        3.0572260     0.7205030    -0.2937270
  N        4.7164630    -0.8366550    -0.5722980
  C       -1.2894840     1.0784300    -0.5920770
  C       -2.6448314     0.6761042    -0.2270795
  C       -0.5254080     0.4815200     0.6000940
  C       -2.5292560    -0.7168860     0.3610560
  C       -2.5283440    -1.8503930    -0.6392900
  C        1.2197750    -1.2614080     0.3112740
  C        1.7555940     1.0674350    -0.0594030
  C        2.5111010    -1.6091400     0.0469950
  C        3.4119830    -0.5506530    -0.2589250
  H       -0.9376060     0.5914040    -1.5148910
  H       -3.3625820     0.6426650    -1.1464650
  H       -0.4402900     1.2218800     1.4039980
  H       -3.2819570    -0.9087340     1.1307830
  H       -1.7133080    -1.7003050    -1.3694640
  H       -3.4855610    -1.8340040    -1.1841350
  H       -0.2975250     2.7131790    -0.5250000
  H       -2.8475560     2.3997430     0.5086630
  H        0.4343110    -1.9634370     0.5690680
  H       -2.4338740    -3.7984320    -0.5432330
  H        2.8291120    -2.6453980     0.0739220
  H        5.1251800    -1.6708610    -0.1624140
  H        5.3198140    -0.0200540    -0.5682940
units angstrom
no_reorient  #important for SAPT in psi4, default
symmetry c1  #important for SAPT in psi4, default
}

set PROPERTIES_ORIGIN ["COM"]
properties('MP2/aug-cc-pvtz', properties = ['dipole'])
--------------------------------------------------------------------------

    Molecular point group: c1
  Charge       = 0
  Multiplicity = 1
  Basis Set: AUG-CC-PVTZ
    Blend: AUG-CC-PVTZ
  Basis Set: (AUG-CC-PVTZ AUX)
    Blend: AUG-CC-PVTZ-JKFIT

    Orbital Energies [Eh]
    ---------------------

    Doubly Occupied:

       1A    -20.585037     2A    -20.577882     3A    -20.559353
       4A    -20.555743     5A    -20.520782     6A    -15.634622
       7A    -15.599417     8A    -15.552688     9A    -11.387092
      10A    -11.357313    11A    -11.335868    12A    -11.328679
      13A    -11.304299    14A    -11.301330    15A    -11.293495
      16A    -11.291239    17A    -11.248388    18A     -1.449405
      19A     -1.397559    20A     -1.383461    21A     -1.377794
      22A     -1.347578    23A     -1.305407    24A     -1.273065
      25A     -1.181548    26A     -1.082045    27A     -1.074441
      28A     -1.028492    29A     -0.938565    30A     -0.910187
      31A     -0.877201    32A     -0.832890    33A     -0.810482
      34A     -0.768353    35A     -0.754331    36A     -0.741828
      37A     -0.720851    38A     -0.705332    39A     -0.701557
      40A     -0.689351    41A     -0.673867    42A     -0.656629
      43A     -0.652952    44A     -0.637016    45A     -0.623086
      46A     -0.615363    47A     -0.609174    48A     -0.592662
      49A     -0.576586    50A     -0.575056    51A     -0.553997
      52A     -0.544738    53A     -0.538917    54A     -0.532063
      55A     -0.500263    56A     -0.480999    57A     -0.478642
      58A     -0.462347    59A     -0.457510    60A     -0.449190
      61A     -0.435557    62A     -0.430975    63A     -0.393749
      64A     -0.348943

  @DF-RHF Final Energy:  -886.36405911072450

   => Energetics <=

    Nuclear Repulsion Energy =           1327.4433397389723268
    One-Electron Energy =               -3852.4043380559064644
    Two-Electron Energy =                1638.5969392062092993
    Total Energy =                       -886.3640591107246109
  Basis Set: (AUG-CC-PVTZ AUX)
    Blend: AUG-CC-PVTZ-RI
    Molecular point group: c1

    Geometry (in Angstrom), charge = 0, multiplicity = 1:

       Center              X                  Y                   Z               Mass
    ------------   -----------------  -----------------  -----------------  -----------------
         O           -1.245504245658    -0.586660054168     1.009029734342    15.994914619570
         O           -1.248874845658     2.477097545832    -0.686110665658    15.994914619570
         O           -3.220429845658     1.515345545832     0.744939334342    15.994914619570
         O           -2.360928845658    -3.072590454168     0.094992334342    15.994914619570
         O            1.356630154342     2.241280545832    -0.076489665658    15.994914619570
         N            0.839504154342     0.039469545832     0.255995334342    14.003074004430
         N            3.053326154342     0.714749545832    -0.293674665658    14.003074004430
         N            4.712563154342    -0.842408454168    -0.572245665658    14.003074004430
         C           -1.293383845658     1.072676545832    -0.592024665658    12.000000000000
         C           -2.648731245658     0.670350745832    -0.227027165658    12.000000000000
         C           -0.529307845658     0.475766545832     0.600146334342    12.000000000000
         C           -2.533155845658    -0.722639454168     0.361108334342    12.000000000000
         C           -2.532243845658    -1.856146454168    -0.639237665658    12.000000000000
         C            1.215875154342    -1.267161454168     0.311326334342    12.000000000000
         C            1.751694154342     1.061681545832    -0.059350665658    12.000000000000
         C            2.507201154342    -1.614893454168     0.047047334342    12.000000000000
         C            3.408083154342    -0.556406454168    -0.258872665658    12.000000000000
         H           -0.941505845658     0.585650545832    -1.514838665658     1.007825032230
         H           -3.366481845658     0.636911545832    -1.146412665658     1.007825032230
         H           -0.444189845658     1.216126545832     1.404050334342     1.007825032230
         H           -3.285856845658    -0.914487454168     1.130835334342     1.007825032230
         H           -1.717207845658    -1.706058454168    -1.369411665658     1.007825032230
         H           -3.489460845658    -1.839757454168    -1.184082665658     1.007825032230
         H           -0.301424845658     2.707425545832    -0.524947665658     1.007825032230
         H           -2.851455845658     2.393989545832     0.508715334342     1.007825032230
         H            0.430411154342    -1.969190454168     0.569120334342     1.007825032230
         H           -2.437773845658    -3.804185454168    -0.543180665658     1.007825032230
         H            2.825212154342    -2.651151454168     0.073974334342     1.007825032230
         H            5.121280154342    -1.676614454168    -0.162361665658     1.007825032230
         H            5.315914154342    -0.025807454168    -0.568241665658     1.007825032230

  Basis Set: AUG-CC-PVTZ
    Blend: AUG-CC-PVTZ
  Basis Set: (AUG-CC-PVTZ AUX)
    Blend: AUG-CC-PVTZ-JKFIT
	 Reference Energy          =    -886.3640591107244973 [Eh]
	 Singles Energy            =      -0.0000000000000000 [Eh]
	 Same-Spin Energy          =      -0.9015844396661193 [Eh]
	 Opposite-Spin Energy      =      -2.7137880451473371 [Eh]
	 Correlation Energy        =      -3.6153724848134563 [Eh]
	 Total Energy              =    -889.9794315955379034 [Eh]

	 ================> DF-SCS-MP2 Energies <==================
	-----------------------------------------------------------
	 SCS Same-Spin Scale       =       0.3333333333333333 [-]
	 SCS Opposite-Spin Scale   =       1.2000000000000000 [-]
	 SCS Same-Spin Energy      =      -0.3005281465553731 [Eh]
	 SCS Opposite-Spin Energy  =      -3.2565456541768043 [Eh]
	 SCS Correlation Energy    =      -3.5570738007321774 [Eh]
	 SCS Total Energy          =    -889.9211329114566524 [Eh]
	-----------------------------------------------------------

  Dipole Moment: [D]
     X:     1.6285      Y:    -6.1719      Z:    -1.6769     Total:     6.5997

*** Psi4 exiting successfully. Buy a developer a beer!
