                               Psi4 1.3.2 release

  ==> Input File <==

--------------------------------------------------------------------------
#psi4
#
memory 32 gb

molecule  {
0 1
  O       -1.2481010    -0.6526680     1.0325150
  O       -1.2449750     2.4828510    -0.6861630
  O       -3.2165300     1.5210990     0.7448870
  O       -2.3570290    -3.0668370     0.0949400
  O        1.3605300     2.2470340    -0.0765420
  N        0.8434040     0.0452230     0.2559430
  N        3.0572260     0.7205030    -0.2937270
  N        4.7164630    -0.8366550    -0.5722980
  C       -1.2894840     1.0784300    -0.5920770
  C       -2.7151710     0.6552070    -0.2573930
  C       -0.5254080     0.4815200     0.6000940
  C       -2.5292560    -0.7168860     0.3610560
  C       -2.5283440    -1.8503930    -0.6392900
  C        1.2197750    -1.2614080     0.3112740
  C        1.7555940     1.0674350    -0.0594030
  C        2.5111010    -1.6091400     0.0469950
  C        3.4119830    -0.5506530    -0.2589250
  H       -0.8736968     0.5029487    -1.6824955
  H       -3.3625820     0.6426650    -1.1464650
  H       -0.4402900     1.2218800     1.4039980
  H       -3.2819570    -0.9087340     1.1307830
  H       -1.7133080    -1.7003050    -1.3694640
  H       -3.4855610    -1.8340040    -1.1841350
  H       -0.2975250     2.7131790    -0.5250000
  H       -2.8475560     2.3997430     0.5086630
  H        0.4343110    -1.9634370     0.5690680
  H       -2.4338740    -3.7984320    -0.5432330
  H        2.8291120    -2.6453980     0.0739220
  H        5.1251800    -1.6708610    -0.1624140
  H        5.3198140    -0.0200540    -0.5682940
units angstrom
no_reorient  #important for SAPT in psi4, default
symmetry c1  #important for SAPT in psi4, default
}

set PROPERTIES_ORIGIN ["COM"]
properties('MP2/aug-cc-pvtz', properties = ['dipole'])
--------------------------------------------------------------------------

    Molecular point group: c1
  Charge       = 0
  Multiplicity = 1
  Basis Set: AUG-CC-PVTZ
    Blend: AUG-CC-PVTZ
  Basis Set: (AUG-CC-PVTZ AUX)
    Blend: AUG-CC-PVTZ-JKFIT

    Orbital Energies [Eh]
    ---------------------

    Doubly Occupied:

       1A    -20.582591     2A    -20.581452     3A    -20.562745
       4A    -20.560132     5A    -20.522067     6A    -15.636739
       7A    -15.599657     8A    -15.553146     9A    -11.388218
      10A    -11.357650    11A    -11.344590    12A    -11.328321
      13A    -11.319270    14A    -11.299998    15A    -11.297442
      16A    -11.295257    17A    -11.248278    18A     -1.430237
      19A     -1.396530    20A     -1.382359    21A     -1.372803
      22A     -1.349143    23A     -1.305935    24A     -1.273634
      25A     -1.182080    26A     -1.081638    27A     -1.066603
      28A     -1.018864    29A     -0.935496    30A     -0.909094
      31A     -0.876332    32A     -0.827438    33A     -0.810408
      34A     -0.766260    35A     -0.752459    36A     -0.733683
      37A     -0.718216    38A     -0.703450    39A     -0.693500
      40A     -0.684948    41A     -0.670064    42A     -0.654175
      43A     -0.650733    44A     -0.633763    45A     -0.621020
      46A     -0.613792    47A     -0.604442    48A     -0.593684
      49A     -0.575326    50A     -0.570442    51A     -0.554113
      52A     -0.544236    53A     -0.538678    54A     -0.531977
      55A     -0.498445    56A     -0.477742    57A     -0.473147
      58A     -0.462987    59A     -0.460272    60A     -0.445744
      61A     -0.438623    62A     -0.432225    63A     -0.395287
      64A     -0.349998

  @DF-RHF Final Energy:  -886.35303973230475

   => Energetics <=

    Nuclear Repulsion Energy =           1322.6484149252548832
    One-Electron Energy =               -3842.9237541389570652
    Two-Electron Energy =                1633.9222994813972036
    Total Energy =                       -886.3530397323047509
  Basis Set: (AUG-CC-PVTZ AUX)
    Blend: AUG-CC-PVTZ-RI
    Molecular point group: c1

    Geometry (in Angstrom), charge = 0, multiplicity = 1:

       Center              X                  Y                   Z               Mass
    ------------   -----------------  -----------------  -----------------  -----------------
         O           -1.248365999498    -0.652301256930     1.033209890542    15.994914619570
         O           -1.245239999498     2.483217743070    -0.685468109458    15.994914619570
         O           -3.216794999498     1.521465743070     0.745581890542    15.994914619570
         O           -2.357293999498    -3.066470256930     0.095634890542    15.994914619570
         O            1.360265000502     2.247400743070    -0.075847109458    15.994914619570
         N            0.843139000502     0.045589743070     0.256637890542    14.003074004430
         N            3.056961000502     0.720869743070    -0.293032109458    14.003074004430
         N            4.716198000502    -0.836288256930    -0.571603109458    14.003074004430
         C           -1.289748999498     1.078796743070    -0.591382109458    12.000000000000
         C           -2.715435999498     0.655573743070    -0.256698109458    12.000000000000
         C           -0.525672999498     0.481886743070     0.600788890542    12.000000000000
         C           -2.529520999498    -0.716519256930     0.361750890542    12.000000000000
         C           -2.528608999498    -1.850026256930    -0.638595109458    12.000000000000
         C            1.219510000502    -1.261041256930     0.311968890542    12.000000000000
         C            1.755329000502     1.067801743070    -0.058708109458    12.000000000000
         C            2.510836000502    -1.608773256930     0.047689890542    12.000000000000
         C            3.411718000502    -0.550286256930    -0.258230109458    12.000000000000
         H           -0.873961799498     0.503315443070    -1.681800609458     1.007825032230
         H           -3.362846999498     0.643031743070    -1.145770109458     1.007825032230
         H           -0.440554999498     1.222246743070     1.404692890542     1.007825032230
         H           -3.282221999498    -0.908367256930     1.131477890542     1.007825032230
         H           -1.713572999498    -1.699938256930    -1.368769109458     1.007825032230
         H           -3.485825999498    -1.833637256930    -1.183440109458     1.007825032230
         H           -0.297789999498     2.713545743070    -0.524305109458     1.007825032230
         H           -2.847820999498     2.400109743070     0.509357890542     1.007825032230
         H            0.434046000502    -1.963070256930     0.569762890542     1.007825032230
         H           -2.434138999498    -3.798065256930    -0.542538109458     1.007825032230
         H            2.828847000502    -2.645031256930     0.074616890542     1.007825032230
         H            5.124915000502    -1.670494256930    -0.161719109458     1.007825032230
         H            5.319549000502    -0.019687256930    -0.567599109458     1.007825032230

  Basis Set: AUG-CC-PVTZ
    Blend: AUG-CC-PVTZ
  Basis Set: (AUG-CC-PVTZ AUX)
    Blend: AUG-CC-PVTZ-JKFIT
	 Reference Energy          =    -886.3530397323047509 [Eh]
	 Singles Energy            =      -0.0000000000000000 [Eh]
	 Same-Spin Energy          =      -0.9018541280589343 [Eh]
	 Opposite-Spin Energy      =      -2.7172290585684022 [Eh]
	 Correlation Energy        =      -3.6190831866273365 [Eh]
	 Total Energy              =    -889.9721229189320866 [Eh]

	 ================> DF-SCS-MP2 Energies <==================
	-----------------------------------------------------------
	 SCS Same-Spin Scale       =       0.3333333333333333 [-]
	 SCS Opposite-Spin Scale   =       1.2000000000000000 [-]
	 SCS Same-Spin Energy      =      -0.3006180426863114 [Eh]
	 SCS Opposite-Spin Energy  =      -3.2606748702820827 [Eh]
	 SCS Correlation Energy    =      -3.5612929129683941 [Eh]
	 SCS Total Energy          =    -889.9143326452731344 [Eh]
	-----------------------------------------------------------

  Dipole Moment: [D]
     X:     1.6665      Y:    -5.8150      Z:    -1.7060     Total:     6.2851

*** Psi4 exiting successfully. Buy a developer a beer!
