                               Psi4 1.4a3.dev225

  ==> Input File <==

--------------------------------------------------------------------------
#psi4
#
memory 32 gb

molecule  {
0 1
  O       -1.3191770     0.6538360    -1.0992360
  O       -1.5735610    -2.4640850     0.5135810
  O       -3.5606630    -1.0699430    -0.4600060
  O       -1.4399290     3.1254620     0.1265180
  O        1.1065530    -2.3833650     0.0076020
  N        0.7686360    -0.1579440    -0.3706350
  N        2.9363770    -0.9938720     0.1460080
  N        4.7058880     0.4431110     0.3611260
  C       -1.3768610    -1.0680440     0.5552780
  C       -2.7379840    -0.3746360     0.4578480
  C       -0.6377490    -0.5042940    -0.6790150
  C       -2.3707440     0.9655450    -0.1585060
  C       -1.8992030     1.9895750     0.8571380
  C        1.2309690     1.1190800    -0.4442230
  C        1.6104480    -1.2470590    -0.0585760
  C        2.5474650     1.3753690    -0.1998620
  C        3.4286497     0.2592761     0.0910827
  H       -0.8441360    -0.7686950     1.4698480
  H       -3.2257400    -0.2778790     1.4400230
  H       -0.6227070    -1.2428120    -1.4883720
  H       -3.1941750     1.3785730    -0.7472070
  H       -1.0952130     1.5703990     1.4802000
  H       -2.7410530     2.2466610     1.5166010
  H       -0.6710550    -2.8260740     0.3542250
  H       -3.3063470    -2.0105220    -0.3629290
  H        0.4929290     1.8778260    -0.6840360
  H       -1.2098800     3.8154810     0.7720340
  H        2.9334840     2.3875570    -0.2389120
  H        5.1589650     1.2712730    -0.0008400
  H        5.2635310    -0.4031270     0.3606700
units angstrom
no_reorient  #important for SAPT in psi4, default
symmetry c1  #important for SAPT in psi4, default
}

set PROPERTIES_ORIGIN ["COM"]
properties('MP2/aug-cc-pvtz', properties = ['dipole'])
--------------------------------------------------------------------------

    Molecular point group: c1
  Charge       = 0
  Multiplicity = 1
  Basis Set: AUG-CC-PVTZ
    Blend: AUG-CC-PVTZ
  Basis Set: (AUG-CC-PVTZ AUX)
    Blend: AUG-CC-PVTZ-JKFIT

    Orbital Energies [Eh]
    ---------------------

    Doubly Occupied:

       1A    -20.585444     2A    -20.579432     3A    -20.557524
       4A    -20.555016     5A    -20.516384     6A    -15.628610
       7A    -15.609617     8A    -15.547625     9A    -11.383028
      10A    -11.360619    11A    -11.337051    12A    -11.322289
      13A    -11.302161    14A    -11.296376    15A    -11.294969
      16A    -11.291915    17A    -11.246604    18A     -1.426955
      19A     -1.390574    20A     -1.381331    21A     -1.373820
      22A     -1.344877    23A     -1.309835    24A     -1.276521
      25A     -1.180413    26A     -1.073632    27A     -1.066417
      28A     -1.014595    29A     -0.934845    30A     -0.902809
      31A     -0.876950    32A     -0.829322    33A     -0.810991
      34A     -0.770740    35A     -0.748283    36A     -0.734363
      37A     -0.730385    38A     -0.707640    39A     -0.703344
      40A     -0.686709    41A     -0.675430    42A     -0.650924
      43A     -0.645566    44A     -0.630506    45A     -0.617183
      46A     -0.613280    47A     -0.608317    48A     -0.590747
      49A     -0.575741    50A     -0.566797    51A     -0.555973
      52A     -0.546821    53A     -0.537523    54A     -0.532220
      55A     -0.493058    56A     -0.479344    57A     -0.472185
      58A     -0.461521    59A     -0.452520    60A     -0.450684
      61A     -0.440605    62A     -0.424090    63A     -0.388342
      64A     -0.345195

  @DF-RHF Final Energy:  -886.37062284692433

   => Energetics <=

    Nuclear Repulsion Energy =           1333.8572517124946444
    One-Electron Energy =               -3865.5665678558325453
    Two-Electron Energy =                1645.3386932964133393
    Total Energy =                       -886.3706228469243342
  Basis Set: (AUG-CC-PVTZ AUX)
    Blend: AUG-CC-PVTZ-RI
    Molecular point group: c1

    Geometry (in Angstrom), charge = 0, multiplicity = 1:

       Center              X                  Y                   Z               Mass
    ------------   -----------------  -----------------  -----------------  -----------------
         O           -1.334311946547     0.682103286642    -1.083961374123    15.994914619570
         O           -1.588695946547    -2.435817713358     0.528855625877    15.994914619570
         O           -3.575797946547    -1.041675713358    -0.444731374123    15.994914619570
         O           -1.455063946547     3.153729286642     0.141792625877    15.994914619570
         O            1.091418053453    -2.355097713358     0.022876625877    15.994914619570
         N            0.753501053453    -0.129676713358    -0.355360374123    14.003074004430
         N            2.921242053453    -0.965604713358     0.161282625877    14.003074004430
         N            4.690753053453     0.471378286642     0.376400625877    14.003074004430
         C           -1.391995946547    -1.039776713358     0.570552625877    12.000000000000
         C           -2.753118946547    -0.346368713358     0.473122625877    12.000000000000
         C           -0.652883946547    -0.476026713358    -0.663740374123    12.000000000000
         C           -2.385878946547     0.993812286642    -0.143231374123    12.000000000000
         C           -1.914337946547     2.017842286642     0.872412625877    12.000000000000
         C            1.215834053453     1.147347286642    -0.428948374123    12.000000000000
         C            1.595313053453    -1.218791713358    -0.043301374123    12.000000000000
         C            2.532330053453     1.403636286642    -0.184587374123    12.000000000000
         C            3.413514753453     0.287543386642     0.106357325877    12.000000000000
         H           -0.859270946547    -0.740427713358     1.485122625877     1.007825032230
         H           -3.240874946547    -0.249611713358     1.455297625877     1.007825032230
         H           -0.637841946547    -1.214544713358    -1.473097374123     1.007825032230
         H           -3.209309946547     1.406840286642    -0.731932374123     1.007825032230
         H           -1.110347946547     1.598666286642     1.495474625877     1.007825032230
         H           -2.756187946547     2.274928286642     1.531875625877     1.007825032230
         H           -0.686189946547    -2.797806713358     0.369499625877     1.007825032230
         H           -3.321481946547    -1.982254713358    -0.347654374123     1.007825032230
         H            0.477794053453     1.906093286642    -0.668761374123     1.007825032230
         H           -1.225014946547     3.843748286642     0.787308625877     1.007825032230
         H            2.918349053453     2.415824286642    -0.223637374123     1.007825032230
         H            5.143830053453     1.299540286642     0.014434625877     1.007825032230
         H            5.248396053453    -0.374859713358     0.375944625877     1.007825032230

  Basis Set: AUG-CC-PVTZ
    Blend: AUG-CC-PVTZ
  Basis Set: (AUG-CC-PVTZ AUX)
    Blend: AUG-CC-PVTZ-JKFIT
	 Reference Energy          =    -886.3706228469243342 [Eh]
	 Singles Energy            =      -0.0000000000000000 [Eh]
	 Same-Spin Energy          =      -0.9018022564578271 [Eh]
	 Opposite-Spin Energy      =      -2.7158335760378129 [Eh]
	 Correlation Energy        =      -3.6176358324956399 [Eh]
	 Total Energy              =    -889.9882586794200279 [Eh]

	 ================> DF-SCS-MP2 Energies <==================
	-----------------------------------------------------------
	 SCS Same-Spin Scale       =       0.3333333333333333 [-]
	 SCS Opposite-Spin Scale   =       1.2000000000000000 [-]
	 SCS Same-Spin Energy      =      -0.3006007521526090 [Eh]
	 SCS Opposite-Spin Energy  =      -3.2590002912453753 [Eh]
	 SCS Correlation Energy    =      -3.5596010433979841 [Eh]
	 SCS Total Energy          =    -889.9302238903222815 [Eh]
	-----------------------------------------------------------

  Dipole Moment: [D]
     X:     3.2722      Y:     5.9045      Z:     2.0299     Total:     7.0492

*** Psi4 exiting successfully. Buy a developer a beer!
