                               Psi4 1.4a3.dev225

  ==> Input File <==

--------------------------------------------------------------------------
#psi4
#
memory 32 gb

molecule  {
0 1
  O       -1.3191770     0.6538360    -1.0992360
  O       -1.5735610    -2.4640850     0.5135810
  O       -3.5606630    -1.0699430    -0.4600060
  O       -1.4399290     3.1254620     0.1265180
  O        1.1065530    -2.3833650     0.0076020
  N        0.7686360    -0.1579440    -0.3706350
  N        2.9363770    -0.9938720     0.1460080
  N        4.7058880     0.4431110     0.3611260
  C       -1.3768610    -1.0680440     0.5552780
  C       -2.7379840    -0.3746360     0.4578480
  C       -0.6377490    -0.5042940    -0.6790150
  C       -2.3707440     0.9655450    -0.1585060
  C       -1.8992030     1.9895750     0.8571380
  C        1.2309690     1.1190800    -0.4442230
  C        1.6104480    -1.2470590    -0.0585760
  C        2.5474650     1.3753690    -0.1998620
  C        3.3802090     0.2523040     0.0808410
  H       -0.8441360    -0.7686950     1.4698480
  H       -3.2257400    -0.2778790     1.4400230
  H       -0.6227070    -1.2428120    -1.4883720
  H       -3.1941750     1.3785730    -0.7472070
  H       -1.0952130     1.5703990     1.4802000
  H       -2.7410530     2.2466610     1.5166010
  H       -0.6710550    -2.8260740     0.3542250
  H       -3.3011525    -2.0297336    -0.3609462
  H        0.4929290     1.8778260    -0.6840360
  H       -1.2098800     3.8154810     0.7720340
  H        2.9334840     2.3875570    -0.2389120
  H        5.1589650     1.2712730    -0.0008400
  H        5.2635310    -0.4031270     0.3606700
units angstrom
no_reorient  #important for SAPT in psi4, default
symmetry c1  #important for SAPT in psi4, default
}

set PROPERTIES_ORIGIN ["COM"]
properties('MP2/aug-cc-pvtz', properties = ['dipole'])
--------------------------------------------------------------------------

    Molecular point group: c1
  Charge       = 0
  Multiplicity = 1
  Basis Set: AUG-CC-PVTZ
    Blend: AUG-CC-PVTZ
  Basis Set: (AUG-CC-PVTZ AUX)
    Blend: AUG-CC-PVTZ-JKFIT

    Orbital Energies [Eh]
    ---------------------

    Doubly Occupied:

       1A    -20.586635     2A    -20.581286     3A    -20.559760
       4A    -20.557329     5A    -20.519738     6A    -15.632941
       7A    -15.599652     8A    -15.551745     9A    -11.385962
      10A    -11.358046    11A    -11.339536    12A    -11.325083
      13A    -11.303444    14A    -11.297750    15A    -11.296910
      16A    -11.293147    17A    -11.246526    18A     -1.428958
      19A     -1.394033    20A     -1.382403    21A     -1.374781
      22A     -1.343883    23A     -1.303643    24A     -1.271288
      25A     -1.181176    26A     -1.079308    27A     -1.067331
      28A     -1.017138    29A     -0.936101    30A     -0.906592
      31A     -0.876553    32A     -0.829559    33A     -0.811882
      34A     -0.766419    35A     -0.750265    36A     -0.735176
      37A     -0.721889    38A     -0.707724    39A     -0.701955
      40A     -0.685038    41A     -0.673594    42A     -0.653319
      43A     -0.648680    44A     -0.633256    45A     -0.620112
      46A     -0.615002    47A     -0.607394    48A     -0.593146
      49A     -0.576747    50A     -0.564620    51A     -0.555588
      52A     -0.547835    53A     -0.535962    54A     -0.530816
      55A     -0.495489    56A     -0.480758    57A     -0.473377
      58A     -0.463137    59A     -0.457814    60A     -0.452747
      61A     -0.441751    62A     -0.430217    63A     -0.392233
      64A     -0.348213

  @DF-RHF Final Energy:  -886.37255691534756

   => Energetics <=

    Nuclear Repulsion Energy =           1334.4666673229339722
    One-Electron Energy =               -3866.6776681507162721
    Two-Electron Energy =                1645.8384439124347409
    Total Energy =                       -886.3725569153475590
  Basis Set: (AUG-CC-PVTZ AUX)
    Blend: AUG-CC-PVTZ-RI
    Molecular point group: c1

    Geometry (in Angstrom), charge = 0, multiplicity = 1:

       Center              X                  Y                   Z               Mass
    ------------   -----------------  -----------------  -----------------  -----------------
         O           -1.331942191033     0.682527117445    -1.083464009721    15.994914619570
         O           -1.586326191033    -2.435393882555     0.529352990279    15.994914619570
         O           -3.573428191033    -1.041251882555    -0.444234009721    15.994914619570
         O           -1.452694191033     3.154153117445     0.142289990279    15.994914619570
         O            1.093787808967    -2.354673882555     0.023373990279    15.994914619570
         N            0.755870808967    -0.129252882555    -0.354863009721    14.003074004430
         N            2.923611808967    -0.965180882555     0.161779990279    14.003074004430
         N            4.693122808967     0.471802117445     0.376897990279    14.003074004430
         C           -1.389626191033    -1.039352882555     0.571049990279    12.000000000000
         C           -2.750749191033    -0.345944882555     0.473619990279    12.000000000000
         C           -0.650514191033    -0.475602882555    -0.663243009721    12.000000000000
         C           -2.383509191033     0.994236117445    -0.142734009721    12.000000000000
         C           -1.911968191033     2.018266117445     0.872909990279    12.000000000000
         C            1.218203808967     1.147771117445    -0.428451009721    12.000000000000
         C            1.597682808967    -1.218367882555    -0.042804009721    12.000000000000
         C            2.534699808967     1.404060117445    -0.184090009721    12.000000000000
         C            3.367443808967     0.280995117445     0.096612990279    12.000000000000
         H           -0.856901191033    -0.740003882555     1.485619990279     1.007825032230
         H           -3.238505191033    -0.249187882555     1.455794990279     1.007825032230
         H           -0.635472191033    -1.214120882555    -1.472600009721     1.007825032230
         H           -3.206940191033     1.407264117445    -0.731435009721     1.007825032230
         H           -1.107978191033     1.599090117445     1.495971990279     1.007825032230
         H           -2.753818191033     2.275352117445     1.532372990279     1.007825032230
         H           -0.683820191033    -2.797382882555     0.369996990279     1.007825032230
         H           -3.313917691033    -2.001042482555    -0.345174209721     1.007825032230
         H            0.480163808967     1.906517117445    -0.668264009721     1.007825032230
         H           -1.222645191033     3.844172117445     0.787805990279     1.007825032230
         H            2.920718808967     2.416248117445    -0.223140009721     1.007825032230
         H            5.146199808967     1.299964117445     0.014931990279     1.007825032230
         H            5.250765808967    -0.374435882555     0.376441990279     1.007825032230

  Basis Set: AUG-CC-PVTZ
    Blend: AUG-CC-PVTZ
  Basis Set: (AUG-CC-PVTZ AUX)
    Blend: AUG-CC-PVTZ-JKFIT
	 Reference Energy          =    -886.3725569153475590 [Eh]
	 Singles Energy            =      -0.0000000000000000 [Eh]
	 Same-Spin Energy          =      -0.9021172000231672 [Eh]
	 Opposite-Spin Energy      =      -2.7165626232370039 [Eh]
	 Correlation Energy        =      -3.6186798232601713 [Eh]
	 Total Energy              =    -889.9912367386077676 [Eh]

	 ================> DF-SCS-MP2 Energies <==================
	-----------------------------------------------------------
	 SCS Same-Spin Scale       =       0.3333333333333333 [-]
	 SCS Opposite-Spin Scale   =       1.2000000000000000 [-]
	 SCS Same-Spin Energy      =      -0.3007057333410557 [Eh]
	 SCS Opposite-Spin Energy  =      -3.2598751478844048 [Eh]
	 SCS Correlation Energy    =      -3.5605808812254605 [Eh]
	 SCS Total Energy          =    -889.9331377965729644 [Eh]
	-----------------------------------------------------------

  Dipole Moment: [D]
     X:     2.7468      Y:     5.7749      Z:     1.9490     Total:     6.6853

*** Psi4 exiting successfully. Buy a developer a beer!
