                               Psi4 1.3.2 release

  ==> Input File <==

--------------------------------------------------------------------------
#psi4
#
memory 32 gb

molecule  {
0 1
  O       -1.2481010    -0.6526680     1.0325150
  O       -1.2449750     2.4828510    -0.6861630
  O       -3.2165300     1.5210990     0.7448870
  O       -2.3570290    -3.0668370     0.0949400
  O        1.3605300     2.2470340    -0.0765420
  N        0.8434040     0.0452230     0.2559430
  N        3.0572260     0.7205030    -0.2937270
  N        4.7164630    -0.8366550    -0.5722980
  C       -1.2894840     1.0784300    -0.5920770
  C       -2.7151710     0.6552070    -0.2573930
  C       -0.5254080     0.4815200     0.6000940
  C       -2.4982755    -0.6950209     0.3979875
  C       -2.5283440    -1.8503930    -0.6392900
  C        1.2197750    -1.2614080     0.3112740
  C        1.7555940     1.0674350    -0.0594030
  C        2.5111010    -1.6091400     0.0469950
  C        3.4119830    -0.5506530    -0.2589250
  H       -0.9376060     0.5914040    -1.5148910
  H       -3.3576888     0.6806025    -1.1497345
  H       -0.4402900     1.2218800     1.4039980
  H       -3.2819570    -0.9087340     1.1307830
  H       -1.7133080    -1.7003050    -1.3694640
  H       -3.4855610    -1.8340040    -1.1841350
  H       -0.2975250     2.7131790    -0.5250000
  H       -2.8475560     2.3997430     0.5086630
  H        0.4343110    -1.9634370     0.5690680
  H       -2.4338740    -3.7984320    -0.5432330
  H        2.8291120    -2.6453980     0.0739220
  H        5.1251800    -1.6708610    -0.1624140
  H        5.3198140    -0.0200540    -0.5682940
units angstrom
no_reorient  #important for SAPT in psi4, default
symmetry c1  #important for SAPT in psi4, default
}

set PROPERTIES_ORIGIN ["COM"]
properties('MP2/aug-cc-pvtz', properties = ['dipole'])
--------------------------------------------------------------------------

    Molecular point group: c1
  Charge       = 0
  Multiplicity = 1
  Basis Set: AUG-CC-PVTZ
    Blend: AUG-CC-PVTZ
  Basis Set: (AUG-CC-PVTZ AUX)
    Blend: AUG-CC-PVTZ-JKFIT

    Orbital Energies [Eh]
    ---------------------

    Doubly Occupied:

       1A    -20.587009     2A    -20.579884     3A    -20.557610
       4A    -20.555946     5A    -20.523007     6A    -15.638527
       7A    -15.600623     8A    -15.554320     9A    -11.389428
      10A    -11.358813    11A    -11.344392    12A    -11.329795
      13A    -11.299001    14A    -11.296493    15A    -11.296152
      16A    -11.291086    17A    -11.249639    18A     -1.440459
      19A     -1.399426    20A     -1.380425    21A     -1.371875
      22A     -1.346045    23A     -1.307511    24A     -1.275848
      25A     -1.183398    26A     -1.083560    27A     -1.062059
      28A     -1.021445    29A     -0.932864    30A     -0.911196
      31A     -0.877103    32A     -0.833668    33A     -0.814374
      34A     -0.767840    35A     -0.754916    36A     -0.736599
      37A     -0.721437    38A     -0.700833    39A     -0.699269
      40A     -0.686932    41A     -0.671597    42A     -0.656823
      43A     -0.651321    44A     -0.640849    45A     -0.621449
      46A     -0.617360    47A     -0.607957    48A     -0.593973
      49A     -0.579108    50A     -0.571963    51A     -0.554091
      52A     -0.543357    53A     -0.540250    54A     -0.531317
      55A     -0.498399    56A     -0.475449    57A     -0.473669
      58A     -0.461120    59A     -0.457262    60A     -0.453234
      61A     -0.439043    62A     -0.432871    63A     -0.395994
      64A     -0.351044

  @DF-RHF Final Energy:  -886.37184857230363

   => Energetics <=

    Nuclear Repulsion Energy =           1324.3287746778912606
    One-Electron Energy =               -3846.2406361488751827
    Two-Electron Energy =                1635.5400128986805157
    Total Energy =                       -886.3718485723036338
  Basis Set: (AUG-CC-PVTZ AUX)
    Blend: AUG-CC-PVTZ-RI
    Molecular point group: c1

    Geometry (in Angstrom), charge = 0, multiplicity = 1:

       Center              X                  Y                   Z               Mass
    ------------   -----------------  -----------------  -----------------  -----------------
         O           -1.249650683988    -0.653904655712     1.030705426576    15.994914619570
         O           -1.246524683988     2.481614344288    -0.687972573424    15.994914619570
         O           -3.218079683988     1.519862344288     0.743077426576    15.994914619570
         O           -2.358578683988    -3.068073655712     0.093130426576    15.994914619570
         O            1.358980316012     2.245797344288    -0.078351573424    15.994914619570
         N            0.841854316012     0.043986344288     0.254133426576    14.003074004430
         N            3.055676316012     0.719266344288    -0.295536573424    14.003074004430
         N            4.714913316012    -0.837891655712    -0.574107573424    14.003074004430
         C           -1.291033683988     1.077193344288    -0.593886573424    12.000000000000
         C           -2.716720683988     0.653970344288    -0.259202573424    12.000000000000
         C           -0.526957683988     0.480283344288     0.598284426576    12.000000000000
         C           -2.499825183988    -0.696257555712     0.396177926576    12.000000000000
         C           -2.529893683988    -1.851629655712    -0.641099573424    12.000000000000
         C            1.218225316012    -1.262644655712     0.309464426576    12.000000000000
         C            1.754044316012     1.066198344288    -0.061212573424    12.000000000000
         C            2.509551316012    -1.610376655712     0.045185426576    12.000000000000
         C            3.410433316012    -0.551889655712    -0.260734573424    12.000000000000
         H           -0.939155683988     0.590167344288    -1.516700573424     1.007825032230
         H           -3.359238483988     0.679365844288    -1.151544073424     1.007825032230
         H           -0.441839683988     1.220643344288     1.402188426576     1.007825032230
         H           -3.283506683988    -0.909970655712     1.128973426576     1.007825032230
         H           -1.714857683988    -1.701541655712    -1.371273573424     1.007825032230
         H           -3.487110683988    -1.835240655712    -1.185944573424     1.007825032230
         H           -0.299074683988     2.711942344288    -0.526809573424     1.007825032230
         H           -2.849105683988     2.398506344288     0.506853426576     1.007825032230
         H            0.432761316012    -1.964673655712     0.567258426576     1.007825032230
         H           -2.435423683988    -3.799668655712    -0.545042573424     1.007825032230
         H            2.827562316012    -2.646634655712     0.072112426576     1.007825032230
         H            5.123630316012    -1.672097655712    -0.164223573424     1.007825032230
         H            5.318264316012    -0.021290655712    -0.570103573424     1.007825032230

  Basis Set: AUG-CC-PVTZ
    Blend: AUG-CC-PVTZ
  Basis Set: (AUG-CC-PVTZ AUX)
    Blend: AUG-CC-PVTZ-JKFIT
	 Reference Energy          =    -886.3718485723036338 [Eh]
	 Singles Energy            =      -0.0000000000000000 [Eh]
	 Same-Spin Energy          =      -0.9010402048126480 [Eh]
	 Opposite-Spin Energy      =      -2.7143918303739012 [Eh]
	 Correlation Energy        =      -3.6154320351865490 [Eh]
	 Total Energy              =    -889.9872806074902201 [Eh]

	 ================> DF-SCS-MP2 Energies <==================
	-----------------------------------------------------------
	 SCS Same-Spin Scale       =       0.3333333333333333 [-]
	 SCS Opposite-Spin Scale   =       1.2000000000000000 [-]
	 SCS Same-Spin Energy      =      -0.3003467349375493 [Eh]
	 SCS Opposite-Spin Energy  =      -3.2572701964486814 [Eh]
	 SCS Correlation Energy    =      -3.5576169313862307 [Eh]
	 SCS Total Energy          =    -889.9294655036898121 [Eh]
	-----------------------------------------------------------

  Dipole Moment: [D]
     X:     1.8952      Y:    -5.8631      Z:    -1.7518     Total:     6.4060

*** Psi4 exiting successfully. Buy a developer a beer!
