                               Psi4 1.4a3.dev225

  ==> Input File <==

--------------------------------------------------------------------------
#psi4
#
memory 32 gb

molecule  {
0 1
  O       -1.3191770     0.6538360    -1.0992360
  O       -1.5735610    -2.4640850     0.5135810
  O       -3.5606630    -1.0699430    -0.4600060
  O       -1.4399290     3.1254620     0.1265180
  O        1.1065530    -2.3833650     0.0076020
  N        0.7686360    -0.1579440    -0.3706350
  N        2.9363770    -0.9938720     0.1460080
  N        4.7058880     0.4431110     0.3611260
  C       -1.3768610    -1.0680440     0.5552780
  C       -2.7379840    -0.3746360     0.4578480
  C       -0.6377490    -0.5042940    -0.6790150
  C       -2.3707440     0.9655450    -0.1585060
  C       -1.8992030     1.9895750     0.8571380
  C        1.2309690     1.1190800    -0.4442230
  C        1.6104480    -1.2470590    -0.0585760
  C        2.5474650     1.3753690    -0.1998620
  C        3.3969642     0.2993488     0.0783809
  H       -0.8441360    -0.7686950     1.4698480
  H       -3.2257400    -0.2778790     1.4400230
  H       -0.6227070    -1.2428120    -1.4883720
  H       -3.1941750     1.3785730    -0.7472070
  H       -1.0952130     1.5703990     1.4802000
  H       -2.7410530     2.2466610     1.5166010
  H       -0.6710550    -2.8260740     0.3542250
  H       -3.3063470    -2.0105220    -0.3629290
  H        0.4929290     1.8778260    -0.6840360
  H       -1.2098800     3.8154810     0.7720340
  H        2.9334840     2.3875570    -0.2389120
  H        5.1589650     1.2712730    -0.0008400
  H        5.2635310    -0.4031270     0.3606700
units angstrom
no_reorient  #important for SAPT in psi4, default
symmetry c1  #important for SAPT in psi4, default
}

set PROPERTIES_ORIGIN ["COM"]
properties('MP2/aug-cc-pvtz', properties = ['dipole'])
--------------------------------------------------------------------------

    Molecular point group: c1
  Charge       = 0
  Multiplicity = 1
  Basis Set: AUG-CC-PVTZ
    Blend: AUG-CC-PVTZ
  Basis Set: (AUG-CC-PVTZ AUX)
    Blend: AUG-CC-PVTZ-JKFIT

    Orbital Energies [Eh]
    ---------------------

    Doubly Occupied:

       1A    -20.587162     2A    -20.581341     3A    -20.558273
       4A    -20.556064     5A    -20.514286     6A    -15.633656
       7A    -15.604796     8A    -15.548571     9A    -11.380350
      10A    -11.359123    11A    -11.339159    12A    -11.329454
      13A    -11.303749    14A    -11.297880    15A    -11.296449
      16A    -11.293192    17A    -11.245717    18A     -1.428736
      19A     -1.390478    20A     -1.382441    21A     -1.375100
      22A     -1.345728    23A     -1.301959    24A     -1.273893
      25A     -1.171832    26A     -1.082473    27A     -1.067895
      28A     -1.018260    29A     -0.937697    30A     -0.908888
      31A     -0.871977    32A     -0.829931    33A     -0.812442
      34A     -0.768422    35A     -0.750609    36A     -0.734720
      37A     -0.725458    38A     -0.708609    39A     -0.704388
      40A     -0.683052    41A     -0.676247    42A     -0.651653
      43A     -0.648029    44A     -0.631340    45A     -0.620150
      46A     -0.616852    47A     -0.609294    48A     -0.589314
      49A     -0.576867    50A     -0.565358    51A     -0.555763
      52A     -0.547765    53A     -0.536649    54A     -0.532459
      55A     -0.494298    56A     -0.480906    57A     -0.473463
      58A     -0.462915    59A     -0.452735    60A     -0.451979
      61A     -0.441896    62A     -0.426429    63A     -0.385341
      64A     -0.349003

  @DF-RHF Final Energy:  -886.36916834554052

   => Energetics <=

    Nuclear Repulsion Energy =           1334.1005790681922463
    One-Electron Energy =               -3865.9776585858944600
    Two-Electron Energy =                1645.5079111721618119
    Total Energy =                       -886.3691683455406292
  Basis Set: (AUG-CC-PVTZ AUX)
    Blend: AUG-CC-PVTZ-RI
    Molecular point group: c1

    Geometry (in Angstrom), charge = 0, multiplicity = 1:

       Center              X                  Y                   Z               Mass
    ------------   -----------------  -----------------  -----------------  -----------------
         O           -1.332747780985     0.680125084078    -1.083334345414    15.994914619570
         O           -1.587131780985    -2.437795915922     0.529482654586    15.994914619570
         O           -3.574233780985    -1.043653915922    -0.444104345414    15.994914619570
         O           -1.453499780985     3.151751084078     0.142419654586    15.994914619570
         O            1.092982219015    -2.357075915922     0.023503654586    15.994914619570
         N            0.755065219015    -0.131654915922    -0.354733345414    14.003074004430
         N            2.922806219015    -0.967582915922     0.161909654586    14.003074004430
         N            4.692317219015     0.469400084078     0.377027654586    14.003074004430
         C           -1.390431780985    -1.041754915922     0.571179654586    12.000000000000
         C           -2.751554780985    -0.348346915922     0.473749654586    12.000000000000
         C           -0.651319780985    -0.478004915922    -0.663113345414    12.000000000000
         C           -2.384314780985     0.991834084078    -0.142604345414    12.000000000000
         C           -1.912773780985     2.015864084078     0.873039654586    12.000000000000
         C            1.217398219015     1.145369084078    -0.428321345414    12.000000000000
         C            1.596877219015    -1.220769915922    -0.042674345414    12.000000000000
         C            2.533894219015     1.401658084078    -0.183960345414    12.000000000000
         C            3.383393419015     0.325637884078     0.094282554586    12.000000000000
         H           -0.857706780985    -0.742405915922     1.485749654586     1.007825032230
         H           -3.239310780985    -0.251589915922     1.455924654586     1.007825032230
         H           -0.636277780985    -1.216522915922    -1.472470345414     1.007825032230
         H           -3.207745780985     1.404862084078    -0.731305345414     1.007825032230
         H           -1.108783780985     1.596688084078     1.496101654586     1.007825032230
         H           -2.754623780985     2.272950084078     1.532502654586     1.007825032230
         H           -0.684625780985    -2.799784915922     0.370126654586     1.007825032230
         H           -3.319917780985    -1.984232915922    -0.347027345414     1.007825032230
         H            0.479358219015     1.904115084078    -0.668134345414     1.007825032230
         H           -1.223450780985     3.841770084078     0.787935654586     1.007825032230
         H            2.919913219015     2.413846084078    -0.223010345414     1.007825032230
         H            5.145394219015     1.297562084078     0.015061654586     1.007825032230
         H            5.249960219015    -0.376837915922     0.376571654586     1.007825032230

  Basis Set: AUG-CC-PVTZ
    Blend: AUG-CC-PVTZ
  Basis Set: (AUG-CC-PVTZ AUX)
    Blend: AUG-CC-PVTZ-JKFIT
	 Reference Energy          =    -886.3691683455405155 [Eh]
	 Singles Energy            =      -0.0000000000000000 [Eh]
	 Same-Spin Energy          =      -0.9025660223307316 [Eh]
	 Opposite-Spin Energy      =      -2.7168499383021669 [Eh]
	 Correlation Energy        =      -3.6194159606328986 [Eh]
	 Total Energy              =    -889.9885843061733794 [Eh]

	 ================> DF-SCS-MP2 Energies <==================
	-----------------------------------------------------------
	 SCS Same-Spin Scale       =       0.3333333333333333 [-]
	 SCS Opposite-Spin Scale   =       1.2000000000000000 [-]
	 SCS Same-Spin Energy      =      -0.3008553407769105 [Eh]
	 SCS Opposite-Spin Energy  =      -3.2602199259626001 [Eh]
	 SCS Correlation Energy    =      -3.5610752667395107 [Eh]
	 SCS Total Energy          =    -889.9302436122800373 [Eh]
	-----------------------------------------------------------

  Dipole Moment: [D]
     X:     2.9024      Y:     6.0230      Z:     1.9570     Total:     6.9664

*** Psi4 exiting successfully. Buy a developer a beer!
