                               Psi4 1.3.2 release

  ==> Input File <==

--------------------------------------------------------------------------
#psi4
#
memory 32 gb

molecule  {
0 1
  O       -1.2481010    -0.6526680     1.0325150
  O       -1.2449750     2.4828510    -0.6861630
  O       -3.2165300     1.5210990     0.7448870
  O       -2.3570290    -3.0668370     0.0949400
  O        1.3605300     2.2470340    -0.0765420
  N        0.8434040     0.0452230     0.2559430
  N        3.0572260     0.7205030    -0.2937270
  N        4.7164630    -0.8366550    -0.5722980
  C       -1.2894840     1.0784300    -0.5920770
  C       -2.7151710     0.6552070    -0.2573930
  C       -0.5254080     0.4815200     0.6000940
  C       -2.5292560    -0.7168860     0.3610560
  C       -2.5283440    -1.8503930    -0.6392900
  C        1.1921186    -1.1653945     0.3072082
  C        1.7555940     1.0674350    -0.0594030
  C        2.5111010    -1.6091400     0.0469950
  C        3.4119830    -0.5506530    -0.2589250
  H       -0.9376060     0.5914040    -1.5148910
  H       -3.3625820     0.6426650    -1.1464650
  H       -0.4402900     1.2218800     1.4039980
  H       -3.2819570    -0.9087340     1.1307830
  H       -1.7133080    -1.7003050    -1.3694640
  H       -3.4855610    -1.8340040    -1.1841350
  H       -0.2975250     2.7131790    -0.5250000
  H       -2.8475560     2.3997430     0.5086630
  H        0.4343110    -1.9634370     0.5690680
  H       -2.4338740    -3.7984320    -0.5432330
  H        2.8291120    -2.6453980     0.0739220
  H        5.1251800    -1.6708610    -0.1624140
  H        5.3198140    -0.0200540    -0.5682940
units angstrom
no_reorient  #important for SAPT in psi4, default
symmetry c1  #important for SAPT in psi4, default
}

set PROPERTIES_ORIGIN ["COM"]
properties('MP2/aug-cc-pvtz', properties = ['dipole'])
--------------------------------------------------------------------------

    Molecular point group: c1
  Charge       = 0
  Multiplicity = 1
  Basis Set: AUG-CC-PVTZ
    Blend: AUG-CC-PVTZ
  Basis Set: (AUG-CC-PVTZ AUX)
    Blend: AUG-CC-PVTZ-JKFIT

    Orbital Energies [Eh]
    ---------------------

    Doubly Occupied:

       1A    -20.586067     2A    -20.583713     3A    -20.561333
       4A    -20.561114     5A    -20.525702     6A    -15.648012
       7A    -15.592660     8A    -15.549967     9A    -11.391576
      10A    -11.349484    11A    -11.348694    12A    -11.329638
      13A    -11.303365    14A    -11.302256    15A    -11.300224
      16A    -11.296774    17A    -11.241883    18A     -1.438866
      19A     -1.403919    20A     -1.384130    21A     -1.375287
      22A     -1.350044    23A     -1.322681    24A     -1.282586
      25A     -1.180771    26A     -1.072260    27A     -1.071435
      28A     -1.023669    29A     -0.941635    30A     -0.920131
      31A     -0.877187    32A     -0.835733    33A     -0.814315
      34A     -0.768003    35A     -0.762180    36A     -0.742350
      37A     -0.716563    38A     -0.704208    39A     -0.701862
      40A     -0.681829    41A     -0.674943    42A     -0.660806
      43A     -0.653685    44A     -0.642532    45A     -0.621571
      46A     -0.616069    47A     -0.603840    48A     -0.593964
      49A     -0.574626    50A     -0.569053    51A     -0.554254
      52A     -0.548236    53A     -0.540645    54A     -0.532751
      55A     -0.508847    56A     -0.480869    57A     -0.477939
      58A     -0.465944    59A     -0.461966    60A     -0.456685
      61A     -0.442583    62A     -0.432207    63A     -0.395241
      64A     -0.337365

  @DF-RHF Final Energy:  -886.36031780769213

   => Energetics <=

    Nuclear Repulsion Energy =           1325.8668319126004462
    One-Electron Energy =               -3849.0728499423412359
    Two-Electron Energy =                1636.8457002220486629
    Total Energy =                       -886.3603178076921267
  Basis Set: (AUG-CC-PVTZ AUX)
    Blend: AUG-CC-PVTZ-RI
    Molecular point group: c1

    Geometry (in Angstrom), charge = 0, multiplicity = 1:

       Center              X                  Y                   Z               Mass
    ------------   -----------------  -----------------  -----------------  -----------------
         O           -1.246735766275    -0.657407729182     1.032715717091    15.994914619570
         O           -1.243609766275     2.478111270818    -0.685962282909    15.994914619570
         O           -3.215164766275     1.516359270818     0.745087717091    15.994914619570
         O           -2.355663766275    -3.071576729182     0.095140717091    15.994914619570
         O            1.361895233725     2.242294270818    -0.076341282909    15.994914619570
         N            0.844769233725     0.040483270818     0.256143717091    14.003074004430
         N            3.058591233725     0.715763270818    -0.293526282909    14.003074004430
         N            4.717828233725    -0.841394729182    -0.572097282909    14.003074004430
         C           -1.288118766275     1.073690270818    -0.591876282909    12.000000000000
         C           -2.713805766275     0.650467270818    -0.257192282909    12.000000000000
         C           -0.524042766275     0.476780270818     0.600294717091    12.000000000000
         C           -2.527890766275    -0.721625729182     0.361256717091    12.000000000000
         C           -2.526978766275    -1.855132729182    -0.639089282909    12.000000000000
         C            1.193483833725    -1.170134229182     0.307408917091    12.000000000000
         C            1.756959233725     1.062695270818    -0.059202282909    12.000000000000
         C            2.512466233725    -1.613879729182     0.047195717091    12.000000000000
         C            3.413348233725    -0.555392729182    -0.258724282909    12.000000000000
         H           -0.936240766275     0.586664270818    -1.514690282909     1.007825032230
         H           -3.361216766275     0.637925270818    -1.146264282909     1.007825032230
         H           -0.438924766275     1.217140270818     1.404198717091     1.007825032230
         H           -3.280591766275    -0.913473729182     1.130983717091     1.007825032230
         H           -1.711942766275    -1.705044729182    -1.369263282909     1.007825032230
         H           -3.484195766275    -1.838743729182    -1.183934282909     1.007825032230
         H           -0.296159766275     2.708439270818    -0.524799282909     1.007825032230
         H           -2.846190766275     2.395003270818     0.508863717091     1.007825032230
         H            0.435676233725    -1.968176729182     0.569268717091     1.007825032230
         H           -2.432508766275    -3.803171729182    -0.543032282909     1.007825032230
         H            2.830477233725    -2.650137729182     0.074122717091     1.007825032230
         H            5.126545233725    -1.675600729182    -0.162213282909     1.007825032230
         H            5.321179233725    -0.024793729182    -0.568093282909     1.007825032230

  Basis Set: AUG-CC-PVTZ
    Blend: AUG-CC-PVTZ
  Basis Set: (AUG-CC-PVTZ AUX)
    Blend: AUG-CC-PVTZ-JKFIT
	 Reference Energy          =    -886.3603178076921267 [Eh]
	 Singles Energy            =      -0.0000000000000000 [Eh]
	 Same-Spin Energy          =      -0.9020929031834797 [Eh]
	 Opposite-Spin Energy      =      -2.7148028846487291 [Eh]
	 Correlation Energy        =      -3.6168957878322088 [Eh]
	 Total Energy              =    -889.9772135955242902 [Eh]

	 ================> DF-SCS-MP2 Energies <==================
	-----------------------------------------------------------
	 SCS Same-Spin Scale       =       0.3333333333333333 [-]
	 SCS Opposite-Spin Scale   =       1.2000000000000000 [-]
	 SCS Same-Spin Energy      =      -0.3006976343944932 [Eh]
	 SCS Opposite-Spin Energy  =      -3.2577634615784747 [Eh]
	 SCS Correlation Energy    =      -3.5584610959729681 [Eh]
	 SCS Total Energy          =    -889.9187789036650429 [Eh]
	-----------------------------------------------------------

  Dipole Moment: [D]
     X:     1.1851      Y:    -5.7090      Z:    -1.7635     Total:     6.0916

*** Psi4 exiting successfully. Buy a developer a beer!
