                               Psi4 1.4a3.dev225

  ==> Input File <==

--------------------------------------------------------------------------
#psi4
#
memory 32 gb

molecule  {
0 1
  O       -1.3191770     0.6538360    -1.0992360
  O       -1.5735610    -2.4640850     0.5135810
  O       -3.5606630    -1.0699430    -0.4600060
  O       -1.4399290     3.1254620     0.1265180
  O        1.1065530    -2.3833650     0.0076020
  N        0.7686360    -0.1579440    -0.3706350
  N        2.9363770    -0.9938720     0.1460080
  N        4.7058880     0.4431110     0.3611260
  C       -1.3768610    -1.0680440     0.5552780
  C       -2.7379840    -0.3746360     0.4578480
  C       -0.6377490    -0.5042940    -0.6790150
  C       -2.3707440     0.9655450    -0.1585060
  C       -1.8992030     1.9895750     0.8571380
  C        1.2309690     1.1190800    -0.4442230
  C        1.6104480    -1.2470590    -0.0585760
  C        2.5474650     1.3753690    -0.1998620
  C        3.3802090     0.2523040     0.0808410
  H       -0.8441360    -0.7686950     1.4698480
  H       -3.2257400    -0.2778790     1.4400230
  H       -0.6229815    -1.2293325    -1.4735995
  H       -3.1941750     1.3785730    -0.7472070
  H       -1.0952130     1.5703990     1.4802000
  H       -2.7410530     2.2466610     1.5166010
  H       -0.6710550    -2.8260740     0.3542250
  H       -3.3063470    -2.0105220    -0.3629290
  H        0.4929290     1.8778260    -0.6840360
  H       -1.2098800     3.8154810     0.7720340
  H        2.9334840     2.3875570    -0.2389120
  H        5.1589650     1.2712730    -0.0008400
  H        5.2635310    -0.4031270     0.3606700
units angstrom
no_reorient  #important for SAPT in psi4, default
symmetry c1  #important for SAPT in psi4, default
}

set PROPERTIES_ORIGIN ["COM"]
properties('MP2/aug-cc-pvtz', properties = ['dipole'])
--------------------------------------------------------------------------

    Molecular point group: c1
  Charge       = 0
  Multiplicity = 1
  Basis Set: AUG-CC-PVTZ
    Blend: AUG-CC-PVTZ
  Basis Set: (AUG-CC-PVTZ AUX)
    Blend: AUG-CC-PVTZ-JKFIT

    Orbital Energies [Eh]
    ---------------------

    Doubly Occupied:

       1A    -20.586681     2A    -20.581214     3A    -20.559410
       4A    -20.556456     5A    -20.519734     6A    -15.632800
       7A    -15.599642     8A    -15.551731     9A    -11.385969
      10A    -11.358036    11A    -11.337425    12A    -11.325064
      13A    -11.303498    14A    -11.297853    15A    -11.296829
      16A    -11.293452    17A    -11.246495    18A     -1.429227
      19A     -1.394084    20A     -1.383010    21A     -1.375501
      22A     -1.346578    23A     -1.303631    24A     -1.271295
      25A     -1.181192    26A     -1.079523    27A     -1.068001
      28A     -1.017661    29A     -0.937043    30A     -0.906601
      31A     -0.876794    32A     -0.831314    33A     -0.812332
      34A     -0.766568    35A     -0.750351    36A     -0.736182
      37A     -0.721980    38A     -0.707925    39A     -0.703386
      40A     -0.685166    41A     -0.675321    42A     -0.654173
      43A     -0.649058    44A     -0.633564    45A     -0.620248
      46A     -0.615201    47A     -0.607818    48A     -0.593151
      49A     -0.577070    50A     -0.565500    51A     -0.555798
      52A     -0.548582    53A     -0.536633    54A     -0.531612
      55A     -0.495693    56A     -0.480804    57A     -0.473665
      58A     -0.463542    59A     -0.458019    60A     -0.453004
      61A     -0.442241    62A     -0.430292    63A     -0.392358
      64A     -0.348234

  @DF-RHF Final Energy:  -886.37442810594052

   => Energetics <=

    Nuclear Repulsion Energy =           1334.7101493425932404
    One-Electron Energy =               -3867.1307196090606340
    Two-Electron Energy =                1646.0461421605270971
    Total Energy =                       -886.3744281059405239
  Basis Set: (AUG-CC-PVTZ AUX)
    Blend: AUG-CC-PVTZ-RI
    Molecular point group: c1

    Geometry (in Angstrom), charge = 0, multiplicity = 1:

       Center              X                  Y                   Z               Mass
    ------------   -----------------  -----------------  -----------------  -----------------
         O           -1.331919516728     0.682391581158    -1.083517035420    15.994914619570
         O           -1.586303516728    -2.435529418842     0.529299964580    15.994914619570
         O           -3.573405516728    -1.041387418842    -0.444287035420    15.994914619570
         O           -1.452671516728     3.154017581158     0.142236964580    15.994914619570
         O            1.093810483272    -2.354809418842     0.023320964580    15.994914619570
         N            0.755893483272    -0.129388418842    -0.354916035420    14.003074004430
         N            2.923634483272    -0.965316418842     0.161726964580    14.003074004430
         N            4.693145483272     0.471666581158     0.376844964580    14.003074004430
         C           -1.389603516728    -1.039488418842     0.570996964580    12.000000000000
         C           -2.750726516728    -0.346080418842     0.473566964580    12.000000000000
         C           -0.650491516728    -0.475738418842    -0.663296035420    12.000000000000
         C           -2.383486516728     0.994100581158    -0.142787035420    12.000000000000
         C           -1.911945516728     2.018130581158     0.872856964580    12.000000000000
         C            1.218226483272     1.147635581158    -0.428504035420    12.000000000000
         C            1.597705483272    -1.218503418842    -0.042857035420    12.000000000000
         C            2.534722483272     1.403924581158    -0.184143035420    12.000000000000
         C            3.367466483272     0.280859581158     0.096559964580    12.000000000000
         H           -0.856878516728    -0.740139418842     1.485566964580     1.007825032230
         H           -3.238482516728    -0.249323418842     1.455741964580     1.007825032230
         H           -0.635724016728    -1.200776918842    -1.457880535420     1.007825032230
         H           -3.206917516728     1.407128581158    -0.731488035420     1.007825032230
         H           -1.107955516728     1.598954581158     1.495918964580     1.007825032230
         H           -2.753795516728     2.275216581158     1.532319964580     1.007825032230
         H           -0.683797516728    -2.797518418842     0.369943964580     1.007825032230
         H           -3.319089516728    -1.981966418842    -0.347210035420     1.007825032230
         H            0.480186483272     1.906381581158    -0.668317035420     1.007825032230
         H           -1.222622516728     3.844036581158     0.787752964580     1.007825032230
         H            2.920741483272     2.416112581158    -0.223193035420     1.007825032230
         H            5.146222483272     1.299828581158     0.014878964580     1.007825032230
         H            5.250788483272    -0.374571418842     0.376388964580     1.007825032230

  Basis Set: AUG-CC-PVTZ
    Blend: AUG-CC-PVTZ
  Basis Set: (AUG-CC-PVTZ AUX)
    Blend: AUG-CC-PVTZ-JKFIT
	 Reference Energy          =    -886.3744281059405239 [Eh]
	 Singles Energy            =      -0.0000000000000000 [Eh]
	 Same-Spin Energy          =      -0.9017287453766408 [Eh]
	 Opposite-Spin Energy      =      -2.7156918974286901 [Eh]
	 Correlation Energy        =      -3.6174206428053308 [Eh]
	 Total Energy              =    -889.9918487487458378 [Eh]

	 ================> DF-SCS-MP2 Energies <==================
	-----------------------------------------------------------
	 SCS Same-Spin Scale       =       0.3333333333333333 [-]
	 SCS Opposite-Spin Scale   =       1.2000000000000000 [-]
	 SCS Same-Spin Energy      =      -0.3005762484588803 [Eh]
	 SCS Opposite-Spin Energy  =      -3.2588302769144279 [Eh]
	 SCS Correlation Energy    =      -3.5594065253733080 [Eh]
	 SCS Total Energy          =    -889.9338346313138572 [Eh]
	-----------------------------------------------------------

  Dipole Moment: [D]
     X:     2.7363      Y:     5.7964      Z:     1.9459     Total:     6.6986

*** Psi4 exiting successfully. Buy a developer a beer!
