                               Psi4 1.4a3.dev225

  ==> Input File <==

--------------------------------------------------------------------------
#psi4
#
memory 32 gb

molecule  {
0 1
  O       -1.3191770     0.6538360    -1.0992360
  O       -1.5735610    -2.4640850     0.5135810
  O       -3.5606630    -1.0699430    -0.4600060
  O       -1.4399290     3.1254620     0.1265180
  O        1.1065530    -2.3833650     0.0076020
  N        0.7686360    -0.1579440    -0.3706350
  N        2.9363770    -0.9938720     0.1460080
  N        4.7058880     0.4431110     0.3611260
  C       -1.3768610    -1.0680440     0.5552780
  C       -2.7379840    -0.3746360     0.4578480
  C       -0.6377490    -0.5042940    -0.6790150
  C       -2.3707440     0.9655450    -0.1585060
  C       -1.8992030     1.9895750     0.8571380
  C        1.2309690     1.1190800    -0.4442230
  C        1.6104480    -1.2470590    -0.0585760
  C        2.5474650     1.3753690    -0.1998620
  C        3.3802090     0.2523040     0.0808410
  H       -0.8441360    -0.7686950     1.4698480
  H       -3.2257400    -0.2778790     1.4400230
  H       -0.6227070    -1.2428120    -1.4883720
  H       -3.1941750     1.3785730    -0.7472070
  H       -1.0952130     1.5703990     1.4802000
  H       -2.7410530     2.2466610     1.5166010
  H       -0.7168504    -2.8077058     0.3623111
  H       -3.3063470    -2.0105220    -0.3629290
  H        0.4929290     1.8778260    -0.6840360
  H       -1.2098800     3.8154810     0.7720340
  H        2.9334840     2.3875570    -0.2389120
  H        5.1589650     1.2712730    -0.0008400
  H        5.2635310    -0.4031270     0.3606700
units angstrom
no_reorient  #important for SAPT in psi4, default
symmetry c1  #important for SAPT in psi4, default
}

set PROPERTIES_ORIGIN ["COM"]
properties('MP2/aug-cc-pvtz', properties = ['dipole'])
--------------------------------------------------------------------------

    Molecular point group: c1
  Charge       = 0
  Multiplicity = 1
  Basis Set: AUG-CC-PVTZ
    Blend: AUG-CC-PVTZ
  Basis Set: (AUG-CC-PVTZ AUX)
    Blend: AUG-CC-PVTZ-JKFIT

    Orbital Energies [Eh]
    ---------------------

    Doubly Occupied:

       1A    -20.586964     2A    -20.581810     3A    -20.558477
       4A    -20.557364     5A    -20.517912     6A    -15.632436
       7A    -15.599149     8A    -15.550903     9A    -11.384524
      10A    -11.357400    11A    -11.340113    12A    -11.324715
      13A    -11.303918    14A    -11.298465    15A    -11.298373
      16A    -11.294407    17A    -11.246080    18A     -1.430156
      19A     -1.393308    20A     -1.387100    21A     -1.379129
      22A     -1.351915    23A     -1.302697    24A     -1.270783
      25A     -1.180515    26A     -1.079111    27A     -1.069221
      28A     -1.019084    29A     -0.936816    30A     -0.906263
      31A     -0.876811    32A     -0.832668    33A     -0.812958
      34A     -0.765941    35A     -0.750786    36A     -0.739888
      37A     -0.721791    38A     -0.709738    39A     -0.704405
      40A     -0.684800    41A     -0.676665    42A     -0.653535
      43A     -0.648485    44A     -0.633586    45A     -0.622232
      46A     -0.615209    47A     -0.608084    48A     -0.593405
      49A     -0.578280    50A     -0.565618    51A     -0.557751
      52A     -0.549363    53A     -0.537956    54A     -0.530864
      55A     -0.495028    56A     -0.481701    57A     -0.475253
      58A     -0.464113    59A     -0.456913    60A     -0.454878
      61A     -0.443288    62A     -0.429426    63A     -0.391557
      64A     -0.347523

  @DF-RHF Final Energy:  -886.37507356729645

   => Energetics <=

    Nuclear Repulsion Energy =           1334.8202223635983046
    One-Electron Energy =               -3867.2913801568961389
    Two-Electron Energy =                1646.0960842260012669
    Total Energy =                       -886.3750735672963401
  Basis Set: (AUG-CC-PVTZ AUX)
    Blend: AUG-CC-PVTZ-RI
    Molecular point group: c1

    Geometry (in Angstrom), charge = 0, multiplicity = 1:

       Center              X                  Y                   Z               Mass
    ------------   -----------------  -----------------  -----------------  -----------------
         O           -1.331730788488     0.682371312759    -1.083489313813    15.994914619570
         O           -1.586114788488    -2.435549687241     0.529327686187    15.994914619570
         O           -3.573216788488    -1.041407687241    -0.444259313813    15.994914619570
         O           -1.452482788488     3.153997312759     0.142264686187    15.994914619570
         O            1.093999211512    -2.354829687241     0.023348686187    15.994914619570
         N            0.756082211512    -0.129408687241    -0.354888313813    14.003074004430
         N            2.923823211512    -0.965336687241     0.161754686187    14.003074004430
         N            4.693334211512     0.471646312759     0.376872686187    14.003074004430
         C           -1.389414788488    -1.039508687241     0.571024686187    12.000000000000
         C           -2.750537788488    -0.346100687241     0.473594686187    12.000000000000
         C           -0.650302788488    -0.475758687241    -0.663268313813    12.000000000000
         C           -2.383297788488     0.994080312759    -0.142759313813    12.000000000000
         C           -1.911756788488     2.018110312759     0.872884686187    12.000000000000
         C            1.218415211512     1.147615312759    -0.428476313813    12.000000000000
         C            1.597894211512    -1.218523687241    -0.042829313813    12.000000000000
         C            2.534911211512     1.403904312759    -0.184115313813    12.000000000000
         C            3.367655211512     0.280839312759     0.096587686187    12.000000000000
         H           -0.856689788488    -0.740159687241     1.485594686187     1.007825032230
         H           -3.238293788488    -0.249343687241     1.455769686187     1.007825032230
         H           -0.635260788488    -1.214276687241    -1.472625313813     1.007825032230
         H           -3.206728788488     1.407108312759    -0.731460313813     1.007825032230
         H           -1.107766788488     1.598934312759     1.495946686187     1.007825032230
         H           -2.753606788488     2.275196312759     1.532347686187     1.007825032230
         H           -0.729404188488    -2.779170487241     0.378057786187     1.007825032230
         H           -3.318900788488    -1.981986687241    -0.347182313813     1.007825032230
         H            0.480375211512     1.906361312759    -0.668289313813     1.007825032230
         H           -1.222433788488     3.844016312759     0.787780686187     1.007825032230
         H            2.920930211512     2.416092312759    -0.223165313813     1.007825032230
         H            5.146411211512     1.299808312759     0.014906686187     1.007825032230
         H            5.250977211512    -0.374591687241     0.376416686187     1.007825032230

  Basis Set: AUG-CC-PVTZ
    Blend: AUG-CC-PVTZ
  Basis Set: (AUG-CC-PVTZ AUX)
    Blend: AUG-CC-PVTZ-JKFIT
	 Reference Energy          =    -886.3750735672964538 [Eh]
	 Singles Energy            =      -0.0000000000000000 [Eh]
	 Same-Spin Energy          =      -0.9010087800846963 [Eh]
	 Opposite-Spin Energy      =      -2.7144519178590087 [Eh]
	 Correlation Energy        =      -3.6154606979437052 [Eh]
	 Total Energy              =    -889.9905342652401714 [Eh]

	 ================> DF-SCS-MP2 Energies <==================
	-----------------------------------------------------------
	 SCS Same-Spin Scale       =       0.3333333333333333 [-]
	 SCS Opposite-Spin Scale   =       1.2000000000000000 [-]
	 SCS Same-Spin Energy      =      -0.3003362600282321 [Eh]
	 SCS Opposite-Spin Energy  =      -3.2573423014308105 [Eh]
	 SCS Correlation Energy    =      -3.5576785614590425 [Eh]
	 SCS Total Energy          =    -889.9327521287555101 [Eh]
	-----------------------------------------------------------

  Dipole Moment: [D]
     X:     2.6001      Y:     5.8044      Z:     1.9688     Total:     6.6579

*** Psi4 exiting successfully. Buy a developer a beer!
