                               Psi4 1.3.2 release

  ==> Input File <==

--------------------------------------------------------------------------
#psi4
#
memory 32 gb

molecule  {
0 1
  O       -1.2481010    -0.6526680     1.0325150
  O       -1.2449750     2.4828510    -0.6861630
  O       -3.2165300     1.5210990     0.7448870
  O       -2.3570290    -3.0668370     0.0949400
  O        1.3605300     2.2470340    -0.0765420
  N        0.8434040     0.0452230     0.2559430
  N        2.9934876     0.7013461    -0.2750830
  N        4.7018529    -0.9061316    -0.5614784
  C       -1.2894840     1.0784300    -0.5920770
  C       -2.7151710     0.6552070    -0.2573930
  C       -0.5254080     0.4815200     0.6000940
  C       -2.5292560    -0.7168860     0.3610560
  C       -2.5283440    -1.8503930    -0.6392900
  C        1.2197750    -1.2614080     0.3112740
  C        1.7555940     1.0674350    -0.0594030
  C        2.5111010    -1.6091400     0.0469950
  C        3.4119830    -0.5506530    -0.2589250
  H       -0.9376060     0.5914040    -1.5148910
  H       -3.3625820     0.6426650    -1.1464650
  H       -0.4402900     1.2218800     1.4039980
  H       -3.2819570    -0.9087340     1.1307830
  H       -1.7133080    -1.7003050    -1.3694640
  H       -3.4855610    -1.8340040    -1.1841350
  H       -0.2975250     2.7131790    -0.5250000
  H       -2.8475560     2.3997430     0.5086630
  H        0.4343110    -1.9634370     0.5690680
  H       -2.4338740    -3.7984320    -0.5432330
  H        2.8291120    -2.6453980     0.0739220
  H        5.1251800    -1.6708610    -0.1624140
  H        5.3198140    -0.0200540    -0.5682940
units angstrom
no_reorient  #important for SAPT in psi4, default
symmetry c1  #important for SAPT in psi4, default
}

set PROPERTIES_ORIGIN ["COM"]
properties('MP2/aug-cc-pvtz', properties = ['dipole'])
--------------------------------------------------------------------------

    Molecular point group: c1
  Charge       = 0
  Multiplicity = 1
  Basis Set: AUG-CC-PVTZ
    Blend: AUG-CC-PVTZ
  Basis Set: (AUG-CC-PVTZ AUX)
    Blend: AUG-CC-PVTZ-JKFIT

    Orbital Energies [Eh]
    ---------------------

    Doubly Occupied:

       1A    -20.581336     2A    -20.579697     3A    -20.556550
       4A    -20.555368     5A    -20.515752     6A    -15.633475
       7A    -15.606750     8A    -15.548940     9A    -11.381717
      10A    -11.364877    11A    -11.339085    12A    -11.326379
      13A    -11.300126    14A    -11.295562    15A    -11.295012
      16A    -11.291615    17A    -11.245563    18A     -1.428005
      19A     -1.397065    20A     -1.378814    21A     -1.371584
      22A     -1.344970    23A     -1.307317    24A     -1.272493
      25A     -1.197882    26A     -1.080960    27A     -1.066336
      28A     -1.020758    29A     -0.938123    30A     -0.905779
      31A     -0.887904    32A     -0.833343    33A     -0.810165
      34A     -0.766208    35A     -0.753749    36A     -0.735643
      37A     -0.733097    38A     -0.703464    39A     -0.697252
      40A     -0.684587    41A     -0.668898    42A     -0.656919
      43A     -0.649750    44A     -0.638790    45A     -0.617731
      46A     -0.613789    47A     -0.602174    48A     -0.594487
      49A     -0.574573    50A     -0.568908    51A     -0.552729
      52A     -0.545091    53A     -0.536636    54A     -0.531537
      55A     -0.497047    56A     -0.476314    57A     -0.472953
      58A     -0.460685    59A     -0.454625    60A     -0.451215
      61A     -0.438286    62A     -0.429232    63A     -0.399956
      64A     -0.348924

  @DF-RHF Final Energy:  -886.36272883617039

   => Energetics <=

    Nuclear Repulsion Energy =           1325.6968037347503468
    One-Electron Energy =               -3849.0899712658651879
    Two-Electron Energy =                1637.0304386949446780
    Total Energy =                       -886.3627288361703904
  Basis Set: (AUG-CC-PVTZ AUX)
    Blend: AUG-CC-PVTZ-RI
    Molecular point group: c1

    Geometry (in Angstrom), charge = 0, multiplicity = 1:

       Center              X                  Y                   Z               Mass
    ------------   -----------------  -----------------  -----------------  -----------------
         O           -1.243587725858    -0.647562208747     1.030817740731    15.994914619570
         O           -1.240461725858     2.487956791253    -0.687860259269    15.994914619570
         O           -3.212016725858     1.526204791253     0.743189740731    15.994914619570
         O           -2.352515725858    -3.061731208747     0.093242740731    15.994914619570
         O            1.365043274142     2.252139791253    -0.078239259269    15.994914619570
         N            0.847917274142     0.050328791253     0.254245740731    14.003074004430
         N            2.998000874142     0.706451891253    -0.276780259269    14.003074004430
         N            4.706366174142    -0.901025808747    -0.563175659269    14.003074004430
         C           -1.284970725858     1.083535791253    -0.593774259269    12.000000000000
         C           -2.710657725858     0.660312791253    -0.259090259269    12.000000000000
         C           -0.520894725858     0.486625791253     0.598396740731    12.000000000000
         C           -2.524742725858    -0.711780208747     0.359358740731    12.000000000000
         C           -2.523830725858    -1.845287208747    -0.640987259269    12.000000000000
         C            1.224288274142    -1.256302208747     0.309576740731    12.000000000000
         C            1.760107274142     1.072540791253    -0.061100259269    12.000000000000
         C            2.515614274142    -1.604034208747     0.045297740731    12.000000000000
         C            3.416496274142    -0.545547208747    -0.260622259269    12.000000000000
         H           -0.933092725858     0.596509791253    -1.516588259269     1.007825032230
         H           -3.358068725858     0.647770791253    -1.148162259269     1.007825032230
         H           -0.435776725858     1.226985791253     1.402300740731     1.007825032230
         H           -3.277443725858    -0.903628208747     1.129085740731     1.007825032230
         H           -1.708794725858    -1.695199208747    -1.371161259269     1.007825032230
         H           -3.481047725858    -1.828898208747    -1.185832259269     1.007825032230
         H           -0.293011725858     2.718284791253    -0.526697259269     1.007825032230
         H           -2.843042725858     2.404848791253     0.506965740731     1.007825032230
         H            0.438824274142    -1.958331208747     0.567370740731     1.007825032230
         H           -2.429360725858    -3.793326208747    -0.544930259269     1.007825032230
         H            2.833625274142    -2.640292208747     0.072224740731     1.007825032230
         H            5.129693274142    -1.665755208747    -0.164111259269     1.007825032230
         H            5.324327274142    -0.014948208747    -0.569991259269     1.007825032230

  Basis Set: AUG-CC-PVTZ
    Blend: AUG-CC-PVTZ
  Basis Set: (AUG-CC-PVTZ AUX)
    Blend: AUG-CC-PVTZ-JKFIT
	 Reference Energy          =    -886.3627288361703904 [Eh]
	 Singles Energy            =      -0.0000000000000000 [Eh]
	 Same-Spin Energy          =      -0.9018323373525019 [Eh]
	 Opposite-Spin Energy      =      -2.7146722428071737 [Eh]
	 Correlation Energy        =      -3.6165045801596758 [Eh]
	 Total Energy              =    -889.9792334163300893 [Eh]

	 ================> DF-SCS-MP2 Energies <==================
	-----------------------------------------------------------
	 SCS Same-Spin Scale       =       0.3333333333333333 [-]
	 SCS Opposite-Spin Scale   =       1.2000000000000000 [-]
	 SCS Same-Spin Energy      =      -0.3006107791175006 [Eh]
	 SCS Opposite-Spin Energy  =      -3.2576066913686081 [Eh]
	 SCS Correlation Energy    =      -3.5582174704861087 [Eh]
	 SCS Total Energy          =    -889.9209463066564467 [Eh]
	-----------------------------------------------------------

  Dipole Moment: [D]
     X:     2.0413      Y:    -5.9882      Z:    -1.8735     Total:     6.5982

*** Psi4 exiting successfully. Buy a developer a beer!
