                               Psi4 1.4a3.dev225

  ==> Input File <==

--------------------------------------------------------------------------
#psi4
#
memory 32 gb

molecule  {
0 1
  O       -1.3191770     0.6538360    -1.0992360
  O       -1.5735610    -2.4640850     0.5135810
  O       -3.5606630    -1.0699430    -0.4600060
  O       -1.4399290     3.1254620     0.1265180
  O        1.1065530    -2.3833650     0.0076020
  N        0.7686360    -0.1579440    -0.3706350
  N        2.9363770    -0.9938720     0.1460080
  N        4.7058880     0.4431110     0.3611260
  C       -1.3768610    -1.0680440     0.5552780
  C       -2.7379840    -0.3746360     0.4578480
  C       -0.6280690    -0.5207458    -0.6730455
  C       -2.3707440     0.9655450    -0.1585060
  C       -1.8992030     1.9895750     0.8571380
  C        1.2309690     1.1190800    -0.4442230
  C        1.6104480    -1.2470590    -0.0585760
  C        2.5474650     1.3753690    -0.1998620
  C        3.3802090     0.2523040     0.0808410
  H       -0.8441360    -0.7686950     1.4698480
  H       -3.2257400    -0.2778790     1.4400230
  H       -0.6227070    -1.2428120    -1.4883720
  H       -3.1941750     1.3785730    -0.7472070
  H       -1.0952130     1.5703990     1.4802000
  H       -2.7410530     2.2466610     1.5166010
  H       -0.6710550    -2.8260740     0.3542250
  H       -3.3063470    -2.0105220    -0.3629290
  H        0.4929290     1.8778260    -0.6840360
  H       -1.2098800     3.8154810     0.7720340
  H        2.9334840     2.3875570    -0.2389120
  H        5.1589650     1.2712730    -0.0008400
  H        5.2635310    -0.4031270     0.3606700
units angstrom
no_reorient  #important for SAPT in psi4, default
symmetry c1  #important for SAPT in psi4, default
}

set PROPERTIES_ORIGIN ["COM"]
properties('MP2/aug-cc-pvtz', properties = ['dipole'])
--------------------------------------------------------------------------

    Molecular point group: c1
  Charge       = 0
  Multiplicity = 1
  Basis Set: AUG-CC-PVTZ
    Blend: AUG-CC-PVTZ
  Basis Set: (AUG-CC-PVTZ AUX)
    Blend: AUG-CC-PVTZ-JKFIT

    Orbital Energies [Eh]
    ---------------------

    Doubly Occupied:

       1A    -20.586118     2A    -20.579102     3A    -20.559257
       4A    -20.556133     5A    -20.520528     6A    -15.634003
       7A    -15.600113     8A    -15.552171     9A    -11.386467
      10A    -11.358604    11A    -11.339512    12A    -11.325868
      13A    -11.302747    14A    -11.297035    15A    -11.296562
      16A    -11.293334    17A    -11.247174    18A     -1.424834
      19A     -1.394043    20A     -1.382701    21A     -1.373530
      22A     -1.346400    23A     -1.304246    24A     -1.272229
      25A     -1.181857    26A     -1.080559    27A     -1.066338
      28A     -1.017623    29A     -0.936999    30A     -0.906964
      31A     -0.877154    32A     -0.830584    33A     -0.810967
      34A     -0.766751    35A     -0.750556    36A     -0.735471
      37A     -0.721856    38A     -0.707374    39A     -0.702860
      40A     -0.685069    41A     -0.674852    42A     -0.653322
      43A     -0.648705    44A     -0.633352    45A     -0.618872
      46A     -0.615043    47A     -0.607071    48A     -0.594277
      49A     -0.575814    50A     -0.564544    51A     -0.555110
      52A     -0.548086    53A     -0.536465    54A     -0.530944
      55A     -0.496114    56A     -0.480230    57A     -0.473482
      58A     -0.462834    59A     -0.458398    60A     -0.452226
      61A     -0.443012    62A     -0.430739    63A     -0.392930
      64A     -0.349118

  @DF-RHF Final Energy:  -886.37348092414356

   => Energetics <=

    Nuclear Repulsion Energy =           1334.4959749481570270
    One-Electron Energy =               -3866.7244390120549724
    Two-Electron Energy =                1645.8549831397544949
    Total Energy =                       -886.3734809241436778
  Basis Set: (AUG-CC-PVTZ AUX)
    Blend: AUG-CC-PVTZ-RI
    Molecular point group: c1

    Geometry (in Angstrom), charge = 0, multiplicity = 1:

       Center              X                  Y                   Z               Mass
    ------------   -----------------  -----------------  -----------------  -----------------
         O           -1.332398511313     0.683259615490    -1.083750475506    15.994914619570
         O           -1.586782511313    -2.434661384510     0.529066524494    15.994914619570
         O           -3.573884511313    -1.040519384510    -0.444520475506    15.994914619570
         O           -1.453150511313     3.154885615490     0.142003524494    15.994914619570
         O            1.093331488687    -2.353941384510     0.023087524494    15.994914619570
         N            0.755414488687    -0.128520384510    -0.355149475506    14.003074004430
         N            2.923155488687    -0.964448384510     0.161493524494    14.003074004430
         N            4.692666488687     0.472534615490     0.376611524494    14.003074004430
         C           -1.390082511313    -1.038620384510     0.570763524494    12.000000000000
         C           -2.751205511313    -0.345212384510     0.473333524494    12.000000000000
         C           -0.641290511313    -0.491322184510    -0.657559975506    12.000000000000
         C           -2.383965511313     0.994968615490    -0.143020475506    12.000000000000
         C           -1.912424511313     2.018998615490     0.872623524494    12.000000000000
         C            1.217747488687     1.148503615490    -0.428737475506    12.000000000000
         C            1.597226488687    -1.217635384510    -0.043090475506    12.000000000000
         C            2.534243488687     1.404792615490    -0.184376475506    12.000000000000
         C            3.366987488687     0.281727615490     0.096326524494    12.000000000000
         H           -0.857357511313    -0.739271384510     1.485333524494     1.007825032230
         H           -3.238961511313    -0.248455384510     1.455508524494     1.007825032230
         H           -0.635928511313    -1.213388384510    -1.472886475506     1.007825032230
         H           -3.207396511313     1.407996615490    -0.731721475506     1.007825032230
         H           -1.108434511313     1.599822615490     1.495685524494     1.007825032230
         H           -2.754274511313     2.276084615490     1.532086524494     1.007825032230
         H           -0.684276511313    -2.796650384510     0.369710524494     1.007825032230
         H           -3.319568511313    -1.981098384510    -0.347443475506     1.007825032230
         H            0.479707488687     1.907249615490    -0.668550475506     1.007825032230
         H           -1.223101511313     3.844904615490     0.787519524494     1.007825032230
         H            2.920262488687     2.416980615490    -0.223426475506     1.007825032230
         H            5.145743488687     1.300696615490     0.014645524494     1.007825032230
         H            5.250309488687    -0.373703384510     0.376155524494     1.007825032230

  Basis Set: AUG-CC-PVTZ
    Blend: AUG-CC-PVTZ
  Basis Set: (AUG-CC-PVTZ AUX)
    Blend: AUG-CC-PVTZ-JKFIT
	 Reference Energy          =    -886.3734809241435642 [Eh]
	 Singles Energy            =      -0.0000000000000000 [Eh]
	 Same-Spin Energy          =      -0.9018151495258094 [Eh]
	 Opposite-Spin Energy      =      -2.7161646234872370 [Eh]
	 Correlation Energy        =      -3.6179797730130465 [Eh]
	 Total Energy              =    -889.9914606971566400 [Eh]

	 ================> DF-SCS-MP2 Energies <==================
	-----------------------------------------------------------
	 SCS Same-Spin Scale       =       0.3333333333333333 [-]
	 SCS Opposite-Spin Scale   =       1.2000000000000000 [-]
	 SCS Same-Spin Energy      =      -0.3006050498419365 [Eh]
	 SCS Opposite-Spin Energy  =      -3.2593975481846842 [Eh]
	 SCS Correlation Energy    =      -3.5600025980266206 [Eh]
	 SCS Total Energy          =    -889.9334835221701496 [Eh]
	-----------------------------------------------------------

  Dipole Moment: [D]
     X:     2.8246      Y:     5.7523      Z:     1.9548     Total:     6.6999

*** Psi4 exiting successfully. Buy a developer a beer!
