                               Psi4 1.3.2 release

  ==> Input File <==

--------------------------------------------------------------------------
#psi4
#
memory 32 gb

molecule  {
0 1
  O       -1.2481010    -0.6526680     1.0325150
  O       -1.2689904     2.4837424    -0.6810075
  O       -3.2165300     1.5210990     0.7448870
  O       -2.3570290    -3.0668370     0.0949400
  O        1.3605300     2.2470340    -0.0765420
  N        0.8434040     0.0452230     0.2559430
  N        3.0572260     0.7205030    -0.2937270
  N        4.7164630    -0.8366550    -0.5722980
  C       -1.2894840     1.0784300    -0.5920770
  C       -2.7225024     0.6807819    -0.2573403
  C       -0.5254080     0.4815200     0.6000940
  C       -2.5292560    -0.7168860     0.3610560
  C       -2.5283440    -1.8503930    -0.6392900
  C        1.2197750    -1.2614080     0.3112740
  C        1.7555940     1.0674350    -0.0594030
  C        2.5111010    -1.6091400     0.0469950
  C        3.4119830    -0.5506530    -0.2589250
  H       -0.9376060     0.5914040    -1.5148910
  H       -3.3625820     0.6426650    -1.1464650
  H       -0.4402900     1.2218800     1.4039980
  H       -3.2819570    -0.9087340     1.1307830
  H       -1.7133080    -1.7003050    -1.3694640
  H       -3.4855610    -1.8340040    -1.1841350
  H       -0.2975250     2.7131790    -0.5250000
  H       -2.8475560     2.3997430     0.5086630
  H        0.4343110    -1.9634370     0.5690680
  H       -2.4338740    -3.7984320    -0.5432330
  H        2.8291120    -2.6453980     0.0739220
  H        5.1251800    -1.6708610    -0.1624140
  H        5.3198140    -0.0200540    -0.5682940
units angstrom
no_reorient  #important for SAPT in psi4, default
symmetry c1  #important for SAPT in psi4, default
}

set PROPERTIES_ORIGIN ["COM"]
properties('MP2/aug-cc-pvtz', properties = ['dipole'])
--------------------------------------------------------------------------

    Molecular point group: c1
  Charge       = 0
  Multiplicity = 1
  Basis Set: AUG-CC-PVTZ
    Blend: AUG-CC-PVTZ
  Basis Set: (AUG-CC-PVTZ AUX)
    Blend: AUG-CC-PVTZ-JKFIT

    Orbital Energies [Eh]
    ---------------------

    Doubly Occupied:

       1A    -20.581475     2A    -20.581020     3A    -20.558797
       4A    -20.558756     5A    -20.523117     6A    -15.637246
       7A    -15.600117     8A    -15.553762     9A    -11.388911
      10A    -11.358198    11A    -11.341525    12A    -11.328712
      13A    -11.300127    14A    -11.295955    15A    -11.295652
      16A    -11.291945    17A    -11.248786    18A     -1.428907
      19A     -1.396951    20A     -1.382197    21A     -1.372376
      22A     -1.347130    23A     -1.306507    24A     -1.274022
      25A     -1.182579    26A     -1.082019    27A     -1.062679
      28A     -1.020165    29A     -0.934848    30A     -0.909467
      31A     -0.876370    32A     -0.830163    33A     -0.812048
      34A     -0.767158    35A     -0.751976    36A     -0.735164
      37A     -0.720051    38A     -0.703355    39A     -0.697497
      40A     -0.685764    41A     -0.673205    42A     -0.654509
      43A     -0.651519    44A     -0.638537    45A     -0.620221
      46A     -0.613646    47A     -0.606756    48A     -0.594163
      49A     -0.576535    50A     -0.569264    51A     -0.554612
      52A     -0.547191    53A     -0.537430    54A     -0.531486
      55A     -0.497823    56A     -0.476319    57A     -0.470360
      58A     -0.461535    59A     -0.460136    60A     -0.452299
      61A     -0.440069    62A     -0.433385    63A     -0.395549
      64A     -0.350414

  @DF-RHF Final Energy:  -886.37086615536657

   => Energetics <=

    Nuclear Repulsion Energy =           1323.3406527441750313
    One-Electron Energy =               -3844.3621187286998975
    Two-Electron Energy =                1634.6505998291586366
    Total Energy =                       -886.3708661553664570
  Basis Set: (AUG-CC-PVTZ AUX)
    Blend: AUG-CC-PVTZ-RI
    Molecular point group: c1

    Geometry (in Angstrom), charge = 0, multiplicity = 1:

       Center              X                  Y                   Z               Mass
    ------------   -----------------  -----------------  -----------------  -----------------
         O           -1.246158914671    -0.653989157268     1.032173176416    15.994914619570
         O           -1.267048314671     2.482421242732    -0.681349323584    15.994914619570
         O           -3.214587914671     1.519777842732     0.744545176416    15.994914619570
         O           -2.355086914671    -3.068158157268     0.094598176416    15.994914619570
         O            1.362472085329     2.245712842732    -0.076883823584    15.994914619570
         N            0.845346085329     0.043901842732     0.255601176416    14.003074004430
         N            3.059168085329     0.719181842732    -0.294068823584    14.003074004430
         N            4.718405085329    -0.837976157268    -0.572639823584    14.003074004430
         C           -1.287541914671     1.077108842732    -0.592418823584    12.000000000000
         C           -2.720560314671     0.679460742732    -0.257682123584    12.000000000000
         C           -0.523465914671     0.480198842732     0.599752176416    12.000000000000
         C           -2.527313914671    -0.718207157268     0.360714176416    12.000000000000
         C           -2.526401914671    -1.851714157268    -0.639631823584    12.000000000000
         C            1.221717085329    -1.262729157268     0.310932176416    12.000000000000
         C            1.757536085329     1.066113842732    -0.059744823584    12.000000000000
         C            2.513043085329    -1.610461157268     0.046653176416    12.000000000000
         C            3.413925085329    -0.551974157268    -0.259266823584    12.000000000000
         H           -0.935663914671     0.590082842732    -1.515232823584     1.007825032230
         H           -3.360639914671     0.641343842732    -1.146806823584     1.007825032230
         H           -0.438347914671     1.220558842732     1.403656176416     1.007825032230
         H           -3.280014914671    -0.910055157268     1.130441176416     1.007825032230
         H           -1.711365914671    -1.701626157268    -1.369805823584     1.007825032230
         H           -3.483618914671    -1.835325157268    -1.184476823584     1.007825032230
         H           -0.295582914671     2.711857842732    -0.525341823584     1.007825032230
         H           -2.845613914671     2.398421842732     0.508321176416     1.007825032230
         H            0.436253085329    -1.964758157268     0.568726176416     1.007825032230
         H           -2.431931914671    -3.799753157268    -0.543574823584     1.007825032230
         H            2.831054085329    -2.646719157268     0.073580176416     1.007825032230
         H            5.127122085329    -1.672182157268    -0.162755823584     1.007825032230
         H            5.321756085329    -0.021375157268    -0.568635823584     1.007825032230

  Basis Set: AUG-CC-PVTZ
    Blend: AUG-CC-PVTZ
  Basis Set: (AUG-CC-PVTZ AUX)
    Blend: AUG-CC-PVTZ-JKFIT
	 Reference Energy          =    -886.3708661553665706 [Eh]
	 Singles Energy            =      -0.0000000000000000 [Eh]
	 Same-Spin Energy          =      -0.9016387346049013 [Eh]
	 Opposite-Spin Energy      =      -2.7155725048486694 [Eh]
	 Correlation Energy        =      -3.6172112394535709 [Eh]
	 Total Energy              =    -889.9880773948201522 [Eh]

	 ================> DF-SCS-MP2 Energies <==================
	-----------------------------------------------------------
	 SCS Same-Spin Scale       =       0.3333333333333333 [-]
	 SCS Opposite-Spin Scale   =       1.2000000000000000 [-]
	 SCS Same-Spin Energy      =      -0.3005462448683004 [Eh]
	 SCS Opposite-Spin Energy  =      -3.2586870058184032 [Eh]
	 SCS Correlation Energy    =      -3.5592332506867037 [Eh]
	 SCS Total Energy          =    -889.9300994060532730 [Eh]
	-----------------------------------------------------------

  Dipole Moment: [D]
     X:     1.7749      Y:    -5.8883      Z:    -1.8065     Total:     6.4098

*** Psi4 exiting successfully. Buy a developer a beer!
