                               Psi4 1.3.2 release

  ==> Input File <==

--------------------------------------------------------------------------
#psi4
#
memory 32 gb

molecule  {
0 1
  O       -1.2481010    -0.6526680     1.0325150
  O       -1.2449750     2.4828510    -0.6861630
  O       -3.2165300     1.5210990     0.7448870
  O       -2.3570290    -3.0668370     0.0949400
  O        1.3605300     2.2470340    -0.0765420
  N        0.8434040     0.0452230     0.2559430
  N        3.0572260     0.7205030    -0.2937270
  N        4.7164630    -0.8366550    -0.5722980
  C       -1.2894840     1.0784300    -0.5920770
  C       -2.7151710     0.6552070    -0.2573930
  C       -0.5254080     0.4815200     0.6000940
  C       -2.5292560    -0.7168860     0.3610560
  C       -2.5283440    -1.8503930    -0.6392900
  C        1.2197750    -1.2614080     0.3112740
  C        1.7406460     0.9979910    -0.0505545
  C        2.5111010    -1.6091400     0.0469950
  C        3.3463614    -0.5666873    -0.2443003
  H       -0.9376060     0.5914040    -1.5148910
  H       -3.3625820     0.6426650    -1.1464650
  H       -0.4402900     1.2218800     1.4039980
  H       -3.2819570    -0.9087340     1.1307830
  H       -1.7133080    -1.7003050    -1.3694640
  H       -3.4855610    -1.8340040    -1.1841350
  H       -0.2975250     2.7131790    -0.5250000
  H       -2.8475560     2.3997430     0.5086630
  H        0.4343110    -1.9634370     0.5690680
  H       -2.4338740    -3.7984320    -0.5432330
  H        2.8291120    -2.6453980     0.0739220
  H        5.1251800    -1.6708610    -0.1624140
  H        5.3198140    -0.0200540    -0.5682940
units angstrom
no_reorient  #important for SAPT in psi4, default
symmetry c1  #important for SAPT in psi4, default
}

set PROPERTIES_ORIGIN ["COM"]
properties('MP2/aug-cc-pvtz', properties = ['dipole'])
--------------------------------------------------------------------------

    Molecular point group: c1
  Charge       = 0
  Multiplicity = 1
  Basis Set: AUG-CC-PVTZ
    Blend: AUG-CC-PVTZ
  Basis Set: (AUG-CC-PVTZ AUX)
    Blend: AUG-CC-PVTZ-JKFIT

    Orbital Energies [Eh]
    ---------------------

    Doubly Occupied:

       1A    -20.586813     2A    -20.585380     3A    -20.559467
       4A    -20.555523     5A    -20.506886     6A    -15.652365
       7A    -15.591165     8A    -15.564092     9A    -11.384863
      10A    -11.356617    11A    -11.348405    12A    -11.340255
      13A    -11.304402    14A    -11.300369    15A    -11.299615
      16A    -11.295428    17A    -11.255652    18A     -1.434879
      19A     -1.390356    20A     -1.381788    21A     -1.374206
      22A     -1.346601    23A     -1.288633    24A     -1.273416
      25A     -1.174184    26A     -1.098791    27A     -1.071129
      28A     -1.030154    29A     -0.942353    30A     -0.931730
      31A     -0.875596    32A     -0.835268    33A     -0.815377
      34A     -0.770898    35A     -0.762172    36A     -0.739024
      37A     -0.713575    38A     -0.703766    39A     -0.699520
      40A     -0.679783    41A     -0.673801    42A     -0.657613
      43A     -0.652676    44A     -0.645034    45A     -0.627240
      46A     -0.615553    47A     -0.608955    48A     -0.579806
      49A     -0.573943    50A     -0.572068    51A     -0.555580
      52A     -0.545304    53A     -0.538570    54A     -0.524743
      55A     -0.489304    56A     -0.480198    57A     -0.476297
      58A     -0.467842    59A     -0.458547    60A     -0.454023
      61A     -0.446110    62A     -0.433596    63A     -0.396438
      64A     -0.358618

  @DF-RHF Final Energy:  -886.35430554255470

   => Energetics <=

    Nuclear Repulsion Energy =           1325.2939275546293629
    One-Electron Energy =               -3847.9917574192340908
    Two-Electron Energy =                1636.3435243220499160
    Total Energy =                       -886.3543055425545845
  Basis Set: (AUG-CC-PVTZ AUX)
    Blend: AUG-CC-PVTZ-RI
    Molecular point group: c1

    Geometry (in Angstrom), charge = 0, multiplicity = 1:

       Center              X                  Y                   Z               Mass
    ------------   -----------------  -----------------  -----------------  -----------------
         O           -1.244123688030    -0.648448324298     1.031356244921    15.994914619570
         O           -1.240997688030     2.487070675702    -0.687321755079    15.994914619570
         O           -3.212552688030     1.525318675702     0.743728244921    15.994914619570
         O           -2.353051688030    -3.062617324298     0.093781244921    15.994914619570
         O            1.364507311970     2.251253675702    -0.077700755079    15.994914619570
         N            0.847381311970     0.049442675702     0.254784244921    14.003074004430
         N            3.061203311970     0.724722675702    -0.294885755079    14.003074004430
         N            4.720440311970    -0.832435324298    -0.573456755079    14.003074004430
         C           -1.285506688030     1.082649675702    -0.593235755079    12.000000000000
         C           -2.711193688030     0.659426675702    -0.258551755079    12.000000000000
         C           -0.521430688030     0.485739675702     0.598935244921    12.000000000000
         C           -2.525278688030    -0.712666324298     0.359897244921    12.000000000000
         C           -2.524366688030    -1.846173324298    -0.640448755079    12.000000000000
         C            1.223752311970    -1.257188324298     0.310115244921    12.000000000000
         C            1.744623311970     1.002210675702    -0.051713255079    12.000000000000
         C            2.515078311970    -1.604920324298     0.045836244921    12.000000000000
         C            3.350338711970    -0.562467624298    -0.245459055079    12.000000000000
         H           -0.933628688030     0.595623675702    -1.516049755079     1.007825032230
         H           -3.358604688030     0.646884675702    -1.147623755079     1.007825032230
         H           -0.436312688030     1.226099675702     1.402839244921     1.007825032230
         H           -3.277979688030    -0.904514324298     1.129624244921     1.007825032230
         H           -1.709330688030    -1.696085324298    -1.370622755079     1.007825032230
         H           -3.481583688030    -1.829784324298    -1.185293755079     1.007825032230
         H           -0.293547688030     2.717398675702    -0.526158755079     1.007825032230
         H           -2.843578688030     2.403962675702     0.507504244921     1.007825032230
         H            0.438288311970    -1.959217324298     0.567909244921     1.007825032230
         H           -2.429896688030    -3.794212324298    -0.544391755079     1.007825032230
         H            2.833089311970    -2.641178324298     0.072763244921     1.007825032230
         H            5.129157311970    -1.666641324298    -0.163572755079     1.007825032230
         H            5.323791311970    -0.015834324298    -0.569452755079     1.007825032230

  Basis Set: AUG-CC-PVTZ
    Blend: AUG-CC-PVTZ
  Basis Set: (AUG-CC-PVTZ AUX)
    Blend: AUG-CC-PVTZ-JKFIT
	 Reference Energy          =    -886.3543055425546981 [Eh]
	 Singles Energy            =      -0.0000000000000000 [Eh]
	 Same-Spin Energy          =      -0.9029603462683830 [Eh]
	 Opposite-Spin Energy      =      -2.7179832767593188 [Eh]
	 Correlation Energy        =      -3.6209436230277019 [Eh]
	 Total Energy              =    -889.9752491655824542 [Eh]

	 ================> DF-SCS-MP2 Energies <==================
	-----------------------------------------------------------
	 SCS Same-Spin Scale       =       0.3333333333333333 [-]
	 SCS Opposite-Spin Scale   =       1.2000000000000000 [-]
	 SCS Same-Spin Energy      =      -0.3009867820894609 [Eh]
	 SCS Opposite-Spin Energy  =      -3.2615799321111827 [Eh]
	 SCS Correlation Energy    =      -3.5625667142006439 [Eh]
	 SCS Total Energy          =    -889.9168722567553687 [Eh]
	-----------------------------------------------------------

  Dipole Moment: [D]
     X:     1.1369      Y:    -6.5124      Z:    -1.6465     Total:     6.8129

*** Psi4 exiting successfully. Buy a developer a beer!
