                               Psi4 1.3.2 release

  ==> Input File <==

--------------------------------------------------------------------------
#psi4
#
memory 32 gb

molecule  {
0 1
  O       -1.2481010    -0.6526680     1.0325150
  O       -1.2449750     2.4828510    -0.6861630
  O       -3.2165300     1.5210990     0.7448870
  O       -2.3570290    -3.0668370     0.0949400
  O        1.3605300     2.2470340    -0.0765420
  N        0.8080182     0.0790445     0.2594002
  N        3.0672488     0.7665374    -0.3013487
  N        4.7164630    -0.8366550    -0.5722980
  C       -1.2894840     1.0784300    -0.5920770
  C       -2.7151710     0.6552070    -0.2573930
  C       -0.5254080     0.4815200     0.6000940
  C       -2.5292560    -0.7168860     0.3610560
  C       -2.5283440    -1.8503930    -0.6392900
  C        1.2197750    -1.2614080     0.3112740
  C        1.7555940     1.0674350    -0.0594030
  C        2.5111010    -1.6091400     0.0469950
  C        3.4119830    -0.5506530    -0.2589250
  H       -0.9376060     0.5914040    -1.5148910
  H       -3.3625820     0.6426650    -1.1464650
  H       -0.4402900     1.2218800     1.4039980
  H       -3.2819570    -0.9087340     1.1307830
  H       -1.7133080    -1.7003050    -1.3694640
  H       -3.4855610    -1.8340040    -1.1841350
  H       -0.2975250     2.7131790    -0.5250000
  H       -2.8475560     2.3997430     0.5086630
  H        0.4343110    -1.9634370     0.5690680
  H       -2.4338740    -3.7984320    -0.5432330
  H        2.8291120    -2.6453980     0.0739220
  H        5.1251800    -1.6708610    -0.1624140
  H        5.3198140    -0.0200540    -0.5682940
units angstrom
no_reorient  #important for SAPT in psi4, default
symmetry c1  #important for SAPT in psi4, default
}

set PROPERTIES_ORIGIN ["COM"]
properties('MP2/aug-cc-pvtz', properties = ['dipole'])
--------------------------------------------------------------------------

    Molecular point group: c1
  Charge       = 0
  Multiplicity = 1
  Basis Set: AUG-CC-PVTZ
    Blend: AUG-CC-PVTZ
  Basis Set: (AUG-CC-PVTZ AUX)
    Blend: AUG-CC-PVTZ-JKFIT

    Orbital Energies [Eh]
    ---------------------

    Doubly Occupied:

       1A    -20.581905     2A    -20.580244     3A    -20.555960
       4A    -20.554506     5A    -20.514479     6A    -15.636487
       7A    -15.606245     8A    -15.559726     9A    -11.383702
      10A    -11.366985    11A    -11.336444    12A    -11.335954
      13A    -11.300508    14A    -11.295752    15A    -11.293479
      16A    -11.290908    17A    -11.256052    18A     -1.428799
      19A     -1.392994    20A     -1.378350    21A     -1.371939
      22A     -1.344003    23A     -1.298569    24A     -1.271341
      25A     -1.179707    26A     -1.086432    27A     -1.066315
      28A     -1.019730    29A     -0.936375    30A     -0.908017
      31A     -0.871430    32A     -0.832602    33A     -0.810915
      34A     -0.768440    35A     -0.749687    36A     -0.734837
      37A     -0.721240    38A     -0.703103    39A     -0.697182
      40A     -0.686179    41A     -0.672987    42A     -0.652808
      43A     -0.650096    44A     -0.637091    45A     -0.620682
      46A     -0.614189    47A     -0.605571    48A     -0.588888
      49A     -0.574683    50A     -0.568756    51A     -0.553086
      52A     -0.545354    53A     -0.535850    54A     -0.530898
      55A     -0.493043    56A     -0.476347    57A     -0.472201
      58A     -0.460640    59A     -0.456827    60A     -0.450854
      61A     -0.442602    62A     -0.434863    63A     -0.391577
      64A     -0.353303

  @DF-RHF Final Energy:  -886.36573758992961

   => Energetics <=

    Nuclear Repulsion Energy =           1322.8864093613246951
    One-Electron Energy =               -3843.5228660607704114
    Two-Electron Energy =                1634.2707191095159942
    Total Energy =                       -886.3657375899297222
  Basis Set: (AUG-CC-PVTZ AUX)
    Blend: AUG-CC-PVTZ-RI
    Molecular point group: c1

    Geometry (in Angstrom), charge = 0, multiplicity = 1:

       Center              X                  Y                   Z               Mass
    ------------   -----------------  -----------------  -----------------  -----------------
         O           -1.246639984487    -0.657268132539     1.032754905775    15.994914619570
         O           -1.243513984487     2.478250867461    -0.685923094225    15.994914619570
         O           -3.215068984487     1.516498867461     0.745126905775    15.994914619570
         O           -2.355567984487    -3.071437132539     0.095179905775    15.994914619570
         O            1.361991015513     2.242433867461    -0.076302094225    15.994914619570
         N            0.809479215513     0.074444367461     0.259640105775    14.003074004430
         N            3.068709815513     0.761937267461    -0.301108794225    14.003074004430
         N            4.717924015513    -0.841255132539    -0.572058094225    14.003074004430
         C           -1.288022984487     1.073829867461    -0.591837094225    12.000000000000
         C           -2.713709984487     0.650606867461    -0.257153094225    12.000000000000
         C           -0.523946984487     0.476919867461     0.600333905775    12.000000000000
         C           -2.527794984487    -0.721486132539     0.361295905775    12.000000000000
         C           -2.526882984487    -1.854993132539    -0.639050094225    12.000000000000
         C            1.221236015513    -1.266008132539     0.311513905775    12.000000000000
         C            1.757055015513     1.062834867461    -0.059163094225    12.000000000000
         C            2.512562015513    -1.613740132539     0.047234905775    12.000000000000
         C            3.413444015513    -0.555253132539    -0.258685094225    12.000000000000
         H           -0.936144984487     0.586803867461    -1.514651094225     1.007825032230
         H           -3.361120984487     0.638064867461    -1.146225094225     1.007825032230
         H           -0.438828984487     1.217279867461     1.404237905775     1.007825032230
         H           -3.280495984487    -0.913334132539     1.131022905775     1.007825032230
         H           -1.711846984487    -1.704905132539    -1.369224094225     1.007825032230
         H           -3.484099984487    -1.838604132539    -1.183895094225     1.007825032230
         H           -0.296063984487     2.708578867461    -0.524760094225     1.007825032230
         H           -2.846094984487     2.395142867461     0.508902905775     1.007825032230
         H            0.435772015513    -1.968037132539     0.569307905775     1.007825032230
         H           -2.432412984487    -3.803032132539    -0.542993094225     1.007825032230
         H            2.830573015513    -2.649998132539     0.074161905775     1.007825032230
         H            5.126641015513    -1.675461132539    -0.162174094225     1.007825032230
         H            5.321275015513    -0.024654132539    -0.568054094225     1.007825032230

  Basis Set: AUG-CC-PVTZ
    Blend: AUG-CC-PVTZ
  Basis Set: (AUG-CC-PVTZ AUX)
    Blend: AUG-CC-PVTZ-JKFIT
	 Reference Energy          =    -886.3657375899296085 [Eh]
	 Singles Energy            =      -0.0000000000000000 [Eh]
	 Same-Spin Energy          =      -0.9014148345229565 [Eh]
	 Opposite-Spin Energy      =      -2.7162143656942028 [Eh]
	 Correlation Energy        =      -3.6176292002171593 [Eh]
	 Total Energy              =    -889.9833667901467606 [Eh]

	 ================> DF-SCS-MP2 Energies <==================
	-----------------------------------------------------------
	 SCS Same-Spin Scale       =       0.3333333333333333 [-]
	 SCS Opposite-Spin Scale   =       1.2000000000000000 [-]
	 SCS Same-Spin Energy      =      -0.3004716115076521 [Eh]
	 SCS Opposite-Spin Energy  =      -3.2594572388330434 [Eh]
	 SCS Correlation Energy    =      -3.5599288503406954 [Eh]
	 SCS Total Energy          =    -889.9256664402703336 [Eh]
	-----------------------------------------------------------

  Dipole Moment: [D]
     X:     2.0372      Y:    -6.2429      Z:    -1.8485     Total:     6.8221

*** Psi4 exiting successfully. Buy a developer a beer!
