                               Psi4 1.4a3.dev225

  ==> Input File <==

--------------------------------------------------------------------------
#psi4
#
memory 32 gb

molecule  {
0 1
  O       -1.3191770     0.6538360    -1.0992360
  O       -1.5735610    -2.4640850     0.5135810
  O       -3.5606630    -1.0699430    -0.4600060
  O       -1.4399290     3.1254620     0.1265180
  O        1.1065530    -2.3833650     0.0076020
  N        0.7686360    -0.1579440    -0.3706350
  N        2.9363770    -0.9938720     0.1460080
  N        4.7058880     0.4431110     0.3611260
  C       -1.3768610    -1.0680440     0.5552780
  C       -2.7379840    -0.3746360     0.4578480
  C       -0.6377490    -0.5042940    -0.6790150
  C       -2.3707440     0.9655450    -0.1585060
  C       -1.8992030     1.9895750     0.8571380
  C        1.2309690     1.1190800    -0.4442230
  C        1.6104480    -1.2470590    -0.0585760
  C        2.5474650     1.3753690    -0.1998620
  C        3.3869111     0.2711219     0.0798569
  H       -0.8441360    -0.7686950     1.4698480
  H       -3.2257400    -0.2778790     1.4400230
  H       -0.6227070    -1.2428120    -1.4883720
  H       -3.1941750     1.3785730    -0.7472070
  H       -1.0952130     1.5703990     1.4802000
  H       -2.7410530     2.2466610     1.5166010
  H       -0.6710550    -2.8260740     0.3542250
  H       -3.3063470    -2.0105220    -0.3629290
  H        0.4929290     1.8778260    -0.6840360
  H       -1.2098800     3.8154810     0.7720340
  H        2.9334840     2.3875570    -0.2389120
  H        5.1589650     1.2712730    -0.0008400
  H        5.2635310    -0.4031270     0.3606700
units angstrom
no_reorient  #important for SAPT in psi4, default
symmetry c1  #important for SAPT in psi4, default
}

set PROPERTIES_ORIGIN ["COM"]
properties('MP2/aug-cc-pvtz', properties = ['dipole'])
--------------------------------------------------------------------------

    Molecular point group: c1
  Charge       = 0
  Multiplicity = 1
  Basis Set: AUG-CC-PVTZ
    Blend: AUG-CC-PVTZ
  Basis Set: (AUG-CC-PVTZ AUX)
    Blend: AUG-CC-PVTZ-JKFIT

    Orbital Energies [Eh]
    ---------------------

    Doubly Occupied:

       1A    -20.586896     2A    -20.581365     3A    -20.558897
       4A    -20.556270     5A    -20.517488     6A    -15.633201
       7A    -15.601768     8A    -15.550496     9A    -11.383669
      10A    -11.358585    11A    -11.339389    12A    -11.326837
      13A    -11.303626    14A    -11.297899    15A    -11.296743
      16A    -11.293363    17A    -11.246221    18A     -1.428998
      19A     -1.392518    20A     -1.382830    21A     -1.375337
      22A     -1.346195    23A     -1.302624    24A     -1.272211
      25A     -1.177688    26A     -1.080595    27A     -1.067978
      28A     -1.017643    29A     -0.936869    30A     -0.907574
      31A     -0.874812    32A     -0.829963    33A     -0.812407
      34A     -0.767250    35A     -0.750403    36A     -0.734950
      37A     -0.723162    38A     -0.708173    39A     -0.703777
      40A     -0.684376    41A     -0.675606    42A     -0.652708
      43A     -0.648662    44A     -0.632545    45A     -0.619891
      46A     -0.615680    47A     -0.608771    48A     -0.591726
      49A     -0.576978    50A     -0.565064    51A     -0.555735
      52A     -0.548027    53A     -0.536616    54A     -0.531648
      55A     -0.495093    56A     -0.480830    57A     -0.473595
      58A     -0.463146    59A     -0.455707    60A     -0.452806
      61A     -0.442013    62A     -0.428798    63A     -0.389402
      64A     -0.348589

  @DF-RHF Final Energy:  -886.37293613059717

   => Energetics <=

    Nuclear Repulsion Energy =           1334.3811009325022496
    One-Electron Energy =               -3866.5067132143171875
    Two-Electron Energy =                1645.7526761512178837
    Total Energy =                       -886.3729361305970542
  Basis Set: (AUG-CC-PVTZ AUX)
    Blend: AUG-CC-PVTZ-RI
    Molecular point group: c1

    Geometry (in Angstrom), charge = 0, multiplicity = 1:

       Center              X                  Y                   Z               Mass
    ------------   -----------------  -----------------  -----------------  -----------------
         O           -1.332251506259     0.681518514667    -1.083407208660    15.994914619570
         O           -1.586635506259    -2.436402485333     0.529409791340    15.994914619570
         O           -3.573737506259    -1.042260485333    -0.444177208660    15.994914619570
         O           -1.453003506259     3.153144514667     0.142346791340    15.994914619570
         O            1.093478493741    -2.355682485333     0.023430791340    15.994914619570
         N            0.755561493741    -0.130261485333    -0.354806208660    14.003074004430
         N            2.923302493741    -0.966189485333     0.161836791340    14.003074004430
         N            4.692813493741     0.470793514667     0.376954791340    14.003074004430
         C           -1.389935506259    -1.040361485333     0.571106791340    12.000000000000
         C           -2.751058506259    -0.346953485333     0.473676791340    12.000000000000
         C           -0.650823506259    -0.476611485333    -0.663186208660    12.000000000000
         C           -2.383818506259     0.993227514667    -0.142677208660    12.000000000000
         C           -1.912277506259     2.017257514667     0.872966791340    12.000000000000
         C            1.217894493741     1.146762514667    -0.428394208660    12.000000000000
         C            1.597373493741    -1.219376485333    -0.042747208660    12.000000000000
         C            2.534390493741     1.403051514667    -0.184033208660    12.000000000000
         C            3.373836593741     0.298804414667     0.095685691340    12.000000000000
         H           -0.857210506259    -0.741012485333     1.485676791340     1.007825032230
         H           -3.238814506259    -0.250196485333     1.455851791340     1.007825032230
         H           -0.635781506259    -1.215129485333    -1.472543208660     1.007825032230
         H           -3.207249506259     1.406255514667    -0.731378208660     1.007825032230
         H           -1.108287506259     1.598081514667     1.496028791340     1.007825032230
         H           -2.754127506259     2.274343514667     1.532429791340     1.007825032230
         H           -0.684129506259    -2.798391485333     0.370053791340     1.007825032230
         H           -3.319421506259    -1.982839485333    -0.347100208660     1.007825032230
         H            0.479854493741     1.905508514667    -0.668207208660     1.007825032230
         H           -1.222954506259     3.843163514667     0.787862791340     1.007825032230
         H            2.920409493741     2.415239514667    -0.223083208660     1.007825032230
         H            5.145890493741     1.298955514667     0.014988791340     1.007825032230
         H            5.250456493741    -0.375444485333     0.376498791340     1.007825032230

  Basis Set: AUG-CC-PVTZ
    Blend: AUG-CC-PVTZ
  Basis Set: (AUG-CC-PVTZ AUX)
    Blend: AUG-CC-PVTZ-JKFIT
	 Reference Energy          =    -886.3729361305971679 [Eh]
	 Singles Energy            =      -0.0000000000000000 [Eh]
	 Same-Spin Energy          =      -0.9021111900127298 [Eh]
	 Opposite-Spin Energy      =      -2.7162541590011355 [Eh]
	 Correlation Energy        =      -3.6183653490138652 [Eh]
	 Total Energy              =    -889.9913014796110247 [Eh]

	 ================> DF-SCS-MP2 Energies <==================
	-----------------------------------------------------------
	 SCS Same-Spin Scale       =       0.3333333333333333 [-]
	 SCS Opposite-Spin Scale   =       1.2000000000000000 [-]
	 SCS Same-Spin Energy      =      -0.3007037300042432 [Eh]
	 SCS Opposite-Spin Energy  =      -3.2595049908013625 [Eh]
	 SCS Correlation Energy    =      -3.5602087208056057 [Eh]
	 SCS Total Energy          =    -889.9331448514027443 [Eh]
	-----------------------------------------------------------

  Dipole Moment: [D]
     X:     2.8049      Y:     5.8913      Z:     1.9513     Total:     6.8105

*** Psi4 exiting successfully. Buy a developer a beer!
