                               Psi4 1.3.2 release

  ==> Input File <==

--------------------------------------------------------------------------
#psi4
#
memory 32 gb

molecule  {
0 1
  O       -1.2481010    -0.6526680     1.0325150
  O       -1.2449750     2.4828510    -0.6861630
  O       -3.2165300     1.5210990     0.7448870
  O       -2.3570290    -3.0668370     0.0949400
  O        1.3605300     2.2470340    -0.0765420
  N        0.8434040     0.0452230     0.2559430
  N        3.0572260     0.7205030    -0.2937270
  N        4.7164630    -0.8366550    -0.5722980
  C       -1.2894840     1.0784300    -0.5920770
  C       -2.7151710     0.6552070    -0.2573930
  C       -0.3400964     0.4224535     0.5535024
  C       -2.5292560    -0.7168860     0.3610560
  C       -2.5283440    -1.8503930    -0.6392900
  C        1.2197750    -1.2614080     0.3112740
  C        1.7555940     1.0674350    -0.0594030
  C        2.5111010    -1.6091400     0.0469950
  C        3.4119830    -0.5506530    -0.2589250
  H       -0.9376060     0.5914040    -1.5148910
  H       -3.3625820     0.6426650    -1.1464650
  H       -0.4402900     1.2218800     1.4039980
  H       -3.2819570    -0.9087340     1.1307830
  H       -1.7133080    -1.7003050    -1.3694640
  H       -3.4855610    -1.8340040    -1.1841350
  H       -0.2975250     2.7131790    -0.5250000
  H       -2.8475560     2.3997430     0.5086630
  H        0.4343110    -1.9634370     0.5690680
  H       -2.4338740    -3.7984320    -0.5432330
  H        2.8291120    -2.6453980     0.0739220
  H        5.1251800    -1.6708610    -0.1624140
  H        5.3198140    -0.0200540    -0.5682940
units angstrom
no_reorient  #important for SAPT in psi4, default
symmetry c1  #important for SAPT in psi4, default
}

set PROPERTIES_ORIGIN ["COM"]
properties('MP2/aug-cc-pvtz', properties = ['dipole'])
--------------------------------------------------------------------------

    Molecular point group: c1
  Charge       = 0
  Multiplicity = 1
  Basis Set: AUG-CC-PVTZ
    Blend: AUG-CC-PVTZ
  Basis Set: (AUG-CC-PVTZ AUX)
    Blend: AUG-CC-PVTZ-JKFIT

    Orbital Energies [Eh]
    ---------------------

    Doubly Occupied:

       1A    -20.578257     2A    -20.566301     3A    -20.553390
       4A    -20.550779     5A    -20.532564     6A    -15.647511
       7A    -15.607090     8A    -15.562650     9A    -11.399904
      10A    -11.366620    11A    -11.338119    12A    -11.337556
      13A    -11.295944    14A    -11.294042    15A    -11.289994
      16A    -11.287065    17A    -11.258767    18A     -1.437060
      19A     -1.390826    20A     -1.374469    21A     -1.365376
      22A     -1.340277    23A     -1.322029    24A     -1.297863
      25A     -1.196302    26A     -1.100596    27A     -1.056175
      28A     -1.005789    29A     -0.949217    30A     -0.926192
      31A     -0.881482    32A     -0.836022    33A     -0.802644
      34A     -0.780232    35A     -0.760135    36A     -0.731055
      37A     -0.727282    38A     -0.703866    39A     -0.692261
      40A     -0.689462    41A     -0.672546    42A     -0.661068
      43A     -0.655575    44A     -0.630930    45A     -0.624835
      46A     -0.616566    47A     -0.602250    48A     -0.596921
      49A     -0.573272    50A     -0.564079    51A     -0.549945
      52A     -0.547167    53A     -0.532179    54A     -0.521257
      55A     -0.498006    56A     -0.471317    57A     -0.469737
      58A     -0.465291    59A     -0.453943    60A     -0.445585
      61A     -0.438241    62A     -0.431016    63A     -0.392835
      64A     -0.350552

  @DF-RHF Final Energy:  -886.32465054491013

   => Energetics <=

    Nuclear Repulsion Energy =           1324.7647706666803060
    One-Electron Energy =               -3846.9822938344100294
    Two-Electron Energy =                1635.8928726228195956
    Total Energy =                       -886.3246505449101278
  Basis Set: (AUG-CC-PVTZ AUX)
    Blend: AUG-CC-PVTZ-RI
    Molecular point group: c1

    Geometry (in Angstrom), charge = 0, multiplicity = 1:

       Center              X                  Y                   Z               Mass
    ------------   -----------------  -----------------  -----------------  -----------------
         O           -1.257249004556    -0.649752151853     1.034815017777    15.994914619570
         O           -1.254123004556     2.485766848147    -0.683862982223    15.994914619570
         O           -3.225678004556     1.524014848147     0.747187017777    15.994914619570
         O           -2.366177004556    -3.063921151853     0.097240017777    15.994914619570
         O            1.351381995444     2.249949848147    -0.074241982223    15.994914619570
         N            0.834255995444     0.048138848147     0.258243017777    14.003074004430
         N            3.048077995444     0.723418848147    -0.291426982223    14.003074004430
         N            4.707314995444    -0.833739151853    -0.569997982223    14.003074004430
         C           -1.298632004556     1.081345848147    -0.589776982223    12.000000000000
         C           -2.724319004556     0.658122848147    -0.255092982223    12.000000000000
         C           -0.349244404556     0.425369348147     0.555802417777    12.000000000000
         C           -2.538404004556    -0.713970151853     0.363356017777    12.000000000000
         C           -2.537492004556    -1.847477151853    -0.636989982223    12.000000000000
         C            1.210626995444    -1.258492151853     0.313574017777    12.000000000000
         C            1.746445995444     1.070350848147    -0.057102982223    12.000000000000
         C            2.501952995444    -1.606224151853     0.049295017777    12.000000000000
         C            3.402834995444    -0.547737151853    -0.256624982223    12.000000000000
         H           -0.946754004556     0.594319848147    -1.512590982223     1.007825032230
         H           -3.371730004556     0.645580848147    -1.144164982223     1.007825032230
         H           -0.449438004556     1.224795848147     1.406298017777     1.007825032230
         H           -3.291105004556    -0.905818151853     1.133083017777     1.007825032230
         H           -1.722456004556    -1.697389151853    -1.367163982223     1.007825032230
         H           -3.494709004556    -1.831088151853    -1.181834982223     1.007825032230
         H           -0.306673004556     2.716094848147    -0.522699982223     1.007825032230
         H           -2.856704004556     2.402658848147     0.510963017777     1.007825032230
         H            0.425162995444    -1.960521151853     0.571368017777     1.007825032230
         H           -2.443022004556    -3.795516151853    -0.540932982223     1.007825032230
         H            2.819963995444    -2.642482151853     0.076222017777     1.007825032230
         H            5.116031995444    -1.667945151853    -0.160113982223     1.007825032230
         H            5.310665995444    -0.017138151853    -0.565993982223     1.007825032230

  Basis Set: AUG-CC-PVTZ
    Blend: AUG-CC-PVTZ
  Basis Set: (AUG-CC-PVTZ AUX)
    Blend: AUG-CC-PVTZ-JKFIT
	 Reference Energy          =    -886.3246505449101278 [Eh]
	 Singles Energy            =      -0.0000000000000000 [Eh]
	 Same-Spin Energy          =      -0.9039736613554928 [Eh]
	 Opposite-Spin Energy      =      -2.7194034076565159 [Eh]
	 Correlation Energy        =      -3.6233770690120086 [Eh]
	 Total Energy              =    -889.9480276139221360 [Eh]

	 ================> DF-SCS-MP2 Energies <==================
	-----------------------------------------------------------
	 SCS Same-Spin Scale       =       0.3333333333333333 [-]
	 SCS Opposite-Spin Scale   =       1.2000000000000000 [-]
	 SCS Same-Spin Energy      =      -0.3013245537851643 [Eh]
	 SCS Opposite-Spin Energy  =      -3.2632840891878190 [Eh]
	 SCS Correlation Energy    =      -3.5646086429729831 [Eh]
	 SCS Total Energy          =    -889.8892591878831126 [Eh]
	-----------------------------------------------------------

  Dipole Moment: [D]
     X:     2.7832      Y:    -5.9942      Z:    -2.0040     Total:     6.9060

*** Psi4 exiting successfully. Buy a developer a beer!
