                               Psi4 1.3.2 release

  ==> Input File <==

--------------------------------------------------------------------------
#psi4
#
memory 32 gb

molecule  {
0 1
  O       -1.2481010    -0.6526680     1.0325150
  O       -1.2449750     2.4828510    -0.6861630
  O       -3.2165300     1.5210990     0.7448870
  O       -2.3570290    -3.0668370     0.0949400
  O        1.3605300     2.2470340    -0.0765420
  N        0.8434040     0.0452230     0.2559430
  N        3.0572260     0.7205030    -0.2937270
  N        4.7164630    -0.8366550    -0.5722980
  C       -1.2894840     1.0784300    -0.5920770
  C       -2.7144633     0.6707344    -0.2358007
  C       -0.5254080     0.4815200     0.6000940
  C       -2.5292560    -0.7168860     0.3610560
  C       -2.5283440    -1.8503930    -0.6392900
  C        1.2197750    -1.2614080     0.3112740
  C        1.7555940     1.0674350    -0.0594030
  C        2.5111010    -1.6091400     0.0469950
  C        3.4119830    -0.5506530    -0.2589250
  H       -0.9207634     0.6004779    -1.5130575
  H       -3.3625820     0.6426650    -1.1464650
  H       -0.4402900     1.2218800     1.4039980
  H       -3.2819570    -0.9087340     1.1307830
  H       -1.7133080    -1.7003050    -1.3694640
  H       -3.4855610    -1.8340040    -1.1841350
  H       -0.2975250     2.7131790    -0.5250000
  H       -2.8475560     2.3997430     0.5086630
  H        0.4343110    -1.9634370     0.5690680
  H       -2.4338740    -3.7984320    -0.5432330
  H        2.8291120    -2.6453980     0.0739220
  H        5.1251800    -1.6708610    -0.1624140
  H        5.3198140    -0.0200540    -0.5682940
units angstrom
no_reorient  #important for SAPT in psi4, default
symmetry c1  #important for SAPT in psi4, default
}

set PROPERTIES_ORIGIN ["COM"]
properties('MP2/aug-cc-pvtz', properties = ['dipole'])
--------------------------------------------------------------------------

    Molecular point group: c1
  Charge       = 0
  Multiplicity = 1
  Basis Set: AUG-CC-PVTZ
    Blend: AUG-CC-PVTZ
  Basis Set: (AUG-CC-PVTZ AUX)
    Blend: AUG-CC-PVTZ-JKFIT

    Orbital Energies [Eh]
    ---------------------

    Doubly Occupied:

       1A    -20.582094     2A    -20.580965     3A    -20.560600
       4A    -20.556905     5A    -20.521940     6A    -15.636777
       7A    -15.599786     8A    -15.553275     9A    -11.388184
      10A    -11.357777    11A    -11.340955    12A    -11.328389
      13A    -11.300986    14A    -11.296258    15A    -11.295942
      16A    -11.293764    17A    -11.248444    18A     -1.429906
      19A     -1.396776    20A     -1.384163    21A     -1.373094
      22A     -1.351263    23A     -1.305979    24A     -1.273695
      25A     -1.182169    26A     -1.081840    27A     -1.065337
      28A     -1.021122    29A     -0.935014    30A     -0.909361
      31A     -0.877239    32A     -0.832331    33A     -0.810413
      34A     -0.766916    35A     -0.752009    36A     -0.736763
      37A     -0.719882    38A     -0.705240    39A     -0.700031
      40A     -0.685621    41A     -0.673905    42A     -0.654155
      43A     -0.651881    44A     -0.638122    45A     -0.620780
      46A     -0.613984    47A     -0.607370    48A     -0.593536
      49A     -0.576775    50A     -0.570104    51A     -0.555706
      52A     -0.547878    53A     -0.538044    54A     -0.531704
      55A     -0.498051    56A     -0.476862    57A     -0.473027
      58A     -0.461905    59A     -0.459227    60A     -0.452686
      61A     -0.438829    62A     -0.432984    63A     -0.394976
      64A     -0.349822

  @DF-RHF Final Energy:  -886.37297885873375

   => Energetics <=

    Nuclear Repulsion Energy =           1323.9508858494755259
    One-Electron Energy =               -3845.5446924739685528
    Two-Electron Energy =                1635.2208277657593953
    Total Energy =                       -886.3729788587336316
  Basis Set: (AUG-CC-PVTZ AUX)
    Blend: AUG-CC-PVTZ-RI
    Molecular point group: c1

    Geometry (in Angstrom), charge = 0, multiplicity = 1:

       Center              X                  Y                   Z               Mass
    ------------   -----------------  -----------------  -----------------  -----------------
         O           -1.248205798687    -0.653472125390     1.031441494560    15.994914619570
         O           -1.245079798687     2.482046874610    -0.687236505440    15.994914619570
         O           -3.216634798687     1.520294874610     0.743813494560    15.994914619570
         O           -2.357133798687    -3.067641125390     0.093866494560    15.994914619570
         O            1.360425201313     2.246229874610    -0.077615505440    15.994914619570
         N            0.843299201313     0.044418874610     0.254869494560    14.003074004430
         N            3.057121201313     0.719698874610    -0.294800505440    14.003074004430
         N            4.716358201313    -0.837459125390    -0.573371505440    14.003074004430
         C           -1.289588798687     1.077625874610    -0.593150505440    12.000000000000
         C           -2.714568098687     0.669930274610    -0.236874205440    12.000000000000
         C           -0.525512798687     0.480715874610     0.599020494560    12.000000000000
         C           -2.529360798687    -0.717690125390     0.359982494560    12.000000000000
         C           -2.528448798687    -1.851197125390    -0.640363505440    12.000000000000
         C            1.219670201313    -1.262212125390     0.310200494560    12.000000000000
         C            1.755489201313     1.066630874610    -0.060476505440    12.000000000000
         C            2.510996201313    -1.609944125390     0.045921494560    12.000000000000
         C            3.411878201313    -0.551457125390    -0.259998505440    12.000000000000
         H           -0.920868198687     0.599673774610    -1.514131005440     1.007825032230
         H           -3.362686798687     0.641860874610    -1.147538505440     1.007825032230
         H           -0.440394798687     1.221075874610     1.402924494560     1.007825032230
         H           -3.282061798687    -0.909538125390     1.129709494560     1.007825032230
         H           -1.713412798687    -1.701109125390    -1.370537505440     1.007825032230
         H           -3.485665798687    -1.834808125390    -1.185208505440     1.007825032230
         H           -0.297629798687     2.712374874610    -0.526073505440     1.007825032230
         H           -2.847660798687     2.398938874610     0.507589494560     1.007825032230
         H            0.434206201313    -1.964241125390     0.567994494560     1.007825032230
         H           -2.433978798687    -3.799236125390    -0.544306505440     1.007825032230
         H            2.829007201313    -2.646202125390     0.072848494560     1.007825032230
         H            5.125075201313    -1.671665125390    -0.163487505440     1.007825032230
         H            5.319709201313    -0.020858125390    -0.569367505440     1.007825032230

  Basis Set: AUG-CC-PVTZ
    Blend: AUG-CC-PVTZ
  Basis Set: (AUG-CC-PVTZ AUX)
    Blend: AUG-CC-PVTZ-JKFIT
	 Reference Energy          =    -886.3729788587337453 [Eh]
	 Singles Energy            =      -0.0000000000000000 [Eh]
	 Same-Spin Energy          =      -0.9012726494208370 [Eh]
	 Opposite-Spin Energy      =      -2.7146429734608644 [Eh]
	 Correlation Energy        =      -3.6159156228817011 [Eh]
	 Total Energy              =    -889.9888944816154890 [Eh]

	 ================> DF-SCS-MP2 Energies <==================
	-----------------------------------------------------------
	 SCS Same-Spin Scale       =       0.3333333333333333 [-]
	 SCS Opposite-Spin Scale   =       1.2000000000000000 [-]
	 SCS Same-Spin Energy      =      -0.3004242164736123 [Eh]
	 SCS Opposite-Spin Energy  =      -3.2575715681530371 [Eh]
	 SCS Correlation Energy    =      -3.5579957846266494 [Eh]
	 SCS Total Energy          =    -889.9309746433604005 [Eh]
	-----------------------------------------------------------

  Dipole Moment: [D]
     X:     1.6933      Y:    -5.8946      Z:    -1.7607     Total:     6.3807

*** Psi4 exiting successfully. Buy a developer a beer!
