                               Psi4 1.4a3.dev225

  ==> Input File <==

--------------------------------------------------------------------------
#psi4
#
memory 32 gb

molecule  {
0 1
  O       -1.3191770     0.6538360    -1.0992360
  O       -1.5735610    -2.4640850     0.5135810
  O       -3.5606630    -1.0699430    -0.4600060
  O       -1.4399290     3.1254620     0.1265180
  O        1.1065530    -2.3833650     0.0076020
  N        0.7686360    -0.1579440    -0.3706350
  N        2.9363770    -0.9938720     0.1460080
  N        4.7058880     0.4431110     0.3611260
  C       -1.3768610    -1.0680440     0.5552780
  C       -2.7379840    -0.3746360     0.4578480
  C       -0.6135489    -0.5454236    -0.6640914
  C       -2.3707440     0.9655450    -0.1585060
  C       -1.8992030     1.9895750     0.8571380
  C        1.2309690     1.1190800    -0.4442230
  C        1.6104480    -1.2470590    -0.0585760
  C        2.5474650     1.3753690    -0.1998620
  C        3.3802090     0.2523040     0.0808410
  H       -0.8441360    -0.7686950     1.4698480
  H       -3.2257400    -0.2778790     1.4400230
  H       -0.6227070    -1.2428120    -1.4883720
  H       -3.1941750     1.3785730    -0.7472070
  H       -1.0952130     1.5703990     1.4802000
  H       -2.7410530     2.2466610     1.5166010
  H       -0.6710550    -2.8260740     0.3542250
  H       -3.3063470    -2.0105220    -0.3629290
  H        0.4929290     1.8778260    -0.6840360
  H       -1.2098800     3.8154810     0.7720340
  H        2.9334840     2.3875570    -0.2389120
  H        5.1589650     1.2712730    -0.0008400
  H        5.2635310    -0.4031270     0.3606700
units angstrom
no_reorient  #important for SAPT in psi4, default
symmetry c1  #important for SAPT in psi4, default
}

set PROPERTIES_ORIGIN ["COM"]
properties('MP2/aug-cc-pvtz', properties = ['dipole'])
--------------------------------------------------------------------------

    Molecular point group: c1
  Charge       = 0
  Multiplicity = 1
  Basis Set: AUG-CC-PVTZ
    Blend: AUG-CC-PVTZ
  Basis Set: (AUG-CC-PVTZ AUX)
    Blend: AUG-CC-PVTZ-JKFIT

    Orbital Energies [Eh]
    ---------------------

    Doubly Occupied:

       1A    -20.585232     2A    -20.575624     3A    -20.559156
       4A    -20.555717     5A    -20.521791     6A    -15.635507
       7A    -15.600787     8A    -15.552804     9A    -11.387242
      10A    -11.359419    11A    -11.339655    12A    -11.327003
      13A    -11.301573    14A    -11.297187    15A    -11.294597
      16A    -11.293099    17A    -11.248109    18A     -1.420088
      19A     -1.393604    20A     -1.382275    21A     -1.369997
      22A     -1.346169    23A     -1.305111    24A     -1.273521
      25A     -1.182855    26A     -1.082415    27A     -1.063916
      28A     -1.018149    29A     -0.937793    30A     -0.907411
      31A     -0.877694    32A     -0.831458    33A     -0.808991
      34A     -0.767203    35A     -0.751116    36A     -0.736115
      37A     -0.721633    38A     -0.706992    39A     -0.701792
      40A     -0.685275    41A     -0.674600    42A     -0.653304
      43A     -0.648540    44A     -0.633332    45A     -0.616744
      46A     -0.614736    47A     -0.606019    48A     -0.596044
      49A     -0.574116    50A     -0.564176    51A     -0.553699
      52A     -0.547860    53A     -0.536437    54A     -0.530068
      55A     -0.496862    56A     -0.479401    57A     -0.473124
      58A     -0.462109    59A     -0.458793    60A     -0.451215
      61A     -0.443944    62A     -0.431367    63A     -0.393924
      64A     -0.350437

  @DF-RHF Final Energy:  -886.37104674977127

   => Energetics <=

    Nuclear Repulsion Energy =           1334.3843705134424908
    One-Electron Energy =               -3866.5169882757031701
    Two-Electron Energy =                1645.7615710124891848
    Total Energy =                       -886.3710467497712671
  Basis Set: (AUG-CC-PVTZ AUX)
    Blend: AUG-CC-PVTZ-RI
    Molecular point group: c1

    Geometry (in Angstrom), charge = 0, multiplicity = 1:

       Center              X                  Y                   Z               Mass
    ------------   -----------------  -----------------  -----------------  -----------------
         O           -1.333115301024     0.684477843542    -1.084192497720    15.994914619570
         O           -1.587499301024    -2.433443156458     0.528624502280    15.994914619570
         O           -3.574601301024    -1.039301156458    -0.444962497720    15.994914619570
         O           -1.453867301024     3.156103843542     0.141561502280    15.994914619570
         O            1.092614698976    -2.352723156458     0.022645502280    15.994914619570
         N            0.754697698976    -0.127302156458    -0.355591497720    14.003074004430
         N            2.922438698976    -0.963230156458     0.161051502280    14.003074004430
         N            4.691949698976     0.473752843542     0.376169502280    14.003074004430
         C           -1.390799301024    -1.037402156458     0.570321502280    12.000000000000
         C           -2.751922301024    -0.343994156458     0.472891502280    12.000000000000
         C           -0.627487201024    -0.514781756458    -0.649047897720    12.000000000000
         C           -2.384682301024     0.996186843542    -0.143462497720    12.000000000000
         C           -1.913141301024     2.020216843542     0.872181502280    12.000000000000
         C            1.217030698976     1.149721843542    -0.429179497720    12.000000000000
         C            1.596509698976    -1.216417156458    -0.043532497720    12.000000000000
         C            2.533526698976     1.406010843542    -0.184818497720    12.000000000000
         C            3.366270698976     0.282945843542     0.095884502280    12.000000000000
         H           -0.858074301024    -0.738053156458     1.484891502280     1.007825032230
         H           -3.239678301024    -0.247237156458     1.455066502280     1.007825032230
         H           -0.636645301024    -1.212170156458    -1.473328497720     1.007825032230
         H           -3.208113301024     1.409214843542    -0.732163497720     1.007825032230
         H           -1.109151301024     1.601040843542     1.495243502280     1.007825032230
         H           -2.754991301024     2.277302843542     1.531644502280     1.007825032230
         H           -0.684993301024    -2.795432156458     0.369268502280     1.007825032230
         H           -3.320285301024    -1.979880156458    -0.347885497720     1.007825032230
         H            0.478990698976     1.908467843542    -0.668992497720     1.007825032230
         H           -1.223818301024     3.846122843542     0.787077502280     1.007825032230
         H            2.919545698976     2.418198843542    -0.223868497720     1.007825032230
         H            5.145026698976     1.301914843542     0.014203502280     1.007825032230
         H            5.249592698976    -0.372485156458     0.375713502280     1.007825032230

  Basis Set: AUG-CC-PVTZ
    Blend: AUG-CC-PVTZ
  Basis Set: (AUG-CC-PVTZ AUX)
    Blend: AUG-CC-PVTZ-JKFIT
	 Reference Energy          =    -886.3710467497712671 [Eh]
	 Singles Energy            =      -0.0000000000000000 [Eh]
	 Same-Spin Energy          =      -0.9018960653486917 [Eh]
	 Opposite-Spin Energy      =      -2.7166765749317285 [Eh]
	 Correlation Energy        =      -3.6185726402804201 [Eh]
	 Total Energy              =    -889.9896193900516437 [Eh]

	 ================> DF-SCS-MP2 Energies <==================
	-----------------------------------------------------------
	 SCS Same-Spin Scale       =       0.3333333333333333 [-]
	 SCS Opposite-Spin Scale   =       1.2000000000000000 [-]
	 SCS Same-Spin Energy      =      -0.3006320217828972 [Eh]
	 SCS Opposite-Spin Energy  =      -3.2600118899180743 [Eh]
	 SCS Correlation Energy    =      -3.5606439117009714 [Eh]
	 SCS Total Energy          =    -889.9316906614722029 [Eh]
	-----------------------------------------------------------

  Dipole Moment: [D]
     X:     2.9526      Y:     5.6837      Z:     1.9667     Total:     6.7000

*** Psi4 exiting successfully. Buy a developer a beer!
