                               Psi4 1.4a3.dev225

  ==> Input File <==

--------------------------------------------------------------------------
#psi4
#
memory 32 gb

molecule  {
0 1
  O       -1.3191770     0.6538360    -1.0992360
  O       -1.5735610    -2.4640850     0.5135810
  O       -3.5606630    -1.0699430    -0.4600060
  O       -1.4399290     3.1254620     0.1265180
  O        1.1065530    -2.3833650     0.0076020
  N        0.7686360    -0.1579440    -0.3706350
  N        2.9363770    -0.9938720     0.1460080
  N        4.7058880     0.4431110     0.3611260
  C       -1.3796502    -1.0878397     0.5546867
  C       -2.7379840    -0.3746360     0.4578480
  C       -0.6377490    -0.5042940    -0.6790150
  C       -2.3707440     0.9655450    -0.1585060
  C       -1.8992030     1.9895750     0.8571380
  C        1.2309690     1.1190800    -0.4442230
  C        1.6104480    -1.2470590    -0.0585760
  C        2.5474650     1.3753690    -0.1998620
  C        3.3802090     0.2523040     0.0808410
  H       -0.8441360    -0.7686950     1.4698480
  H       -3.2257400    -0.2778790     1.4400230
  H       -0.6227070    -1.2428120    -1.4883720
  H       -3.1941750     1.3785730    -0.7472070
  H       -1.0952130     1.5703990     1.4802000
  H       -2.7410530     2.2466610     1.5166010
  H       -0.6710550    -2.8260740     0.3542250
  H       -3.3063470    -2.0105220    -0.3629290
  H        0.4929290     1.8778260    -0.6840360
  H       -1.2098800     3.8154810     0.7720340
  H        2.9334840     2.3875570    -0.2389120
  H        5.1589650     1.2712730    -0.0008400
  H        5.2635310    -0.4031270     0.3606700
units angstrom
no_reorient  #important for SAPT in psi4, default
symmetry c1  #important for SAPT in psi4, default
}

set PROPERTIES_ORIGIN ["COM"]
properties('MP2/aug-cc-pvtz', properties = ['dipole'])
--------------------------------------------------------------------------

    Molecular point group: c1
  Charge       = 0
  Multiplicity = 1
  Basis Set: AUG-CC-PVTZ
    Blend: AUG-CC-PVTZ
  Basis Set: (AUG-CC-PVTZ AUX)
    Blend: AUG-CC-PVTZ-JKFIT

    Orbital Energies [Eh]
    ---------------------

    Doubly Occupied:

       1A    -20.586493     2A    -20.581262     3A    -20.561302
       4A    -20.556117     5A    -20.519850     6A    -15.632840
       7A    -15.599545     8A    -15.551666     9A    -11.385934
      10A    -11.357926    11A    -11.339023    12A    -11.324900
      13A    -11.303235    14A    -11.297762    15A    -11.297495
      16A    -11.293165    17A    -11.246366    18A     -1.429071
      19A     -1.394097    20A     -1.385257    21A     -1.377934
      22A     -1.349456    23A     -1.303585    24A     -1.271102
      25A     -1.181054    26A     -1.078897    27A     -1.066552
      28A     -1.015515    29A     -0.935897    30A     -0.906399
      31A     -0.876660    32A     -0.830078    33A     -0.811662
      34A     -0.766250    35A     -0.750133    36A     -0.736460
      37A     -0.721730    38A     -0.708198    39A     -0.703634
      40A     -0.684910    41A     -0.675496    42A     -0.653159
      43A     -0.649341    44A     -0.633327    45A     -0.621646
      46A     -0.615414    47A     -0.607791    48A     -0.593905
      49A     -0.577228    50A     -0.564906    51A     -0.556718
      52A     -0.549131    53A     -0.538521    54A     -0.530969
      55A     -0.495707    56A     -0.480546    57A     -0.472173
      58A     -0.462722    59A     -0.458002    60A     -0.451654
      61A     -0.440263    62A     -0.430178    63A     -0.391920
      64A     -0.347947

  @DF-RHF Final Energy:  -886.37424339753341

   => Energetics <=

    Nuclear Repulsion Energy =           1334.4623205501666234
    One-Electron Energy =               -3866.6369788915189929
    Two-Electron Energy =                1645.8004149438190780
    Total Energy =                       -886.3742433975332915
  Basis Set: (AUG-CC-PVTZ AUX)
    Blend: AUG-CC-PVTZ-RI
    Molecular point group: c1

    Geometry (in Angstrom), charge = 0, multiplicity = 1:

       Center              X                  Y                   Z               Mass
    ------------   -----------------  -----------------  -----------------  -----------------
         O           -1.331782964983     0.683424688259    -1.083426599366    15.994914619570
         O           -1.586166964983    -2.434496311741     0.529390400634    15.994914619570
         O           -3.573268964983    -1.040354311741    -0.444196599366    15.994914619570
         O           -1.452534964983     3.155050688259     0.142327400634    15.994914619570
         O            1.093947035017    -2.353776311741     0.023411400634    15.994914619570
         N            0.756030035017    -0.128355311741    -0.354825599366    14.003074004430
         N            2.923771035017    -0.964283311741     0.161817400634    14.003074004430
         N            4.693282035017     0.472699688259     0.376935400634    14.003074004430
         C           -1.392256164983    -1.058251011741     0.570496100634    12.000000000000
         C           -2.750589964983    -0.345047311741     0.473657400634    12.000000000000
         C           -0.650354964983    -0.474705311741    -0.663205599366    12.000000000000
         C           -2.383349964983     0.995133688259    -0.142696599366    12.000000000000
         C           -1.911808964983     2.019163688259     0.872947400634    12.000000000000
         C            1.218363035017     1.148668688259    -0.428413599366    12.000000000000
         C            1.597842035017    -1.217470311741    -0.042766599366    12.000000000000
         C            2.534859035017     1.404957688259    -0.184052599366    12.000000000000
         C            3.367603035017     0.281892688259     0.096650400634    12.000000000000
         H           -0.856741964983    -0.739106311741     1.485657400634     1.007825032230
         H           -3.238345964983    -0.248290311741     1.455832400634     1.007825032230
         H           -0.635312964983    -1.213223311741    -1.472562599366     1.007825032230
         H           -3.206780964983     1.408161688259    -0.731397599366     1.007825032230
         H           -1.107818964983     1.599987688259     1.496009400634     1.007825032230
         H           -2.753658964983     2.276249688259     1.532410400634     1.007825032230
         H           -0.683660964983    -2.796485311741     0.370034400634     1.007825032230
         H           -3.318952964983    -1.980933311741    -0.347119599366     1.007825032230
         H            0.480323035017     1.907414688259    -0.668226599366     1.007825032230
         H           -1.222485964983     3.845069688259     0.787843400634     1.007825032230
         H            2.920878035017     2.417145688259    -0.223102599366     1.007825032230
         H            5.146359035017     1.300861688259     0.014969400634     1.007825032230
         H            5.250925035017    -0.373538311741     0.376479400634     1.007825032230

  Basis Set: AUG-CC-PVTZ
    Blend: AUG-CC-PVTZ
  Basis Set: (AUG-CC-PVTZ AUX)
    Blend: AUG-CC-PVTZ-JKFIT
	 Reference Energy          =    -886.3742433975334052 [Eh]
	 Singles Energy            =      -0.0000000000000000 [Eh]
	 Same-Spin Energy          =      -0.9017703283129839 [Eh]
	 Opposite-Spin Energy      =      -2.7156016286640838 [Eh]
	 Correlation Energy        =      -3.6173719569770677 [Eh]
	 Total Energy              =    -889.9916153545104862 [Eh]

	 ================> DF-SCS-MP2 Energies <==================
	-----------------------------------------------------------
	 SCS Same-Spin Scale       =       0.3333333333333333 [-]
	 SCS Opposite-Spin Scale   =       1.2000000000000000 [-]
	 SCS Same-Spin Energy      =      -0.3005901094376613 [Eh]
	 SCS Opposite-Spin Energy  =      -3.2587219543969006 [Eh]
	 SCS Correlation Energy    =      -3.5593120638345619 [Eh]
	 SCS Total Energy          =    -889.9335554613679733 [Eh]
	-----------------------------------------------------------

  Dipole Moment: [D]
     X:     2.7253      Y:     5.7400      Z:     1.9479     Total:     6.6460

*** Psi4 exiting successfully. Buy a developer a beer!
