                               Psi4 1.3.2 release

  ==> Input File <==

--------------------------------------------------------------------------
#psi4
#
memory 32 gb

molecule  {
0 1
  O       -1.2481010    -0.6526680     1.0325150
  O       -1.2449750     2.4828510    -0.6861630
  O       -3.2165300     1.5210990     0.7448870
  O       -2.3570290    -3.0668370     0.0949400
  O        1.3605300     2.2470340    -0.0765420
  N        0.8434040     0.0452230     0.2559430
  N        3.0572260     0.7205030    -0.2937270
  N        4.7164630    -0.8366550    -0.5722980
  C       -1.2894840     1.0784300    -0.5920770
  C       -2.7151710     0.6552070    -0.2573930
  C       -0.5254080     0.4815200     0.6000940
  C       -2.5292560    -0.7168860     0.3610560
  C       -2.5283440    -1.8503930    -0.6392900
  C        1.2314684    -1.2158365     0.3041653
  C        1.7555940     1.0674350    -0.0594030
  C        2.5111010    -1.6091400     0.0469950
  C        3.4119830    -0.5506530    -0.2589250
  H       -0.9376060     0.5914040    -1.5148910
  H       -3.3625820     0.6426650    -1.1464650
  H       -0.4402900     1.2218800     1.4039980
  H       -3.2819570    -0.9087340     1.1307830
  H       -1.7133080    -1.7003050    -1.3694640
  H       -3.4855610    -1.8340040    -1.1841350
  H       -0.2975250     2.7131790    -0.5250000
  H       -2.8475560     2.3997430     0.5086630
  H        0.4343110    -1.9634370     0.5690680
  H       -2.4338740    -3.7984320    -0.5432330
  H        2.8640899    -2.6342105     0.0647690
  H        5.1251800    -1.6708610    -0.1624140
  H        5.3198140    -0.0200540    -0.5682940
units angstrom
no_reorient  #important for SAPT in psi4, default
symmetry c1  #important for SAPT in psi4, default
}

set PROPERTIES_ORIGIN ["COM"]
properties('MP2/aug-cc-pvtz', properties = ['dipole'])
--------------------------------------------------------------------------

    Molecular point group: c1
  Charge       = 0
  Multiplicity = 1
  Basis Set: AUG-CC-PVTZ
    Blend: AUG-CC-PVTZ
  Basis Set: (AUG-CC-PVTZ AUX)
    Blend: AUG-CC-PVTZ-JKFIT

    Orbital Energies [Eh]
    ---------------------

    Doubly Occupied:

       1A    -20.582945     2A    -20.582384     3A    -20.558896
       4A    -20.558651     5A    -20.522982     6A    -15.640207
       7A    -15.597820     8A    -15.551824     9A    -11.388840
      10A    -11.354433    11A    -11.344606    12A    -11.327455
      13A    -11.301641    14A    -11.298652    15A    -11.297851
      16A    -11.294227    17A    -11.244721    18A     -1.432107
      19A     -1.398854    20A     -1.381348    21A     -1.373384
      22A     -1.347576    23A     -1.310803    24A     -1.279190
      25A     -1.181989    26A     -1.080871    27A     -1.068836
      28A     -1.023619    29A     -0.937612    30A     -0.910441
      31A     -0.877816    32A     -0.833997    33A     -0.812631
      34A     -0.768840    35A     -0.755044    36A     -0.738398
      37A     -0.718019    38A     -0.703105    39A     -0.699543
      40A     -0.682264    41A     -0.673530    42A     -0.656574
      43A     -0.652949    44A     -0.640636    45A     -0.619426
      46A     -0.613401    47A     -0.601513    48A     -0.598445
      49A     -0.574733    50A     -0.569802    51A     -0.554605
      52A     -0.546818    53A     -0.538451    54A     -0.532247
      55A     -0.502605    56A     -0.478430    57A     -0.475667
      58A     -0.463152    59A     -0.460370    60A     -0.454098
      61A     -0.441239    62A     -0.432228    63A     -0.395448
      64A     -0.347723

  @DF-RHF Final Energy:  -886.37114676033650

   => Energetics <=

    Nuclear Repulsion Energy =           1324.6808488204935657
    One-Electron Energy =               -3846.9269640768388854
    Two-Electron Energy =                1635.8749684960091599
    Total Energy =                       -886.3711467603363872
  Basis Set: (AUG-CC-PVTZ AUX)
    Blend: AUG-CC-PVTZ-RI
    Molecular point group: c1

    Geometry (in Angstrom), charge = 0, multiplicity = 1:

       Center              X                  Y                   Z               Mass
    ------------   -----------------  -----------------  -----------------  -----------------
         O           -1.248823299922    -0.654964025599     1.032903878946    15.994914619570
         O           -1.245697299922     2.480554974401    -0.685774121054    15.994914619570
         O           -3.217252299922     1.518802974401     0.745275878946    15.994914619570
         O           -2.357751299922    -3.069133025599     0.095328878946    15.994914619570
         O            1.359807700078     2.244737974401    -0.076153121054    15.994914619570
         N            0.842681700078     0.042926974401     0.256331878946    14.003074004430
         N            3.056503700078     0.718206974401    -0.293338121054    14.003074004430
         N            4.715740700078    -0.838951025599    -0.571909121054    14.003074004430
         C           -1.290206299922     1.076133974401    -0.591688121054    12.000000000000
         C           -2.715893299922     0.652910974401    -0.257004121054    12.000000000000
         C           -0.526130299922     0.479223974401     0.600482878946    12.000000000000
         C           -2.529978299922    -0.719182025599     0.361444878946    12.000000000000
         C           -2.529066299922    -1.852689025599    -0.638901121054    12.000000000000
         C            1.230746100078    -1.218132525599     0.304554178946    12.000000000000
         C            1.754871700078     1.065138974401    -0.059014121054    12.000000000000
         C            2.510378700078    -1.611436025599     0.047383878946    12.000000000000
         C            3.411260700078    -0.552949025599    -0.258536121054    12.000000000000
         H           -0.938328299922     0.589107974401    -1.514502121054     1.007825032230
         H           -3.363304299922     0.640368974401    -1.146076121054     1.007825032230
         H           -0.441012299922     1.219583974401     1.404386878946     1.007825032230
         H           -3.282679299922    -0.911030025599     1.131171878946     1.007825032230
         H           -1.714030299922    -1.702601025599    -1.369075121054     1.007825032230
         H           -3.486283299922    -1.836300025599    -1.183746121054     1.007825032230
         H           -0.298247299922     2.710882974401    -0.524611121054     1.007825032230
         H           -2.848278299922     2.397446974401     0.509051878946     1.007825032230
         H            0.433588700078    -1.965733025599     0.569456878946     1.007825032230
         H           -2.434596299922    -3.800728025599    -0.542844121054     1.007825032230
         H            2.863367600078    -2.636506525599     0.065157878946     1.007825032230
         H            5.124457700078    -1.673157025599    -0.162025121054     1.007825032230
         H            5.319091700078    -0.022350025599    -0.567905121054     1.007825032230

  Basis Set: AUG-CC-PVTZ
    Blend: AUG-CC-PVTZ
  Basis Set: (AUG-CC-PVTZ AUX)
    Blend: AUG-CC-PVTZ-JKFIT
	 Reference Energy          =    -886.3711467603365008 [Eh]
	 Singles Energy            =      -0.0000000000000000 [Eh]
	 Same-Spin Energy          =      -0.9014113119516203 [Eh]
	 Opposite-Spin Energy      =      -2.7145069472622385 [Eh]
	 Correlation Energy        =      -3.6159182592138590 [Eh]
	 Total Energy              =    -889.9870650195504140 [Eh]

	 ================> DF-SCS-MP2 Energies <==================
	-----------------------------------------------------------
	 SCS Same-Spin Scale       =       0.3333333333333333 [-]
	 SCS Opposite-Spin Scale   =       1.2000000000000000 [-]
	 SCS Same-Spin Energy      =      -0.3004704373172067 [Eh]
	 SCS Opposite-Spin Energy  =      -3.2574083367146862 [Eh]
	 SCS Correlation Energy    =      -3.5578787740318929 [Eh]
	 SCS Total Energy          =    -889.9290255343684066 [Eh]
	-----------------------------------------------------------

  Dipole Moment: [D]
     X:     1.5582      Y:    -5.8532      Z:    -1.8121     Total:     6.3223

*** Psi4 exiting successfully. Buy a developer a beer!
