                               Psi4 1.3.2 release

  ==> Input File <==

--------------------------------------------------------------------------
#psi4
#
memory 32 gb

molecule  {
0 1
  O       -1.2481010    -0.6526680     1.0325150
  O       -1.2449750     2.4828510    -0.6861630
  O       -3.2165300     1.5210990     0.7448870
  O       -2.3570290    -3.0668370     0.0949400
  O        1.3605300     2.2470340    -0.0765420
  N        0.8434040     0.0452230     0.2559430
  N        3.0572260     0.7205030    -0.2937270
  N        4.7164630    -0.8366550    -0.5722980
  C       -1.2894840     1.0784300    -0.5920770
  C       -2.7151710     0.6552070    -0.2573930
  C       -0.5254080     0.4815200     0.6000940
  C       -2.5292560    -0.7168860     0.3610560
  C       -2.5283440    -1.8503930    -0.6392900
  C        1.2197750    -1.2614080     0.3112740
  C        1.7238394     1.1622493    -0.0607806
  C        2.5111010    -1.6091400     0.0469950
  C        3.4119830    -0.5506530    -0.2589250
  H       -0.9376060     0.5914040    -1.5148910
  H       -3.3625820     0.6426650    -1.1464650
  H       -0.4402900     1.2218800     1.4039980
  H       -3.2819570    -0.9087340     1.1307830
  H       -1.7133080    -1.7003050    -1.3694640
  H       -3.4855610    -1.8340040    -1.1841350
  H       -0.2975250     2.7131790    -0.5250000
  H       -2.8475560     2.3997430     0.5086630
  H        0.4343110    -1.9634370     0.5690680
  H       -2.4338740    -3.7984320    -0.5432330
  H        2.8291120    -2.6453980     0.0739220
  H        5.1251800    -1.6708610    -0.1624140
  H        5.3198140    -0.0200540    -0.5682940
units angstrom
no_reorient  #important for SAPT in psi4, default
symmetry c1  #important for SAPT in psi4, default
}

set PROPERTIES_ORIGIN ["COM"]
properties('MP2/aug-cc-pvtz', properties = ['dipole'])
--------------------------------------------------------------------------

    Molecular point group: c1
  Charge       = 0
  Multiplicity = 1
  Basis Set: AUG-CC-PVTZ
    Blend: AUG-CC-PVTZ
  Basis Set: (AUG-CC-PVTZ AUX)
    Blend: AUG-CC-PVTZ-JKFIT

    Orbital Energies [Eh]
    ---------------------

    Doubly Occupied:

       1A    -20.581039     2A    -20.579520     3A    -20.564952
       4A    -20.559432     5A    -20.551051     6A    -15.625174
       7A    -15.591503     8A    -15.543099     9A    -11.392104
      10A    -11.348248    11A    -11.338583    12A    -11.321140
      13A    -11.300251    14A    -11.298228    15A    -11.296255
      16A    -11.293971    17A    -11.238256    18A     -1.468195
      19A     -1.422114    20A     -1.383098    21A     -1.372535
      22A     -1.351111    23A     -1.304518    24A     -1.263039
      25A     -1.162809    26A     -1.074549    27A     -1.067652
      28A     -1.017470    29A     -0.931296    30A     -0.897763
      31A     -0.869706    32A     -0.828226    33A     -0.811355
      34A     -0.759265    35A     -0.750983    36A     -0.738655
      37A     -0.721548    38A     -0.701931    39A     -0.699537
      40A     -0.686279    41A     -0.672947    42A     -0.670052
      43A     -0.653343    44A     -0.639588    45A     -0.623265
      46A     -0.616685    47A     -0.604886    48A     -0.599090
      49A     -0.575903    50A     -0.568554    51A     -0.556376
      52A     -0.550741    53A     -0.545766    54A     -0.534663
      55A     -0.504956    56A     -0.488067    57A     -0.476818
      58A     -0.475103    59A     -0.460152    60A     -0.455522
      61A     -0.439742    62A     -0.412609    63A     -0.387882
      64A     -0.342171

  @DF-RHF Final Energy:  -886.35952369289203

   => Energetics <=

    Nuclear Repulsion Energy =           1323.5285287197416437
    One-Electron Energy =               -3844.6534638081730009
    Two-Electron Energy =                1634.7654113955393314
    Total Energy =                       -886.3595236928920258
  Basis Set: (AUG-CC-PVTZ AUX)
    Blend: AUG-CC-PVTZ-RI
    Molecular point group: c1

    Geometry (in Angstrom), charge = 0, multiplicity = 1:

       Center              X                  Y                   Z               Mass
    ------------   -----------------  -----------------  -----------------  -----------------
         O           -1.246533457228    -0.657348530263     1.032583013177    15.994914619570
         O           -1.243407457228     2.478170469737    -0.686094986823    15.994914619570
         O           -3.214962457228     1.516418469737     0.744955013177    15.994914619570
         O           -2.355461457228    -3.071517530263     0.095008013177    15.994914619570
         O            1.362097542772     2.242353469737    -0.076473986823    15.994914619570
         N            0.844971542772     0.040542469737     0.256011013177    14.003074004430
         N            3.058793542772     0.715822469737    -0.293658986823    14.003074004430
         N            4.718030542772    -0.841335530263    -0.572229986823    14.003074004430
         C           -1.287916457228     1.073749469737    -0.592008986823    12.000000000000
         C           -2.713603457228     0.650526469737    -0.257324986823    12.000000000000
         C           -0.523840457228     0.476839469737     0.600162013177    12.000000000000
         C           -2.527688457228    -0.721566530263     0.361124013177    12.000000000000
         C           -2.526776457228    -1.855073530263    -0.639221986823    12.000000000000
         C            1.221342542772    -1.266088530263     0.311342013177    12.000000000000
         C            1.725406942772     1.157568769737    -0.060712586823    12.000000000000
         C            2.512668542772    -1.613820530263     0.047063013177    12.000000000000
         C            3.413550542772    -0.555333530263    -0.258856986823    12.000000000000
         H           -0.936038457228     0.586723469737    -1.514822986823     1.007825032230
         H           -3.361014457228     0.637984469737    -1.146396986823     1.007825032230
         H           -0.438722457228     1.217199469737     1.404066013177     1.007825032230
         H           -3.280389457228    -0.913414530263     1.130851013177     1.007825032230
         H           -1.711740457228    -1.704985530263    -1.369395986823     1.007825032230
         H           -3.483993457228    -1.838684530263    -1.184066986823     1.007825032230
         H           -0.295957457228     2.708498469737    -0.524931986823     1.007825032230
         H           -2.845988457228     2.395062469737     0.508731013177     1.007825032230
         H            0.435878542772    -1.968117530263     0.569136013177     1.007825032230
         H           -2.432306457228    -3.803112530263    -0.543164986823     1.007825032230
         H            2.830679542772    -2.650078530263     0.073990013177     1.007825032230
         H            5.126747542772    -1.675541530263    -0.162345986823     1.007825032230
         H            5.321381542772    -0.024734530263    -0.568225986823     1.007825032230

  Basis Set: AUG-CC-PVTZ
    Blend: AUG-CC-PVTZ
  Basis Set: (AUG-CC-PVTZ AUX)
    Blend: AUG-CC-PVTZ-JKFIT
	 Reference Energy          =    -886.3595236928920258 [Eh]
	 Singles Energy            =      -0.0000000000000000 [Eh]
	 Same-Spin Energy          =      -0.8998448237045716 [Eh]
	 Opposite-Spin Energy      =      -2.7132309721317345 [Eh]
	 Correlation Energy        =      -3.6130757958363060 [Eh]
	 Total Energy              =    -889.9725994887282923 [Eh]

	 ================> DF-SCS-MP2 Energies <==================
	-----------------------------------------------------------
	 SCS Same-Spin Scale       =       0.3333333333333333 [-]
	 SCS Opposite-Spin Scale   =       1.2000000000000000 [-]
	 SCS Same-Spin Energy      =      -0.2999482745681905 [Eh]
	 SCS Opposite-Spin Energy  =      -3.2558771665580815 [Eh]
	 SCS Correlation Energy    =      -3.5558254411262720 [Eh]
	 SCS Total Energy          =    -889.9153491340182427 [Eh]
	-----------------------------------------------------------

  Dipole Moment: [D]
     X:     1.2439      Y:    -4.9036      Z:    -1.8435     Total:     5.3843

*** Psi4 exiting successfully. Buy a developer a beer!
