                               Psi4 1.3.2 release

  ==> Input File <==

--------------------------------------------------------------------------
#psi4
#
memory 32 gb

molecule  {
0 1
  O       -1.2481010    -0.6526680     1.0325150
  O       -1.2449750     2.4828510    -0.6861630
  O       -3.2165300     1.5210990     0.7448870
  O       -2.3570290    -3.0668370     0.0949400
  O        1.3605300     2.2470340    -0.0765420
  N        0.8434040     0.0452230     0.2559430
  N        3.0572260     0.7205030    -0.2937270
  N        4.7164630    -0.8366550    -0.5722980
  C       -1.2894840     1.0784300    -0.5920770
  C       -2.7151710     0.6552070    -0.2573930
  C       -0.5254080     0.4815200     0.6000940
  C       -2.5292560    -0.7168860     0.3610560
  C       -2.5283440    -1.8503930    -0.6392900
  C        1.2197750    -1.2614080     0.3112740
  C        1.7555940     1.0674350    -0.0594030
  C        2.5111010    -1.6091400     0.0469950
  C        3.4119830    -0.5506530    -0.2589250
  H       -0.9695606     0.6356316    -1.4310887
  H       -3.3625820     0.6426650    -1.1464650
  H       -0.4402900     1.2218800     1.4039980
  H       -3.2819570    -0.9087340     1.1307830
  H       -1.7133080    -1.7003050    -1.3694640
  H       -3.4855610    -1.8340040    -1.1841350
  H       -0.2975250     2.7131790    -0.5250000
  H       -2.8475560     2.3997430     0.5086630
  H        0.4343110    -1.9634370     0.5690680
  H       -2.4338740    -3.7984320    -0.5432330
  H        2.8291120    -2.6453980     0.0739220
  H        5.1251800    -1.6708610    -0.1624140
  H        5.3198140    -0.0200540    -0.5682940
units angstrom
no_reorient  #important for SAPT in psi4, default
symmetry c1  #important for SAPT in psi4, default
}

set PROPERTIES_ORIGIN ["COM"]
properties('MP2/aug-cc-pvtz', properties = ['dipole'])
--------------------------------------------------------------------------

    Molecular point group: c1
  Charge       = 0
  Multiplicity = 1
  Basis Set: AUG-CC-PVTZ
    Blend: AUG-CC-PVTZ
  Basis Set: (AUG-CC-PVTZ AUX)
    Blend: AUG-CC-PVTZ-JKFIT

    Orbital Energies [Eh]
    ---------------------

    Doubly Occupied:

       1A    -20.582590     2A    -20.581321     3A    -20.556992
       4A    -20.555238     5A    -20.522015     6A    -15.637118
       7A    -15.599961     8A    -15.553461     9A    -11.388337
      10A    -11.357982    11A    -11.340517    12A    -11.328658
      13A    -11.301685    14A    -11.296817    15A    -11.292269
      16A    -11.284178    17A    -11.248717    18A     -1.429213
      19A     -1.396398    20A     -1.379556    21A     -1.372757
      22A     -1.345403    23A     -1.306166    24A     -1.273930
      25A     -1.182363    26A     -1.082403    27A     -1.069219
      28A     -1.024185    29A     -0.935629    30A     -0.909778
      31A     -0.878544    32A     -0.838148    33A     -0.812851
      34A     -0.767621    35A     -0.752963    36A     -0.738954
      37A     -0.721695    38A     -0.703086    39A     -0.702031
      40A     -0.685903    41A     -0.674011    42A     -0.655444
      43A     -0.651708    44A     -0.640305    45A     -0.620576
      46A     -0.614744    47A     -0.607480    48A     -0.593899
      49A     -0.576101    50A     -0.569546    51A     -0.554080
      52A     -0.546436    53A     -0.537122    54A     -0.531796
      55A     -0.498008    56A     -0.477540    57A     -0.475570
      58A     -0.461968    59A     -0.460327    60A     -0.455398
      61A     -0.440651    62A     -0.433306    63A     -0.395201
      64A     -0.350063

  @DF-RHF Final Energy:  -886.36844945025382

   => Energetics <=

    Nuclear Repulsion Energy =           1324.3111478583184635
    One-Electron Energy =               -3846.2433235754810994
    Two-Electron Energy =                1635.5637262669090433
    Total Energy =                       -886.3684494502538200
  Basis Set: (AUG-CC-PVTZ AUX)
    Blend: AUG-CC-PVTZ-RI
    Molecular point group: c1

    Geometry (in Angstrom), charge = 0, multiplicity = 1:

       Center              X                  Y                   Z               Mass
    ------------   -----------------  -----------------  -----------------  -----------------
         O           -1.247968551155    -0.652851356120     1.032167565743    15.994914619570
         O           -1.244842551155     2.482667643880    -0.686510434257    15.994914619570
         O           -3.216397551155     1.520915643880     0.744539565743    15.994914619570
         O           -2.356896551155    -3.067020356120     0.094592565743    15.994914619570
         O            1.360662448845     2.246850643880    -0.076889434257    15.994914619570
         N            0.843536448845     0.045039643880     0.255595565743    14.003074004430
         N            3.057358448845     0.720319643880    -0.294074434257    14.003074004430
         N            4.716595448845    -0.836838356120    -0.572645434257    14.003074004430
         C           -1.289351551155     1.078246643880    -0.592424434257    12.000000000000
         C           -2.715038551155     0.655023643880    -0.257740434257    12.000000000000
         C           -0.525275551155     0.481336643880     0.599746565743    12.000000000000
         C           -2.529123551155    -0.717069356120     0.360708565743    12.000000000000
         C           -2.528211551155    -1.850576356120    -0.639637434257    12.000000000000
         C            1.219907448845    -1.261591356120     0.310926565743    12.000000000000
         C            1.755726448845     1.067251643880    -0.059750434257    12.000000000000
         C            2.511233448845    -1.609323356120     0.046647565743    12.000000000000
         C            3.412115448845    -0.550836356120    -0.259272434257    12.000000000000
         H           -0.969428151155     0.635448243880    -1.431436134257     1.007825032230
         H           -3.362449551155     0.642481643880    -1.146812434257     1.007825032230
         H           -0.440157551155     1.221696643880     1.403650565743     1.007825032230
         H           -3.281824551155    -0.908917356120     1.130435565743     1.007825032230
         H           -1.713175551155    -1.700488356120    -1.369811434257     1.007825032230
         H           -3.485428551155    -1.834187356120    -1.184482434257     1.007825032230
         H           -0.297392551155     2.712995643880    -0.525347434257     1.007825032230
         H           -2.847423551155     2.399559643880     0.508315565743     1.007825032230
         H            0.434443448845    -1.963620356120     0.568720565743     1.007825032230
         H           -2.433741551155    -3.798615356120    -0.543580434257     1.007825032230
         H            2.829244448845    -2.645581356120     0.073574565743     1.007825032230
         H            5.125312448845    -1.671044356120    -0.162761434257     1.007825032230
         H            5.319946448845    -0.020237356120    -0.568641434257     1.007825032230

  Basis Set: AUG-CC-PVTZ
    Blend: AUG-CC-PVTZ
  Basis Set: (AUG-CC-PVTZ AUX)
    Blend: AUG-CC-PVTZ-JKFIT
	 Reference Energy          =    -886.3684494502538200 [Eh]
	 Singles Energy            =      -0.0000000000000000 [Eh]
	 Same-Spin Energy          =      -0.9010099479705401 [Eh]
	 Opposite-Spin Energy      =      -2.7141427685391011 [Eh]
	 Correlation Energy        =      -3.6151527165096411 [Eh]
	 Total Energy              =    -889.9836021667634895 [Eh]

	 ================> DF-SCS-MP2 Energies <==================
	-----------------------------------------------------------
	 SCS Same-Spin Scale       =       0.3333333333333333 [-]
	 SCS Opposite-Spin Scale   =       1.2000000000000000 [-]
	 SCS Same-Spin Energy      =      -0.3003366493235133 [Eh]
	 SCS Opposite-Spin Energy  =      -3.2569713222469212 [Eh]
	 SCS Correlation Energy    =      -3.5573079715704345 [Eh]
	 SCS Total Energy          =    -889.9257574218243008 [Eh]
	-----------------------------------------------------------

  Dipole Moment: [D]
     X:     1.7251      Y:    -6.0037      Z:    -1.8554     Total:     6.5163

*** Psi4 exiting successfully. Buy a developer a beer!
