                               Psi4 1.3.2 release

  ==> Input File <==

--------------------------------------------------------------------------
#psi4
#
memory 32 gb

molecule  {
0 1
  O       -1.2481010    -0.6526680     1.0325150
  O       -1.2449750     2.4828510    -0.6861630
  O       -3.2165300     1.5210990     0.7448870
  O       -2.3570290    -3.0668370     0.0949400
  O        1.3605300     2.2470340    -0.0765420
  N        0.8434040     0.0452230     0.2559430
  N        3.0572260     0.7205030    -0.2937270
  N        4.7164630    -0.8366550    -0.5722980
  C       -1.2894840     1.0784300    -0.5920770
  C       -2.7151710     0.6552070    -0.2573930
  C       -0.5254080     0.4815200     0.6000940
  C       -2.5292560    -0.7168860     0.3610560
  C       -2.5283440    -1.8503930    -0.6392900
  C        1.2379541    -1.1932049     0.3007246
  C        1.7555940     1.0674350    -0.0594030
  C        2.5111010    -1.6091400     0.0469950
  C        3.3555295    -0.5027710    -0.2504244
  H       -0.9376060     0.5914040    -1.5148910
  H       -3.3625820     0.6426650    -1.1464650
  H       -0.4402900     1.2218800     1.4039980
  H       -3.2819570    -0.9087340     1.1307830
  H       -1.7133080    -1.7003050    -1.3694640
  H       -3.4855610    -1.8340040    -1.1841350
  H       -0.2975250     2.7131790    -0.5250000
  H       -2.8475560     2.3997430     0.5086630
  H        0.4343110    -1.9634370     0.5690680
  H       -2.4338740    -3.7984320    -0.5432330
  H        2.8291120    -2.6453980     0.0739220
  H        5.1251800    -1.6708610    -0.1624140
  H        5.3198140    -0.0200540    -0.5682940
units angstrom
no_reorient  #important for SAPT in psi4, default
symmetry c1  #important for SAPT in psi4, default
}

set PROPERTIES_ORIGIN ["COM"]
properties('MP2/aug-cc-pvtz', properties = ['dipole'])
--------------------------------------------------------------------------

    Molecular point group: c1
  Charge       = 0
  Multiplicity = 1
  Basis Set: AUG-CC-PVTZ
    Blend: AUG-CC-PVTZ
  Basis Set: (AUG-CC-PVTZ AUX)
    Blend: AUG-CC-PVTZ-JKFIT

    Orbital Energies [Eh]
    ---------------------

    Doubly Occupied:

       1A    -20.585317     2A    -20.583285     3A    -20.561916
       4A    -20.561002     5A    -20.531144     6A    -15.644724
       7A    -15.583396     8A    -15.557385     9A    -11.396585
      10A    -11.349966    11A    -11.348563    12A    -11.325316
      13A    -11.302923    14A    -11.301770    15A    -11.299700
      16A    -11.296472    17A    -11.243753    18A     -1.436919
      19A     -1.406934    20A     -1.383941    21A     -1.374840
      22A     -1.350440    23A     -1.320872    24A     -1.280360
      25A     -1.177511    26A     -1.083798    27A     -1.070949
      28A     -1.026089    29A     -0.939729    30A     -0.915624
      31A     -0.881549    32A     -0.836283    33A     -0.814017
      34A     -0.766579    35A     -0.760323    36A     -0.741547
      37A     -0.712745    38A     -0.702248    39A     -0.697716
      40A     -0.679104    41A     -0.665080    42A     -0.660168
      43A     -0.657416    44A     -0.647355    45A     -0.624078
      46A     -0.615969    47A     -0.604400    48A     -0.593185
      49A     -0.575617    50A     -0.569450    51A     -0.556180
      52A     -0.548276    53A     -0.539894    54A     -0.527750
      55A     -0.508591    56A     -0.480902    57A     -0.477851
      58A     -0.470364    59A     -0.464645    60A     -0.456739
      61A     -0.442571    62A     -0.438289    63A     -0.402281
      64A     -0.348493

  @DF-RHF Final Energy:  -886.36029721922785

   => Energetics <=

    Nuclear Repulsion Energy =           1326.3652280881387924
    One-Electron Energy =               -3850.0332944861265787
    Two-Electron Energy =                1637.3077691787598269
    Total Energy =                       -886.3602972192279594
  Basis Set: (AUG-CC-PVTZ AUX)
    Blend: AUG-CC-PVTZ-RI
    Molecular point group: c1

    Geometry (in Angstrom), charge = 0, multiplicity = 1:

       Center              X                  Y                   Z               Mass
    ------------   -----------------  -----------------  -----------------  -----------------
         O           -1.246211605068    -0.658398570592     1.032616147195    15.994914619570
         O           -1.243085605068     2.477120429408    -0.686061852805    15.994914619570
         O           -3.214640605068     1.515368429408     0.744988147195    15.994914619570
         O           -2.355139605068    -3.072567570592     0.095041147195    15.994914619570
         O            1.362419394932     2.241303429408    -0.076440852805    15.994914619570
         N            0.845293394932     0.039492429408     0.256044147195    14.003074004430
         N            3.059115394932     0.714772429408    -0.293625852805    14.003074004430
         N            4.718352394932    -0.842385570592    -0.572196852805    14.003074004430
         C           -1.287594605068     1.072699429408    -0.591975852805    12.000000000000
         C           -2.713281605068     0.649476429408    -0.257291852805    12.000000000000
         C           -0.523518605068     0.475789429408     0.600195147195    12.000000000000
         C           -2.527366605068    -0.722616570592     0.361157147195    12.000000000000
         C           -2.526454605068    -1.856123570592    -0.639188852805    12.000000000000
         C            1.239843494932    -1.198935470592     0.300825747195    12.000000000000
         C            1.757483394932     1.061704429408    -0.059301852805    12.000000000000
         C            2.512990394932    -1.614870570592     0.047096147195    12.000000000000
         C            3.357418894932    -0.508501570592    -0.250323252805    12.000000000000
         H           -0.935716605068     0.585673429408    -1.514789852805     1.007825032230
         H           -3.360692605068     0.636934429408    -1.146363852805     1.007825032230
         H           -0.438400605068     1.216149429408     1.404099147195     1.007825032230
         H           -3.280067605068    -0.914464570592     1.130884147195     1.007825032230
         H           -1.711418605068    -1.706035570592    -1.369362852805     1.007825032230
         H           -3.483671605068    -1.839734570592    -1.184033852805     1.007825032230
         H           -0.295635605068     2.707448429408    -0.524898852805     1.007825032230
         H           -2.845666605068     2.394012429408     0.508764147195     1.007825032230
         H            0.436200394932    -1.969167570592     0.569169147195     1.007825032230
         H           -2.431984605068    -3.804162570592    -0.543131852805     1.007825032230
         H            2.831001394932    -2.651128570592     0.074023147195     1.007825032230
         H            5.127069394932    -1.676591570592    -0.162312852805     1.007825032230
         H            5.321703394932    -0.025784570592    -0.568192852805     1.007825032230

  Basis Set: AUG-CC-PVTZ
    Blend: AUG-CC-PVTZ
  Basis Set: (AUG-CC-PVTZ AUX)
    Blend: AUG-CC-PVTZ-JKFIT
	 Reference Energy          =    -886.3602972192278457 [Eh]
	 Singles Energy            =      -0.0000000000000000 [Eh]
	 Same-Spin Energy          =      -0.9011653775722879 [Eh]
	 Opposite-Spin Energy      =      -2.7143200774003340 [Eh]
	 Correlation Energy        =      -3.6154854549726219 [Eh]
	 Total Energy              =    -889.9757826742004454 [Eh]

	 ================> DF-SCS-MP2 Energies <==================
	-----------------------------------------------------------
	 SCS Same-Spin Scale       =       0.3333333333333333 [-]
	 SCS Opposite-Spin Scale   =       1.2000000000000000 [-]
	 SCS Same-Spin Energy      =      -0.3003884591907626 [Eh]
	 SCS Opposite-Spin Energy  =      -3.2571840928804008 [Eh]
	 SCS Correlation Energy    =      -3.5575725520711634 [Eh]
	 SCS Total Energy          =    -889.9178697712990243 [Eh]
	-----------------------------------------------------------

  Dipole Moment: [D]
     X:     0.8599      Y:    -5.4706      Z:    -1.7007     Total:     5.7930

*** Psi4 exiting successfully. Buy a developer a beer!
