                               Psi4 1.3.2 release

  ==> Input File <==

--------------------------------------------------------------------------
#psi4
#
memory 32 gb

molecule  {
0 1
  O       -1.2481010    -0.6526680     1.0325150
  O       -1.2449750     2.4828510    -0.6861630
  O       -3.2165300     1.5210990     0.7448870
  O       -2.3570290    -3.0668370     0.0949400
  O        1.3605300     2.2470340    -0.0765420
  N        0.8434040     0.0452230     0.2559430
  N        3.0572260     0.7205030    -0.2937270
  N        4.7164630    -0.8366550    -0.5722980
  C       -1.2894840     1.0784300    -0.5920770
  C       -2.7151710     0.6552070    -0.2573930
  C       -0.5254080     0.4815200     0.6000940
  C       -2.5292560    -0.7168860     0.3610560
  C       -2.5283440    -1.8503930    -0.6392900
  C        1.2315040    -1.2158218     0.3043198
  C        1.7555940     1.0674350    -0.0594030
  C        2.5111010    -1.6091400     0.0469950
  C        3.3746123    -0.5184010    -0.2533497
  H       -0.9376060     0.5914040    -1.5148910
  H       -3.3625820     0.6426650    -1.1464650
  H       -0.4402900     1.2218800     1.4039980
  H       -3.2819570    -0.9087340     1.1307830
  H       -1.7133080    -1.7003050    -1.3694640
  H       -3.4855610    -1.8340040    -1.1841350
  H       -0.2975250     2.7131790    -0.5250000
  H       -2.8475560     2.3997430     0.5086630
  H        0.4343110    -1.9634370     0.5690680
  H       -2.4338740    -3.7984320    -0.5432330
  H        2.8291120    -2.6453980     0.0739220
  H        5.1251800    -1.6708610    -0.1624140
  H        5.3198140    -0.0200540    -0.5682940
units angstrom
no_reorient  #important for SAPT in psi4, default
symmetry c1  #important for SAPT in psi4, default
}

set PROPERTIES_ORIGIN ["COM"]
properties('MP2/aug-cc-pvtz', properties = ['dipole'])
--------------------------------------------------------------------------

    Molecular point group: c1
  Charge       = 0
  Multiplicity = 1
  Basis Set: AUG-CC-PVTZ
    Blend: AUG-CC-PVTZ
  Basis Set: (AUG-CC-PVTZ AUX)
    Blend: AUG-CC-PVTZ-JKFIT

    Orbital Energies [Eh]
    ---------------------

    Doubly Occupied:

       1A    -20.584091     2A    -20.582957     3A    -20.560356
       4A    -20.559935     5A    -20.528064     6A    -15.642195
       7A    -15.588904     8A    -15.556066     9A    -11.393801
      10A    -11.352529    11A    -11.346234    12A    -11.326268
      13A    -11.302360    14A    -11.300067    15A    -11.298788
      16A    -11.295310    17A    -11.245138    18A     -1.434138
      19A     -1.403382    20A     -1.382630    21A     -1.374217
      22A     -1.349060    23A     -1.314916    24A     -1.276670
      25A     -1.180997    26A     -1.082997    27A     -1.069890
      28A     -1.024532    29A     -0.938130    30A     -0.912707
      31A     -0.880469    32A     -0.834944    33A     -0.813350
      34A     -0.766579    35A     -0.757530    36A     -0.739768
      37A     -0.713630    38A     -0.701734    39A     -0.699200
      40A     -0.680431    41A     -0.669528    42A     -0.658342
      43A     -0.655501    44A     -0.644358    45A     -0.622113
      46A     -0.615203    47A     -0.602065    48A     -0.596801
      49A     -0.575742    50A     -0.570096    51A     -0.555542
      52A     -0.547122    53A     -0.539105    54A     -0.529137
      55A     -0.504990    56A     -0.479574    57A     -0.476870
      58A     -0.467208    59A     -0.463701    60A     -0.455455
      61A     -0.442092    62A     -0.437075    63A     -0.400561
      64A     -0.348988

  @DF-RHF Final Energy:  -886.36829049401979

   => Energetics <=

    Nuclear Repulsion Energy =           1325.4609790289739522
    One-Electron Energy =               -3848.3542654149291593
    Two-Electron Energy =                1636.5249958919357596
    Total Energy =                       -886.3682904940196750
  Basis Set: (AUG-CC-PVTZ AUX)
    Blend: AUG-CC-PVTZ-RI
    Molecular point group: c1

    Geometry (in Angstrom), charge = 0, multiplicity = 1:

       Center              X                  Y                   Z               Mass
    ------------   -----------------  -----------------  -----------------  -----------------
         O           -1.246835222631    -0.656510499271     1.032583077352    15.994914619570
         O           -1.243709222631     2.479008500729    -0.686094922648    15.994914619570
         O           -3.215264222631     1.517256500729     0.744955077352    15.994914619570
         O           -2.355763222631    -3.070679499271     0.095008077352    15.994914619570
         O            1.361795777369     2.243191500729    -0.076473922648    15.994914619570
         N            0.844669777369     0.041380500729     0.256011077352    14.003074004430
         N            3.058491777369     0.716660500729    -0.293658922648    14.003074004430
         N            4.717728777369    -0.840497499271    -0.572229922648    14.003074004430
         C           -1.288218222631     1.074587500729    -0.592008922648    12.000000000000
         C           -2.713905222631     0.651364500729    -0.257324922648    12.000000000000
         C           -0.524142222631     0.477677500729     0.600162077352    12.000000000000
         C           -2.527990222631    -0.720728499271     0.361124077352    12.000000000000
         C           -2.527078222631    -1.854235499271    -0.639221922648    12.000000000000
         C            1.232769777369    -1.219664299271     0.304387877352    12.000000000000
         C            1.756859777369     1.063592500729    -0.059334922648    12.000000000000
         C            2.512366777369    -1.612982499271     0.047063077352    12.000000000000
         C            3.375878077369    -0.522243499271    -0.253281622648    12.000000000000
         H           -0.936340222631     0.587561500729    -1.514822922648     1.007825032230
         H           -3.361316222631     0.638822500729    -1.146396922648     1.007825032230
         H           -0.439024222631     1.218037500729     1.404066077352     1.007825032230
         H           -3.280691222631    -0.912576499271     1.130851077352     1.007825032230
         H           -1.712042222631    -1.704147499271    -1.369395922648     1.007825032230
         H           -3.484295222631    -1.837846499271    -1.184066922648     1.007825032230
         H           -0.296259222631     2.709336500729    -0.524931922648     1.007825032230
         H           -2.846290222631     2.395900500729     0.508731077352     1.007825032230
         H            0.435576777369    -1.967279499271     0.569136077352     1.007825032230
         H           -2.432608222631    -3.802274499271    -0.543164922648     1.007825032230
         H            2.830377777369    -2.649240499271     0.073990077352     1.007825032230
         H            5.126445777369    -1.674703499271    -0.162345922648     1.007825032230
         H            5.321079777369    -0.023896499271    -0.568225922648     1.007825032230

  Basis Set: AUG-CC-PVTZ
    Blend: AUG-CC-PVTZ
  Basis Set: (AUG-CC-PVTZ AUX)
    Blend: AUG-CC-PVTZ-JKFIT
	 Reference Energy          =    -886.3682904940197886 [Eh]
	 Singles Energy            =      -0.0000000000000000 [Eh]
	 Same-Spin Energy          =      -0.9011018917336143 [Eh]
	 Opposite-Spin Energy      =      -2.7143260324669942 [Eh]
	 Correlation Energy        =      -3.6154279242006084 [Eh]
	 Total Energy              =    -889.9837184182204055 [Eh]

	 ================> DF-SCS-MP2 Energies <==================
	-----------------------------------------------------------
	 SCS Same-Spin Scale       =       0.3333333333333333 [-]
	 SCS Opposite-Spin Scale   =       1.2000000000000000 [-]
	 SCS Same-Spin Energy      =      -0.3003672972445381 [Eh]
	 SCS Opposite-Spin Energy  =      -3.2571912389603930 [Eh]
	 SCS Correlation Energy    =      -3.5575585362049309 [Eh]
	 SCS Total Energy          =    -889.9258490302247537 [Eh]
	-----------------------------------------------------------

  Dipole Moment: [D]
     X:     1.1442      Y:    -5.6335      Z:    -1.7411     Total:     6.0064

*** Psi4 exiting successfully. Buy a developer a beer!
