                               Psi4 1.3.2 release

  ==> Input File <==

--------------------------------------------------------------------------
#psi4
#
memory 32 gb

molecule  {
0 1
  O       -1.2481010    -0.6526680     1.0325150
  O       -1.2209732     2.4815318    -0.6912898
  O       -3.2165300     1.5210990     0.7448870
  O       -2.3570290    -3.0668370     0.0949400
  O        1.3605300     2.2470340    -0.0765420
  N        0.8434040     0.0452230     0.2559430
  N        3.0572260     0.7205030    -0.2937270
  N        4.7164630    -0.8366550    -0.5722980
  C       -1.2894840     1.0784300    -0.5920770
  C       -2.7074053     0.6297611    -0.2575477
  C       -0.5254080     0.4815200     0.6000940
  C       -2.5292560    -0.7168860     0.3610560
  C       -2.5283440    -1.8503930    -0.6392900
  C        1.2197750    -1.2614080     0.3112740
  C        1.7555940     1.0674350    -0.0594030
  C        2.5111010    -1.6091400     0.0469950
  C        3.4119830    -0.5506530    -0.2589250
  H       -0.9376060     0.5914040    -1.5148910
  H       -3.3625820     0.6426650    -1.1464650
  H       -0.4402900     1.2218800     1.4039980
  H       -3.2819570    -0.9087340     1.1307830
  H       -1.7133080    -1.7003050    -1.3694640
  H       -3.4855610    -1.8340040    -1.1841350
  H       -0.2975250     2.7131790    -0.5250000
  H       -2.8475560     2.3997430     0.5086630
  H        0.4343110    -1.9634370     0.5690680
  H       -2.4338740    -3.7984320    -0.5432330
  H        2.8291120    -2.6453980     0.0739220
  H        5.1251800    -1.6708610    -0.1624140
  H        5.3198140    -0.0200540    -0.5682940
units angstrom
no_reorient  #important for SAPT in psi4, default
symmetry c1  #important for SAPT in psi4, default
}

set PROPERTIES_ORIGIN ["COM"]
properties('MP2/aug-cc-pvtz', properties = ['dipole'])
--------------------------------------------------------------------------

    Molecular point group: c1
  Charge       = 0
  Multiplicity = 1
  Basis Set: AUG-CC-PVTZ
    Blend: AUG-CC-PVTZ
  Basis Set: (AUG-CC-PVTZ AUX)
    Blend: AUG-CC-PVTZ-JKFIT

    Orbital Energies [Eh]
    ---------------------

    Doubly Occupied:

       1A    -20.582997     2A    -20.582187     3A    -20.556756
       4A    -20.555637     5A    -20.520904     6A    -15.636634
       7A    -15.599611     8A    -15.552957     9A    -11.387642
      10A    -11.357547    11A    -11.341609    12A    -11.328367
      13A    -11.302233    14A    -11.297791    15A    -11.297696
      16A    -11.294222    17A    -11.248358    18A     -1.430009
      19A     -1.396065    20A     -1.379282    21A     -1.373435
      22A     -1.344244    23A     -1.305642    24A     -1.273601
      25A     -1.181948    26A     -1.081976    27A     -1.072969
      28A     -1.022641    29A     -0.936049    30A     -0.909528
      31A     -0.878382    32A     -0.834554    33A     -0.811610
      34A     -0.766816    35A     -0.752989    36A     -0.737597
      37A     -0.720357    38A     -0.703995    39A     -0.698047
      40A     -0.685538    41A     -0.672395    42A     -0.654626
      43A     -0.651668    44A     -0.638422    45A     -0.621392
      46A     -0.615016    47A     -0.606644    48A     -0.593587
      49A     -0.574912    50A     -0.570220    51A     -0.554154
      52A     -0.544832    53A     -0.537015    54A     -0.532025
      55A     -0.498588    56A     -0.479567    57A     -0.476725
      58A     -0.462578    59A     -0.459750    60A     -0.452977
      61A     -0.441230    62A     -0.432881    63A     -0.394872
      64A     -0.349619

  @DF-RHF Final Energy:  -886.37333929970657

   => Energetics <=

    Nuclear Repulsion Energy =           1324.1107141028548995
    One-Electron Energy =               -3845.8558831070358792
    Two-Electron Energy =                1635.3718297044740666
    Total Energy =                       -886.3733392997066858
  Basis Set: (AUG-CC-PVTZ AUX)
    Blend: AUG-CC-PVTZ-RI
    Molecular point group: c1

    Geometry (in Angstrom), charge = 0, multiplicity = 1:

       Center              X                  Y                   Z               Mass
    ------------   -----------------  -----------------  -----------------  -----------------
         O           -1.250063697696    -0.651325041541     1.032859985364    15.994914619570
         O           -1.222935897696     2.482874758459    -0.690944814636    15.994914619570
         O           -3.218492697696     1.522441958459     0.745231985364    15.994914619570
         O           -2.358991697696    -3.065494041541     0.095284985364    15.994914619570
         O            1.358567302304     2.248376958459    -0.076197014636    15.994914619570
         N            0.841441302304     0.046565958459     0.256287985364    14.003074004430
         N            3.055263302304     0.721845958459    -0.293382014636    14.003074004430
         N            4.714500302304    -0.835312041541    -0.571953014636    14.003074004430
         C           -1.291446697696     1.079772958459    -0.591732014636    12.000000000000
         C           -2.709367997696     0.631104058459    -0.257202714636    12.000000000000
         C           -0.527370697696     0.482862958459     0.600438985364    12.000000000000
         C           -2.531218697696    -0.715543041541     0.361400985364    12.000000000000
         C           -2.530306697696    -1.849050041541    -0.638945014636    12.000000000000
         C            1.217812302304    -1.260065041541     0.311618985364    12.000000000000
         C            1.753631302304     1.068777958459    -0.059058014636    12.000000000000
         C            2.509138302304    -1.607797041541     0.047339985364    12.000000000000
         C            3.410020302304    -0.549310041541    -0.258580014636    12.000000000000
         H           -0.939568697696     0.592746958459    -1.514546014636     1.007825032230
         H           -3.364544697696     0.644007958459    -1.146120014636     1.007825032230
         H           -0.442252697696     1.223222958459     1.404342985364     1.007825032230
         H           -3.283919697696    -0.907391041541     1.131127985364     1.007825032230
         H           -1.715270697696    -1.698962041541    -1.369119014636     1.007825032230
         H           -3.487523697696    -1.832661041541    -1.183790014636     1.007825032230
         H           -0.299487697696     2.714521958459    -0.524655014636     1.007825032230
         H           -2.849518697696     2.401085958459     0.509007985364     1.007825032230
         H            0.432348302304    -1.962094041541     0.569412985364     1.007825032230
         H           -2.435836697696    -3.797089041541    -0.542888014636     1.007825032230
         H            2.827149302304    -2.644055041541     0.074266985364     1.007825032230
         H            5.123217302304    -1.669518041541    -0.162069014636     1.007825032230
         H            5.317851302304    -0.018711041541    -0.567949014636     1.007825032230

  Basis Set: AUG-CC-PVTZ
    Blend: AUG-CC-PVTZ
  Basis Set: (AUG-CC-PVTZ AUX)
    Blend: AUG-CC-PVTZ-JKFIT
	 Reference Energy          =    -886.3733392997065721 [Eh]
	 Singles Energy            =      -0.0000000000000000 [Eh]
	 Same-Spin Energy          =      -0.9009561865166678 [Eh]
	 Opposite-Spin Energy      =      -2.7145076459617794 [Eh]
	 Correlation Energy        =      -3.6154638324784472 [Eh]
	 Total Energy              =    -889.9888031321850121 [Eh]

	 ================> DF-SCS-MP2 Energies <==================
	-----------------------------------------------------------
	 SCS Same-Spin Scale       =       0.3333333333333333 [-]
	 SCS Opposite-Spin Scale   =       1.2000000000000000 [-]
	 SCS Same-Spin Energy      =      -0.3003187288388892 [Eh]
	 SCS Opposite-Spin Energy  =      -3.2574091751541352 [Eh]
	 SCS Correlation Energy    =      -3.5577279039930243 [Eh]
	 SCS Total Energy          =    -889.9310672036996266 [Eh]
	-----------------------------------------------------------

  Dipole Moment: [D]
     X:     1.6463      Y:    -6.0111      Z:    -1.8381     Total:     6.4979

*** Psi4 exiting successfully. Buy a developer a beer!
