                               Psi4 1.3.2 release

  ==> Input File <==

--------------------------------------------------------------------------
#psi4
#
memory 32 gb

molecule  {
0 1
  O       -1.2481010    -0.6526680     1.0325150
  O       -1.2449750     2.4828510    -0.6861630
  O       -3.2165300     1.5210990     0.7448870
  O       -2.3570290    -3.0668370     0.0949400
  O        1.3605300     2.2470340    -0.0765420
  N        0.8434040     0.0452230     0.2559430
  N        3.1005977     0.7314695    -0.3047763
  N        4.7164630    -0.8366550    -0.5722980
  C       -1.2894840     1.0784300    -0.5920770
  C       -2.7151710     0.6552070    -0.2573930
  C       -0.5254080     0.4815200     0.6000940
  C       -2.5292560    -0.7168860     0.3610560
  C       -2.5283440    -1.8503930    -0.6392900
  C        1.2197750    -1.2614080     0.3112740
  C        1.7555940     1.0674350    -0.0594030
  C        2.5484480    -1.6414015     0.0413168
  C        3.4119830    -0.5506530    -0.2589250
  H       -0.9376060     0.5914040    -1.5148910
  H       -3.3625820     0.6426650    -1.1464650
  H       -0.4402900     1.2218800     1.4039980
  H       -3.2819570    -0.9087340     1.1307830
  H       -1.7133080    -1.7003050    -1.3694640
  H       -3.4855610    -1.8340040    -1.1841350
  H       -0.2975250     2.7131790    -0.5250000
  H       -2.8475560     2.3997430     0.5086630
  H        0.4343110    -1.9634370     0.5690680
  H       -2.4338740    -3.7984320    -0.5432330
  H        2.8291120    -2.6453980     0.0739220
  H        5.1251800    -1.6708610    -0.1624140
  H        5.3198140    -0.0200540    -0.5682940
units angstrom
no_reorient  #important for SAPT in psi4, default
symmetry c1  #important for SAPT in psi4, default
}

set PROPERTIES_ORIGIN ["COM"]
properties('MP2/aug-cc-pvtz', properties = ['dipole'])
--------------------------------------------------------------------------

    Molecular point group: c1
  Charge       = 0
  Multiplicity = 1
  Basis Set: AUG-CC-PVTZ
    Blend: AUG-CC-PVTZ
  Basis Set: (AUG-CC-PVTZ AUX)
    Blend: AUG-CC-PVTZ-JKFIT

    Orbital Energies [Eh]
    ---------------------

    Doubly Occupied:

       1A    -20.583850     2A    -20.583277     3A    -20.559429
       4A    -20.559345     5A    -20.527536     6A    -15.643139
       7A    -15.592593     8A    -15.557562     9A    -11.393918
      10A    -11.352998    11A    -11.344783    12A    -11.337035
      13A    -11.302419    14A    -11.298899    15A    -11.298554
      16A    -11.294694    17A    -11.249532    18A     -1.431494
      19A     -1.397554    20A     -1.381787    21A     -1.374209
      22A     -1.348058    23A     -1.304607    24A     -1.274593
      25A     -1.172823    26A     -1.076061    27A     -1.069468
      28A     -1.022468    29A     -0.935626    30A     -0.913819
      31A     -0.871592    32A     -0.831712    33A     -0.813096
      34A     -0.761664    35A     -0.755117    36A     -0.738567
      37A     -0.717277    38A     -0.703514    39A     -0.700279
      40A     -0.683608    41A     -0.675460    42A     -0.659196
      43A     -0.653792    44A     -0.640042    45A     -0.619287
      46A     -0.614151    47A     -0.603167    48A     -0.595009
      49A     -0.576137    50A     -0.570225    51A     -0.555080
      52A     -0.546891    53A     -0.539305    54A     -0.532440
      55A     -0.497947    56A     -0.478923    57A     -0.476132
      58A     -0.466578    59A     -0.463781    60A     -0.454756
      61A     -0.442153    62A     -0.434739    63A     -0.392664
      64A     -0.346511

  @DF-RHF Final Energy:  -886.36517736486610

   => Energetics <=

    Nuclear Repulsion Energy =           1321.3506560895059465
    One-Electron Energy =               -3840.2458266726757756
    Two-Electron Energy =                1632.5299932183033889
    Total Energy =                       -886.3651773648662129
  Basis Set: (AUG-CC-PVTZ AUX)
    Blend: AUG-CC-PVTZ-RI
    Molecular point group: c1

    Geometry (in Angstrom), charge = 0, multiplicity = 1:

       Center              X                  Y                   Z               Mass
    ------------   -----------------  -----------------  -----------------  -----------------
         O           -1.252443131822    -0.651707121076     1.033431814722    15.994914619570
         O           -1.249317131822     2.483811878924    -0.685246185278    15.994914619570
         O           -3.220872131822     1.522059878924     0.745803814722    15.994914619570
         O           -2.361371131822    -3.065876121076     0.095856814722    15.994914619570
         O            1.356187868178     2.247994878924    -0.075625185278    15.994914619570
         N            0.839061868178     0.046183878924     0.256859814722    14.003074004430
         N            3.096255568178     0.732430378924    -0.303859485278    14.003074004430
         N            4.712120868178    -0.835694121076    -0.571381185278    14.003074004430
         C           -1.293826131822     1.079390878924    -0.591160185278    12.000000000000
         C           -2.719513131822     0.656167878924    -0.256476185278    12.000000000000
         C           -0.529750131822     0.482480878924     0.601010814722    12.000000000000
         C           -2.533598131822    -0.715925121076     0.361972814722    12.000000000000
         C           -2.532686131822    -1.849432121076    -0.638373185278    12.000000000000
         C            1.215432868178    -1.260447121076     0.312190814722    12.000000000000
         C            1.751251868178     1.068395878924    -0.058486185278    12.000000000000
         C            2.544105868178    -1.640440621076     0.042233614722    12.000000000000
         C            3.407640868178    -0.549692121076    -0.258008185278    12.000000000000
         H           -0.941948131822     0.592364878924    -1.513974185278     1.007825032230
         H           -3.366924131822     0.643625878924    -1.145548185278     1.007825032230
         H           -0.444632131822     1.222840878924     1.404914814722     1.007825032230
         H           -3.286299131822    -0.907773121076     1.131699814722     1.007825032230
         H           -1.717650131822    -1.699344121076    -1.368547185278     1.007825032230
         H           -3.489903131822    -1.833043121076    -1.183218185278     1.007825032230
         H           -0.301867131822     2.714139878924    -0.524083185278     1.007825032230
         H           -2.851898131822     2.400703878924     0.509579814722     1.007825032230
         H            0.429968868178    -1.962476121076     0.569984814722     1.007825032230
         H           -2.438216131822    -3.797471121076    -0.542316185278     1.007825032230
         H            2.824769868178    -2.644437121076     0.074838814722     1.007825032230
         H            5.120837868178    -1.669900121076    -0.161497185278     1.007825032230
         H            5.315471868178    -0.019093121076    -0.567377185278     1.007825032230

  Basis Set: AUG-CC-PVTZ
    Blend: AUG-CC-PVTZ
  Basis Set: (AUG-CC-PVTZ AUX)
    Blend: AUG-CC-PVTZ-JKFIT
	 Reference Energy          =    -886.3651773648660992 [Eh]
	 Singles Energy            =      -0.0000000000000000 [Eh]
	 Same-Spin Energy          =      -0.9014981119647492 [Eh]
	 Opposite-Spin Energy      =      -2.7165525771022354 [Eh]
	 Correlation Energy        =      -3.6180506890669846 [Eh]
	 Total Energy              =    -889.9832280539330895 [Eh]

	 ================> DF-SCS-MP2 Energies <==================
	-----------------------------------------------------------
	 SCS Same-Spin Scale       =       0.3333333333333333 [-]
	 SCS Opposite-Spin Scale   =       1.2000000000000000 [-]
	 SCS Same-Spin Energy      =      -0.3004993706549164 [Eh]
	 SCS Opposite-Spin Energy  =      -3.2598630925226826 [Eh]
	 SCS Correlation Energy    =      -3.5603624631775990 [Eh]
	 SCS Total Energy          =    -889.9255398280437248 [Eh]
	-----------------------------------------------------------

  Dipole Moment: [D]
     X:     1.3784      Y:    -5.8328      Z:    -1.7773     Total:     6.2514

*** Psi4 exiting successfully. Buy a developer a beer!
