                               Psi4 1.4a3.dev225

  ==> Input File <==

--------------------------------------------------------------------------
#psi4
#
memory 32 gb

molecule  {
0 1
  O       -1.3191770     0.6538360    -1.0992360
  O       -1.5735610    -2.4640850     0.5135810
  O       -3.5606630    -1.0699430    -0.4600060
  O       -1.4399290     3.1254620     0.1265180
  O        1.1065530    -2.3833650     0.0076020
  N        0.7686360    -0.1579440    -0.3706350
  N        2.9363770    -0.9938720     0.1460080
  N        4.7058880     0.4431110     0.3611260
  C       -1.3768610    -1.0680440     0.5552780
  C       -2.7379840    -0.3746360     0.4578480
  C       -0.6377490    -0.5042940    -0.6790150
  C       -2.3707440     0.9655450    -0.1585060
  C       -1.8992030     1.9895750     0.8571380
  C        1.2139731     1.0721351    -0.4415178
  C        1.6104480    -1.2470590    -0.0585760
  C        2.5474650     1.3753690    -0.1998620
  C        3.3802090     0.2523040     0.0808410
  H       -0.8441360    -0.7686950     1.4698480
  H       -3.2257400    -0.2778790     1.4400230
  H       -0.6227070    -1.2428120    -1.4883720
  H       -3.1941750     1.3785730    -0.7472070
  H       -1.0952130     1.5703990     1.4802000
  H       -2.7410530     2.2466610     1.5166010
  H       -0.6710550    -2.8260740     0.3542250
  H       -3.3063470    -2.0105220    -0.3629290
  H        0.4929290     1.8778260    -0.6840360
  H       -1.2098800     3.8154810     0.7720340
  H        2.9334840     2.3875570    -0.2389120
  H        5.1589650     1.2712730    -0.0008400
  H        5.2635310    -0.4031270     0.3606700
units angstrom
no_reorient  #important for SAPT in psi4, default
symmetry c1  #important for SAPT in psi4, default
}

set PROPERTIES_ORIGIN ["COM"]
properties('MP2/aug-cc-pvtz', properties = ['dipole'])
--------------------------------------------------------------------------

    Molecular point group: c1
  Charge       = 0
  Multiplicity = 1
  Basis Set: AUG-CC-PVTZ
    Blend: AUG-CC-PVTZ
  Basis Set: (AUG-CC-PVTZ AUX)
    Blend: AUG-CC-PVTZ-JKFIT

    Orbital Energies [Eh]
    ---------------------

    Doubly Occupied:

       1A    -20.587351     2A    -20.583641     3A    -20.561352
       4A    -20.557989     5A    -20.521441     6A    -15.638549
       7A    -15.596084     8A    -15.550112     9A    -11.387572
      10A    -11.353925    11A    -11.343061    12A    -11.325684
      13A    -11.304615    14A    -11.299688    15A    -11.299512
      16A    -11.295313    17A    -11.243196    18A     -1.433093
      19A     -1.397550    20A     -1.384348    21A     -1.377305
      22A     -1.348303    23A     -1.308835    24A     -1.278445
      25A     -1.180680    26A     -1.073678    27A     -1.069809
      28A     -1.019032    29A     -0.939169    30A     -0.910700
      31A     -0.877113    32A     -0.832133    33A     -0.813570
      34A     -0.766827    35A     -0.754892    36A     -0.738010
      37A     -0.720567    38A     -0.709036    39A     -0.704052
      40A     -0.683437    41A     -0.676462    42A     -0.655542
      43A     -0.649769    44A     -0.636430    45A     -0.621779
      46A     -0.614494    47A     -0.601401    48A     -0.596859
      49A     -0.576466    50A     -0.565366    51A     -0.556821
      52A     -0.549256    53A     -0.538287    54A     -0.531444
      55A     -0.500951    56A     -0.481943    57A     -0.475700
      58A     -0.465448    59A     -0.458523    60A     -0.454884
      61A     -0.443387    62A     -0.430018    63A     -0.392316
      64A     -0.342018

  @DF-RHF Final Energy:  -886.37148013623482

   => Energetics <=

    Nuclear Repulsion Energy =           1335.6070348276796267
    One-Electron Energy =               -3868.7865688240308373
    Two-Electron Energy =                1646.8080538601161606
    Total Energy =                       -886.3714801362348226
  Basis Set: (AUG-CC-PVTZ AUX)
    Blend: AUG-CC-PVTZ-RI
    Molecular point group: c1

    Geometry (in Angstrom), charge = 0, multiplicity = 1:

       Center              X                  Y                   Z               Mass
    ------------   -----------------  -----------------  -----------------  -----------------
         O           -1.331081646370     0.684764917818    -1.083589332218    15.994914619570
         O           -1.585465646370    -2.433156082182     0.529227667782    15.994914619570
         O           -3.572567646370    -1.039014082182    -0.444359332218    15.994914619570
         O           -1.451833646370     3.156390917818     0.142164667782    15.994914619570
         O            1.094648353630    -2.352436082182     0.023248667782    15.994914619570
         N            0.756731353630    -0.127015082182    -0.354988332218    14.003074004430
         N            2.924472353630    -0.962943082182     0.161654667782    14.003074004430
         N            4.693983353630     0.474039917818     0.376772667782    14.003074004430
         C           -1.388765646370    -1.037115082182     0.570924667782    12.000000000000
         C           -2.749888646370    -0.343707082182     0.473494667782    12.000000000000
         C           -0.649653646370    -0.473365082182    -0.663368332218    12.000000000000
         C           -2.382648646370     0.996473917818    -0.142859332218    12.000000000000
         C           -1.911107646370     2.020503917818     0.872784667782    12.000000000000
         C            1.202068453630     1.103064017818    -0.425871132218    12.000000000000
         C            1.598543353630    -1.216130082182    -0.042929332218    12.000000000000
         C            2.535560353630     1.406297917818    -0.184215332218    12.000000000000
         C            3.368304353630     0.283232917818     0.096487667782    12.000000000000
         H           -0.856040646370    -0.737766082182     1.485494667782     1.007825032230
         H           -3.237644646370    -0.246950082182     1.455669667782     1.007825032230
         H           -0.634611646370    -1.211883082182    -1.472725332218     1.007825032230
         H           -3.206079646370     1.409501917818    -0.731560332218     1.007825032230
         H           -1.107117646370     1.601327917818     1.495846667782     1.007825032230
         H           -2.752957646370     2.277589917818     1.532247667782     1.007825032230
         H           -0.682959646370    -2.795145082182     0.369871667782     1.007825032230
         H           -3.318251646370    -1.979593082182    -0.347282332218     1.007825032230
         H            0.481024353630     1.908754917818    -0.668389332218     1.007825032230
         H           -1.221784646370     3.846409917818     0.787680667782     1.007825032230
         H            2.921579353630     2.418485917818    -0.223265332218     1.007825032230
         H            5.147060353630     1.302201917818     0.014806667782     1.007825032230
         H            5.251626353630    -0.372198082182     0.376316667782     1.007825032230

  Basis Set: AUG-CC-PVTZ
    Blend: AUG-CC-PVTZ
  Basis Set: (AUG-CC-PVTZ AUX)
    Blend: AUG-CC-PVTZ-JKFIT
	 Reference Energy          =    -886.3714801362348226 [Eh]
	 Singles Energy            =      -0.0000000000000000 [Eh]
	 Same-Spin Energy          =      -0.9022126893193509 [Eh]
	 Opposite-Spin Energy      =      -2.7157174672443327 [Eh]
	 Correlation Energy        =      -3.6179301565636837 [Eh]
	 Total Energy              =    -889.9894102927985386 [Eh]

	 ================> DF-SCS-MP2 Energies <==================
	-----------------------------------------------------------
	 SCS Same-Spin Scale       =       0.3333333333333333 [-]
	 SCS Opposite-Spin Scale   =       1.2000000000000000 [-]
	 SCS Same-Spin Energy      =      -0.3007375631064503 [Eh]
	 SCS Opposite-Spin Energy  =      -3.2588609606931991 [Eh]
	 SCS Correlation Energy    =      -3.5595985237996493 [Eh]
	 SCS Total Energy          =    -889.9310786600344727 [Eh]
	-----------------------------------------------------------

  Dipole Moment: [D]
     X:     2.4725      Y:     5.7004      Z:     1.9269     Total:     6.5055

*** Psi4 exiting successfully. Buy a developer a beer!
