                               Psi4 1.3.2 release

  ==> Input File <==

--------------------------------------------------------------------------
#psi4
#
memory 32 gb

molecule  {
0 1
  O       -1.2481010    -0.6526680     1.0325150
  O       -1.2449750     2.4828510    -0.6861630
  O       -3.2165300     1.5210990     0.7448870
  O       -2.3570290    -3.0668370     0.0949400
  O        1.3605300     2.2470340    -0.0765420
  N        0.8434040     0.0452230     0.2559430
  N        3.0572260     0.7205030    -0.2937270
  N        4.7164630    -0.8366550    -0.5722980
  C       -1.2894840     1.0784300    -0.5920770
  C       -2.7151710     0.6552070    -0.2573930
  C       -0.5254080     0.4815200     0.6000940
  C       -2.5292560    -0.7168860     0.3610560
  C       -2.5283440    -1.8503930    -0.6392900
  C        1.2197750    -1.2614080     0.3112740
  C        1.5651998     1.1181819    -0.0251276
  C        2.5111010    -1.6091400     0.0469950
  C        3.4119830    -0.5506530    -0.2589250
  H       -0.9376060     0.5914040    -1.5148910
  H       -3.3625820     0.6426650    -1.1464650
  H       -0.4402900     1.2218800     1.4039980
  H       -3.2819570    -0.9087340     1.1307830
  H       -1.7133080    -1.7003050    -1.3694640
  H       -3.4855610    -1.8340040    -1.1841350
  H       -0.2975250     2.7131790    -0.5250000
  H       -2.8475560     2.3997430     0.5086630
  H        0.4343110    -1.9634370     0.5690680
  H       -2.4338740    -3.7984320    -0.5432330
  H        2.8291120    -2.6453980     0.0739220
  H        5.1251800    -1.6708610    -0.1624140
  H        5.3198140    -0.0200540    -0.5682940
units angstrom
no_reorient  #important for SAPT in psi4, default
symmetry c1  #important for SAPT in psi4, default
}

set PROPERTIES_ORIGIN ["COM"]
properties('MP2/aug-cc-pvtz', properties = ['dipole'])
--------------------------------------------------------------------------

    Molecular point group: c1
  Charge       = 0
  Multiplicity = 1
  Basis Set: AUG-CC-PVTZ
    Blend: AUG-CC-PVTZ
  Basis Set: (AUG-CC-PVTZ AUX)
    Blend: AUG-CC-PVTZ-JKFIT

    Orbital Energies [Eh]
    ---------------------

    Doubly Occupied:

       1A    -20.585034     2A    -20.583770     3A    -20.568478
       4A    -20.563231     5A    -20.552737     6A    -15.639211
       7A    -15.581788     8A    -15.537928     9A    -11.390437
      10A    -11.346457    11A    -11.331006    12A    -11.322884
      13A    -11.304360    14A    -11.303518    15A    -11.300367
      16A    -11.298480    17A    -11.247300    18A     -1.469694
      19A     -1.427460    20A     -1.387513    21A     -1.376162
      22A     -1.355236    23A     -1.325341    24A     -1.263589
      25A     -1.137057    26A     -1.081265    27A     -1.071762
      28A     -1.027847    29A     -0.935417    30A     -0.926699
      31A     -0.863397    32A     -0.821652    33A     -0.815935
      34A     -0.759270    35A     -0.754451    36A     -0.744235
      37A     -0.719542    38A     -0.704693    39A     -0.703949
      40A     -0.685561    41A     -0.675122    42A     -0.668398
      43A     -0.660039    44A     -0.643996    45A     -0.629952
      46A     -0.617818    47A     -0.604772    48A     -0.599801
      49A     -0.578796    50A     -0.571443    51A     -0.558412
      52A     -0.550824    53A     -0.547008    54A     -0.538456
      55A     -0.508794    56A     -0.481738    57A     -0.480003
      58A     -0.477916    59A     -0.464268    60A     -0.459906
      61A     -0.444503    62A     -0.399139    63A     -0.377374
      64A     -0.344664

  @DF-RHF Final Energy:  -886.32825755272825

   => Energetics <=

    Nuclear Repulsion Energy =           1325.7531378614846744
    One-Electron Energy =               -3848.7670785224509018
    Two-Electron Energy =                1636.6856831082377539
    Total Energy =                       -886.3282575527282461
  Basis Set: (AUG-CC-PVTZ AUX)
    Blend: AUG-CC-PVTZ-RI
    Molecular point group: c1

    Geometry (in Angstrom), charge = 0, multiplicity = 1:

       Center              X                  Y                   Z               Mass
    ------------   -----------------  -----------------  -----------------  -----------------
         O           -1.238702159026    -0.655173127965     1.030822990617    15.994914619570
         O           -1.235576159026     2.480345872035    -0.687855009383    15.994914619570
         O           -3.207131159026     1.518593872035     0.743194990617    15.994914619570
         O           -2.347630159026    -3.069342127965     0.093247990617    15.994914619570
         O            1.369928840974     2.244528872035    -0.078234009383    15.994914619570
         N            0.852802840974     0.042717872035     0.254250990617    14.003074004430
         N            3.066624840974     0.717997872035    -0.295419009383    14.003074004430
         N            4.725861840974    -0.839160127965    -0.573990009383    14.003074004430
         C           -1.280085159026     1.075924872035    -0.593769009383    12.000000000000
         C           -2.705772159026     0.652701872035    -0.259085009383    12.000000000000
         C           -0.516009159026     0.479014872035     0.598401990617    12.000000000000
         C           -2.519857159026    -0.719391127965     0.359363990617    12.000000000000
         C           -2.518945159026    -1.852898127965    -0.640982009383    12.000000000000
         C            1.229173840974    -1.263913127965     0.309581990617    12.000000000000
         C            1.574598640974     1.115676772035    -0.026819609383    12.000000000000
         C            2.520499840974    -1.611645127965     0.045302990617    12.000000000000
         C            3.421381840974    -0.553158127965    -0.260617009383    12.000000000000
         H           -0.928207159026     0.588898872035    -1.516583009383     1.007825032230
         H           -3.353183159026     0.640159872035    -1.148157009383     1.007825032230
         H           -0.430891159026     1.219374872035     1.402305990617     1.007825032230
         H           -3.272558159026    -0.911239127965     1.129090990617     1.007825032230
         H           -1.703909159026    -1.702810127965    -1.371156009383     1.007825032230
         H           -3.476162159026    -1.836509127965    -1.185827009383     1.007825032230
         H           -0.288126159026     2.710673872035    -0.526692009383     1.007825032230
         H           -2.838157159026     2.397237872035     0.506970990617     1.007825032230
         H            0.443709840974    -1.965942127965     0.567375990617     1.007825032230
         H           -2.424475159026    -3.800937127965    -0.544925009383     1.007825032230
         H            2.838510840974    -2.647903127965     0.072229990617     1.007825032230
         H            5.134578840974    -1.673366127965    -0.164106009383     1.007825032230
         H            5.329212840974    -0.022559127965    -0.569986009383     1.007825032230

  Basis Set: AUG-CC-PVTZ
    Blend: AUG-CC-PVTZ
  Basis Set: (AUG-CC-PVTZ AUX)
    Blend: AUG-CC-PVTZ-JKFIT
	 Reference Energy          =    -886.3282575527282461 [Eh]
	 Singles Energy            =      -0.0000000000000000 [Eh]
	 Same-Spin Energy          =      -0.9015126452508965 [Eh]
	 Opposite-Spin Energy      =      -2.7185312798137025 [Eh]
	 Correlation Energy        =      -3.6200439250645990 [Eh]
	 Total Energy              =    -889.9483014777928247 [Eh]

	 ================> DF-SCS-MP2 Energies <==================
	-----------------------------------------------------------
	 SCS Same-Spin Scale       =       0.3333333333333333 [-]
	 SCS Opposite-Spin Scale   =       1.2000000000000000 [-]
	 SCS Same-Spin Energy      =      -0.3005042150836321 [Eh]
	 SCS Opposite-Spin Energy  =      -3.2622375357764430 [Eh]
	 SCS Correlation Energy    =      -3.5627417508600754 [Eh]
	 SCS Total Energy          =    -889.8909993035882735 [Eh]
	-----------------------------------------------------------

  Dipole Moment: [D]
     X:     0.3969      Y:    -5.0719      Z:    -1.6803     Total:     5.3577

*** Psi4 exiting successfully. Buy a developer a beer!
