                               Psi4 1.3.2 release

  ==> Input File <==

--------------------------------------------------------------------------
#psi4
#
memory 32 gb

molecule  {
0 1
  O       -1.2507690    -0.6422425     1.0546980
  O       -1.2449750     2.4828510    -0.6861630
  O       -3.2165300     1.5210990     0.7448870
  O       -2.3570290    -3.0668370     0.0949400
  O        1.3605300     2.2470340    -0.0765420
  N        0.8434040     0.0452230     0.2559430
  N        3.0572260     0.7205030    -0.2937270
  N        4.7164630    -0.8366550    -0.5722980
  C       -1.2894840     1.0784300    -0.5920770
  C       -2.7151710     0.6552070    -0.2573930
  C       -0.5254080     0.4815200     0.6000940
  C       -2.5292560    -0.7168860     0.3610560
  C       -2.5283440    -1.8503930    -0.6392900
  C        1.2197750    -1.2614080     0.3112740
  C        1.7555940     1.0674350    -0.0594030
  C        2.5111010    -1.6091400     0.0469950
  C        3.4119830    -0.5506530    -0.2589250
  H       -0.9376060     0.5914040    -1.5148910
  H       -3.3625820     0.6426650    -1.1464650
  H       -0.4502139     1.2102666     1.4155165
  H       -3.2819570    -0.9087340     1.1307830
  H       -1.7133080    -1.7003050    -1.3694640
  H       -3.4855610    -1.8340040    -1.1841350
  H       -0.2975250     2.7131790    -0.5250000
  H       -2.8475560     2.3997430     0.5086630
  H        0.4343110    -1.9634370     0.5690680
  H       -2.4338740    -3.7984320    -0.5432330
  H        2.8291120    -2.6453980     0.0739220
  H        5.1251800    -1.6708610    -0.1624140
  H        5.3198140    -0.0200540    -0.5682940
units angstrom
no_reorient  #important for SAPT in psi4, default
symmetry c1  #important for SAPT in psi4, default
}

set PROPERTIES_ORIGIN ["COM"]
properties('MP2/aug-cc-pvtz', properties = ['dipole'])
--------------------------------------------------------------------------

    Molecular point group: c1
  Charge       = 0
  Multiplicity = 1
  Basis Set: AUG-CC-PVTZ
    Blend: AUG-CC-PVTZ
  Basis Set: (AUG-CC-PVTZ AUX)
    Blend: AUG-CC-PVTZ-JKFIT

    Orbital Energies [Eh]
    ---------------------

    Doubly Occupied:

       1A    -20.582630     2A    -20.581211     3A    -20.557705
       4A    -20.557278     5A    -20.521839     6A    -15.636982
       7A    -15.599902     8A    -15.553373     9A    -11.388233
      10A    -11.357922    11A    -11.340736    12A    -11.328764
      13A    -11.302043    14A    -11.297493    15A    -11.296983
      16A    -11.293178    17A    -11.248692    18A     -1.427498
      19A     -1.395841    20A     -1.380000    21A     -1.372827
      22A     -1.346229    23A     -1.305998    24A     -1.273666
      25A     -1.182210    26A     -1.081789    27A     -1.068416
      28A     -1.020713    29A     -0.935537    30A     -0.909364
      31A     -0.877384    32A     -0.831838    33A     -0.811633
      34A     -0.767211    35A     -0.752177    36A     -0.735876
      37A     -0.720257    38A     -0.703122    39A     -0.698408
      40A     -0.685167    41A     -0.673082    42A     -0.653540
      43A     -0.651638    44A     -0.638019    45A     -0.620892
      46A     -0.614264    47A     -0.606466    48A     -0.593952
      49A     -0.575812    50A     -0.567693    51A     -0.554150
      52A     -0.546215    53A     -0.537168    54A     -0.531585
      55A     -0.498160    56A     -0.477781    57A     -0.474893
      58A     -0.462087    59A     -0.459982    60A     -0.452864
      61A     -0.440968    62A     -0.433225    63A     -0.395250
      64A     -0.350049

  @DF-RHF Final Energy:  -886.37300182058084

   => Energetics <=

    Nuclear Repulsion Energy =           1323.2485061511679305
    One-Electron Energy =               -3844.1672893737359118
    Two-Electron Energy =                1634.5457814019871421
    Total Energy =                       -886.3730018205808392
  Basis Set: (AUG-CC-PVTZ AUX)
    Blend: AUG-CC-PVTZ-RI
    Molecular point group: c1

    Geometry (in Angstrom), charge = 0, multiplicity = 1:

       Center              X                  Y                   Z               Mass
    ------------   -----------------  -----------------  -----------------  -----------------
         O           -1.250552336591    -0.642880334134     1.053190621015    15.994914619570
         O           -1.244758336591     2.482213165866    -0.687670378985    15.994914619570
         O           -3.216313336591     1.520461165866     0.743379621015    15.994914619570
         O           -2.356812336591    -3.067474834134     0.093432621015    15.994914619570
         O            1.360746663409     2.246396165866    -0.078049378985    15.994914619570
         N            0.843620663409     0.044585165866     0.254435621015    14.003074004430
         N            3.057442663409     0.719865165866    -0.295234378985    14.003074004430
         N            4.716679663409    -0.837292834134    -0.573805378985    14.003074004430
         C           -1.289267336591     1.077792165866    -0.593584378985    12.000000000000
         C           -2.714954336591     0.654569165866    -0.258900378985    12.000000000000
         C           -0.525191336591     0.480882165866     0.598586621015    12.000000000000
         C           -2.529039336591    -0.717523834134     0.359548621015    12.000000000000
         C           -2.528127336591    -1.851030834134    -0.640797378985    12.000000000000
         C            1.219991663409    -1.262045834134     0.309766621015    12.000000000000
         C            1.755810663409     1.066797165866    -0.060910378985    12.000000000000
         C            2.511317663409    -1.609777834134     0.045487621015    12.000000000000
         C            3.412199663409    -0.551290834134    -0.260432378985    12.000000000000
         H           -0.937389336591     0.590766165866    -1.516398378985     1.007825032230
         H           -3.362365336591     0.642027165866    -1.147972378985     1.007825032230
         H           -0.449997236591     1.209628765866     1.414009121015     1.007825032230
         H           -3.281740336591    -0.909371834134     1.129275621015     1.007825032230
         H           -1.713091336591    -1.700942834134    -1.370971378985     1.007825032230
         H           -3.485344336591    -1.834641834134    -1.185642378985     1.007825032230
         H           -0.297308336591     2.712541165866    -0.526507378985     1.007825032230
         H           -2.847339336591     2.399105165866     0.507155621015     1.007825032230
         H            0.434527663409    -1.964074834134     0.567560621015     1.007825032230
         H           -2.433657336591    -3.799069834134    -0.544740378985     1.007825032230
         H            2.829328663409    -2.646035834134     0.072414621015     1.007825032230
         H            5.125396663409    -1.671498834134    -0.163921378985     1.007825032230
         H            5.320030663409    -0.020691834134    -0.569801378985     1.007825032230

  Basis Set: AUG-CC-PVTZ
    Blend: AUG-CC-PVTZ
  Basis Set: (AUG-CC-PVTZ AUX)
    Blend: AUG-CC-PVTZ-JKFIT
	 Reference Energy          =    -886.3730018205808392 [Eh]
	 Singles Energy            =      -0.0000000000000000 [Eh]
	 Same-Spin Energy          =      -0.9012412712757241 [Eh]
	 Opposite-Spin Energy      =      -2.7151505161616711 [Eh]
	 Correlation Energy        =      -3.6163917874373954 [Eh]
	 Total Energy              =    -889.9893936080181902 [Eh]

	 ================> DF-SCS-MP2 Energies <==================
	-----------------------------------------------------------
	 SCS Same-Spin Scale       =       0.3333333333333333 [-]
	 SCS Opposite-Spin Scale   =       1.2000000000000000 [-]
	 SCS Same-Spin Energy      =      -0.3004137570919080 [Eh]
	 SCS Opposite-Spin Energy  =      -3.2581806193940053 [Eh]
	 SCS Correlation Energy    =      -3.5585943764859134 [Eh]
	 SCS Total Energy          =    -889.9315961970667104 [Eh]
	-----------------------------------------------------------

  Dipole Moment: [D]
     X:     1.7004      Y:    -5.9734      Z:    -1.8609     Total:     6.4835

*** Psi4 exiting successfully. Buy a developer a beer!
