                               Psi4 1.3.2 release

  ==> Input File <==

--------------------------------------------------------------------------
#psi4
#
memory 32 gb

molecule  {
0 1
  O       -1.2481010    -0.6526680     1.0325150
  O       -1.2449750     2.4828510    -0.6861630
  O       -3.2165300     1.5210990     0.7448870
  O       -2.3570290    -3.0668370     0.0949400
  O        1.3605300     2.2470340    -0.0765420
  N        0.8434040     0.0452230     0.2559430
  N        3.0572260     0.7205030    -0.2937270
  N        4.7164630    -0.8366550    -0.5722980
  C       -1.2894840     1.0784300    -0.5920770
  C       -2.7151710     0.6552070    -0.2573930
  C       -0.4858537     0.4342699     0.5483709
  C       -2.5292560    -0.7168860     0.3610560
  C       -2.5283440    -1.8503930    -0.6392900
  C        1.2197750    -1.2614080     0.3112740
  C        1.7555940     1.0674350    -0.0594030
  C        2.5111010    -1.6091400     0.0469950
  C        3.4119830    -0.5506530    -0.2589250
  H       -0.9016394     0.5598541    -1.4827249
  H       -3.3625820     0.6426650    -1.1464650
  H       -0.4402900     1.2218800     1.4039980
  H       -3.2819570    -0.9087340     1.1307830
  H       -1.7133080    -1.7003050    -1.3694640
  H       -3.4855610    -1.8340040    -1.1841350
  H       -0.2975250     2.7131790    -0.5250000
  H       -2.8475560     2.3997430     0.5086630
  H        0.4343110    -1.9634370     0.5690680
  H       -2.4338740    -3.7984320    -0.5432330
  H        2.8291120    -2.6453980     0.0739220
  H        5.1251800    -1.6708610    -0.1624140
  H        5.3198140    -0.0200540    -0.5682940
units angstrom
no_reorient  #important for SAPT in psi4, default
symmetry c1  #important for SAPT in psi4, default
}

set PROPERTIES_ORIGIN ["COM"]
properties('MP2/aug-cc-pvtz', properties = ['dipole'])
--------------------------------------------------------------------------

    Molecular point group: c1
  Charge       = 0
  Multiplicity = 1
  Basis Set: AUG-CC-PVTZ
    Blend: AUG-CC-PVTZ
  Basis Set: (AUG-CC-PVTZ AUX)
    Blend: AUG-CC-PVTZ-JKFIT

    Orbital Energies [Eh]
    ---------------------

    Doubly Occupied:

       1A    -20.581923     2A    -20.579781     3A    -20.558298
       4A    -20.556015     5A    -20.524624     6A    -15.641226
       7A    -15.601960     8A    -15.556247     9A    -11.391926
      10A    -11.360469    11A    -11.339219    12A    -11.331297
      13A    -11.300630    14A    -11.296057    15A    -11.295701
      16A    -11.292348    17A    -11.251516    18A     -1.430985
      19A     -1.398687    20A     -1.379384    21A     -1.372454
      22A     -1.345243    23A     -1.310608    24A     -1.282079
      25A     -1.186464    26A     -1.087019    27A     -1.066746
      28A     -1.020176    29A     -0.937818    30A     -0.914708
      31A     -0.880550    32A     -0.828963    33A     -0.812828
      34A     -0.771721    35A     -0.756533    36A     -0.733789
      37A     -0.722115    38A     -0.704404    39A     -0.697120
      40A     -0.687234    41A     -0.674243    42A     -0.653196
      43A     -0.651915    44A     -0.637441    45A     -0.620907
      46A     -0.617519    47A     -0.604608    48A     -0.597241
      49A     -0.575624    50A     -0.566898    51A     -0.554929
      52A     -0.547662    53A     -0.537090    54A     -0.527185
      55A     -0.498644    56A     -0.477360    57A     -0.475135
      58A     -0.462658    59A     -0.459447    60A     -0.450287
      61A     -0.439752    62A     -0.432527    63A     -0.394274
      64A     -0.351084

  @DF-RHF Final Energy:  -886.36467253858268

   => Energetics <=

    Nuclear Repulsion Energy =           1324.7713744934051192
    One-Electron Energy =               -3847.0831129860366673
    Two-Electron Energy =                1635.9470659540490942
    Total Energy =                       -886.3646725385826812
  Basis Set: (AUG-CC-PVTZ AUX)
    Blend: AUG-CC-PVTZ-RI
    Molecular point group: c1

    Geometry (in Angstrom), charge = 0, multiplicity = 1:

       Center              X                  Y                   Z               Mass
    ------------   -----------------  -----------------  -----------------  -----------------
         O           -1.250202761915    -0.650204667580     1.034934976379    15.994914619570
         O           -1.247076761915     2.485314332420    -0.683743023621    15.994914619570
         O           -3.218631761915     1.523562332420     0.747306976379    15.994914619570
         O           -2.359130761915    -3.064373667580     0.097359976379    15.994914619570
         O            1.358428238085     2.249497332420    -0.074122023621    15.994914619570
         N            0.841302238085     0.047686332420     0.258362976379    14.003074004430
         N            3.055124238085     0.722966332420    -0.291307023621    14.003074004430
         N            4.714361238085    -0.834191667580    -0.569878023621    14.003074004430
         C           -1.291585761915     1.080893332420    -0.589657023621    12.000000000000
         C           -2.717272761915     0.657670332420    -0.254973023621    12.000000000000
         C           -0.487955461915     0.436733232420     0.550790876379    12.000000000000
         C           -2.531357761915    -0.714422667580     0.363475976379    12.000000000000
         C           -2.530445761915    -1.847929667580    -0.636870023621    12.000000000000
         C            1.217673238085    -1.258944667580     0.313693976379    12.000000000000
         C            1.753492238085     1.069898332420    -0.056983023621    12.000000000000
         C            2.508999238085    -1.606676667580     0.049414976379    12.000000000000
         C            3.409881238085    -0.548189667580    -0.256505023621    12.000000000000
         H           -0.903741161915     0.562317432420    -1.480304923621     1.007825032230
         H           -3.364683761915     0.645128332420    -1.144045023621     1.007825032230
         H           -0.442391761915     1.224343332420     1.406417976379     1.007825032230
         H           -3.284058761915    -0.906270667580     1.133202976379     1.007825032230
         H           -1.715409761915    -1.697841667580    -1.367044023621     1.007825032230
         H           -3.487662761915    -1.831540667580    -1.181715023621     1.007825032230
         H           -0.299626761915     2.715642332420    -0.522580023621     1.007825032230
         H           -2.849657761915     2.402206332420     0.511082976379     1.007825032230
         H            0.432209238085    -1.960973667580     0.571487976379     1.007825032230
         H           -2.435975761915    -3.795968667580    -0.540813023621     1.007825032230
         H            2.827010238085    -2.642934667580     0.076341976379     1.007825032230
         H            5.123078238085    -1.668397667580    -0.159994023621     1.007825032230
         H            5.317712238085    -0.017590667580    -0.565874023621     1.007825032230

  Basis Set: AUG-CC-PVTZ
    Blend: AUG-CC-PVTZ
  Basis Set: (AUG-CC-PVTZ AUX)
    Blend: AUG-CC-PVTZ-JKFIT
	 Reference Energy          =    -886.3646725385826812 [Eh]
	 Singles Energy            =      -0.0000000000000000 [Eh]
	 Same-Spin Energy          =      -0.9020776017987825 [Eh]
	 Opposite-Spin Energy      =      -2.7160214929113984 [Eh]
	 Correlation Energy        =      -3.6180990947101810 [Eh]
	 Total Energy              =    -889.9827716332928276 [Eh]

	 ================> DF-SCS-MP2 Energies <==================
	-----------------------------------------------------------
	 SCS Same-Spin Scale       =       0.3333333333333333 [-]
	 SCS Opposite-Spin Scale   =       1.2000000000000000 [-]
	 SCS Same-Spin Energy      =      -0.3006925339329275 [Eh]
	 SCS Opposite-Spin Energy  =      -3.2592257914936780 [Eh]
	 SCS Correlation Energy    =      -3.5599183254266054 [Eh]
	 SCS Total Energy          =    -889.9245908640092466 [Eh]
	-----------------------------------------------------------

  Dipole Moment: [D]
     X:     1.9685      Y:    -6.0352      Z:    -1.9143     Total:     6.6305

*** Psi4 exiting successfully. Buy a developer a beer!
