                               Psi4 1.3.2 release

  ==> Input File <==

--------------------------------------------------------------------------
#psi4
#
memory 32 gb

molecule  {
0 1
  O       -1.2481010    -0.6526680     1.0325150
  O       -1.2449750     2.4828510    -0.6861630
  O       -3.2165300     1.5210990     0.7448870
  O       -2.3570290    -3.0668370     0.0949400
  O        1.3605300     2.2470340    -0.0765420
  N        0.8434040     0.0452230     0.2559430
  N        3.0572260     0.7205030    -0.2937270
  N        4.7164630    -0.8366550    -0.5722980
  C       -1.2894840     1.0784300    -0.5920770
  C       -2.7151710     0.6552070    -0.2573930
  C       -0.5254080     0.4815200     0.6000940
  C       -2.5292560    -0.7168860     0.3610560
  C       -2.5283440    -1.8503930    -0.6392900
  C        1.2197750    -1.2614080     0.3112740
  C        1.7555940     1.0674350    -0.0594030
  C        2.5111010    -1.6091400     0.0469950
  C        3.4119830    -0.5506530    -0.2589250
  H       -0.9376060     0.5914040    -1.5148910
  H       -3.3625820     0.6426650    -1.1464650
  H       -0.4402900     1.2218800     1.4039980
  H       -3.2819570    -0.9087340     1.1307830
  H       -1.7133080    -1.7003050    -1.3694640
  H       -3.4855610    -1.8340040    -1.1841350
  H       -0.2975250     2.7131790    -0.5250000
  H       -2.8475560     2.3997430     0.5086630
  H        0.4343110    -1.9634370     0.5690680
  H       -2.4338740    -3.7984320    -0.5432330
  H        2.8584409    -2.7409681     0.0764054
  H        5.1251800    -1.6708610    -0.1624140
  H        5.3198140    -0.0200540    -0.5682940
units angstrom
no_reorient  #important for SAPT in psi4, default
symmetry c1  #important for SAPT in psi4, default
}

set PROPERTIES_ORIGIN ["COM"]
properties('MP2/aug-cc-pvtz', properties = ['dipole'])
--------------------------------------------------------------------------

    Molecular point group: c1
  Charge       = 0
  Multiplicity = 1
  Basis Set: AUG-CC-PVTZ
    Blend: AUG-CC-PVTZ
  Basis Set: (AUG-CC-PVTZ AUX)
    Blend: AUG-CC-PVTZ-JKFIT

    Orbital Energies [Eh]
    ---------------------

    Doubly Occupied:

       1A    -20.582265     2A    -20.581776     3A    -20.557897
       4A    -20.557400     5A    -20.522291     6A    -15.637420
       7A    -15.599755     8A    -15.554095     9A    -11.388669
      10A    -11.358878    11A    -11.341843    12A    -11.329259
      13A    -11.301237    14A    -11.297030    15A    -11.296819
      16A    -11.293086    17A    -11.259327    18A     -1.429577
      19A     -1.396713    20A     -1.380235    21A     -1.372882
      22A     -1.346443    23A     -1.306380    24A     -1.274091
      25A     -1.182552    26A     -1.079959    27A     -1.067850
      28A     -1.020720    29A     -0.935337    30A     -0.908762
      31A     -0.876592    32A     -0.831619    33A     -0.811974
      34A     -0.767182    35A     -0.749489    36A     -0.735676
      37A     -0.720390    38A     -0.702954    39A     -0.698331
      40A     -0.685277    41A     -0.671577    42A     -0.654713
      43A     -0.645784    44A     -0.632973    45A     -0.620628
      46A     -0.614072    47A     -0.606893    48A     -0.586878
      49A     -0.575775    50A     -0.569905    51A     -0.553978
      52A     -0.545443    53A     -0.537362    54A     -0.531876
      55A     -0.498455    56A     -0.477532    57A     -0.474539
      58A     -0.462336    59A     -0.460026    60A     -0.452977
      61A     -0.440797    62A     -0.433271    63A     -0.395500
      64A     -0.350392

  @DF-RHF Final Energy:  -886.36588763595512

   => Energetics <=

    Nuclear Repulsion Energy =           1323.1497960826995950
    One-Electron Energy =               -3843.9639345799432704
    Two-Electron Energy =                1634.4482508612886704
    Total Energy =                       -886.3658876359550050
  Basis Set: (AUG-CC-PVTZ AUX)
    Blend: AUG-CC-PVTZ-RI
    Molecular point group: c1

    Geometry (in Angstrom), charge = 0, multiplicity = 1:

       Center              X                  Y                   Z               Mass
    ------------   -----------------  -----------------  -----------------  -----------------
         O           -1.248222630646    -0.652271759189     1.032504711381    15.994914619570
         O           -1.245096630646     2.483247240811    -0.686173288619    15.994914619570
         O           -3.216651630646     1.521495240811     0.744876711381    15.994914619570
         O           -2.357150630646    -3.066440759189     0.094929711381    15.994914619570
         O            1.360408369354     2.247430240811    -0.076552288619    15.994914619570
         N            0.843282369354     0.045619240811     0.255932711381    14.003074004430
         N            3.057104369354     0.720899240811    -0.293737288619    14.003074004430
         N            4.716341369354    -0.836258759189    -0.572308288619    14.003074004430
         C           -1.289605630646     1.078826240811    -0.592087288619    12.000000000000
         C           -2.715292630646     0.655603240811    -0.257403288619    12.000000000000
         C           -0.525529630646     0.481916240811     0.600083711381    12.000000000000
         C           -2.529377630646    -0.716489759189     0.361045711381    12.000000000000
         C           -2.528465630646    -1.849996759189    -0.639300288619    12.000000000000
         C            1.219653369354    -1.261011759189     0.311263711381    12.000000000000
         C            1.755472369354     1.067831240811    -0.059413288619    12.000000000000
         C            2.510979369354    -1.608743759189     0.046984711381    12.000000000000
         C            3.411861369354    -0.550256759189    -0.258935288619    12.000000000000
         H           -0.937727630646     0.591800240811    -1.514901288619     1.007825032230
         H           -3.362703630646     0.643061240811    -1.146475288619     1.007825032230
         H           -0.440411630646     1.222276240811     1.403987711381     1.007825032230
         H           -3.282078630646    -0.908337759189     1.130772711381     1.007825032230
         H           -1.713429630646    -1.699908759189    -1.369474288619     1.007825032230
         H           -3.485682630646    -1.833607759189    -1.184145288619     1.007825032230
         H           -0.297646630646     2.713575240811    -0.525010288619     1.007825032230
         H           -2.847677630646     2.400139240811     0.508652711381     1.007825032230
         H            0.434189369354    -1.963040759189     0.569057711381     1.007825032230
         H           -2.433995630646    -3.798035759189    -0.543243288619     1.007825032230
         H            2.858319269354    -2.740571859189     0.076395111381     1.007825032230
         H            5.125058369354    -1.670464759189    -0.162424288619     1.007825032230
         H            5.319692369354    -0.019657759189    -0.568304288619     1.007825032230

  Basis Set: AUG-CC-PVTZ
    Blend: AUG-CC-PVTZ
  Basis Set: (AUG-CC-PVTZ AUX)
    Blend: AUG-CC-PVTZ-JKFIT
	 Reference Energy          =    -886.3658876359551186 [Eh]
	 Singles Energy            =      -0.0000000000000000 [Eh]
	 Same-Spin Energy          =      -0.9014782151375361 [Eh]
	 Opposite-Spin Energy      =      -2.7158566534230615 [Eh]
	 Correlation Energy        =      -3.6173348685605977 [Eh]
	 Total Energy              =    -889.9832225045157656 [Eh]

	 ================> DF-SCS-MP2 Energies <==================
	-----------------------------------------------------------
	 SCS Same-Spin Scale       =       0.3333333333333333 [-]
	 SCS Opposite-Spin Scale   =       1.2000000000000000 [-]
	 SCS Same-Spin Energy      =      -0.3004927383791787 [Eh]
	 SCS Opposite-Spin Energy  =      -3.2590279841076737 [Eh]
	 SCS Correlation Energy    =      -3.5595207224868526 [Eh]
	 SCS Total Energy          =    -889.9254083584419277 [Eh]
	-----------------------------------------------------------

  Dipole Moment: [D]
     X:     1.7050      Y:    -5.9356      Z:    -1.8258     Total:     6.4399

*** Psi4 exiting successfully. Buy a developer a beer!
