                               Psi4 1.3.2 release

  ==> Input File <==

--------------------------------------------------------------------------
#psi4
#
memory 32 gb

molecule  {
0 1
  O       -1.2481010    -0.6526680     1.0325150
  O       -1.2449750     2.4828510    -0.6861630
  O       -3.1950043     1.5332479     0.7448541
  O       -2.3570290    -3.0668370     0.0949400
  O        1.3605300     2.2470340    -0.0765420
  N        0.8434040     0.0452230     0.2559430
  N        3.0572260     0.7205030    -0.2937270
  N        4.7164630    -0.8366550    -0.5722980
  C       -1.2913221     1.0979807    -0.5741266
  C       -2.7151710     0.6552070    -0.2573930
  C       -0.5254080     0.4815200     0.6000940
  C       -2.5292560    -0.7168860     0.3610560
  C       -2.5283440    -1.8503930    -0.6392900
  C        1.2197750    -1.2614080     0.3112740
  C        1.7555940     1.0674350    -0.0594030
  C        2.5111010    -1.6091400     0.0469950
  C        3.4119830    -0.5506530    -0.2589250
  H       -0.9376060     0.5914040    -1.5148910
  H       -3.3625820     0.6426650    -1.1464650
  H       -0.4402900     1.2218800     1.4039980
  H       -3.2819570    -0.9087340     1.1307830
  H       -1.7133080    -1.7003050    -1.3694640
  H       -3.4855610    -1.8340040    -1.1841350
  H       -0.2975250     2.7131790    -0.5250000
  H       -2.8475560     2.3997430     0.5086630
  H        0.4343110    -1.9634370     0.5690680
  H       -2.4338740    -3.7984320    -0.5432330
  H        2.8291120    -2.6453980     0.0739220
  H        5.1251800    -1.6708610    -0.1624140
  H        5.3198140    -0.0200540    -0.5682940
units angstrom
no_reorient  #important for SAPT in psi4, default
symmetry c1  #important for SAPT in psi4, default
}

set PROPERTIES_ORIGIN ["COM"]
properties('MP2/aug-cc-pvtz', properties = ['dipole'])
--------------------------------------------------------------------------

    Molecular point group: c1
  Charge       = 0
  Multiplicity = 1
  Basis Set: AUG-CC-PVTZ
    Blend: AUG-CC-PVTZ
  Basis Set: (AUG-CC-PVTZ AUX)
    Blend: AUG-CC-PVTZ-JKFIT

    Orbital Energies [Eh]
    ---------------------

    Doubly Occupied:

       1A    -20.582280     2A    -20.581809     3A    -20.558238
       4A    -20.555474     5A    -20.522061     6A    -15.636877
       7A    -15.599728     8A    -15.553224     9A    -11.388223
      10A    -11.357727    11A    -11.340847    12A    -11.328397
      13A    -11.301220    14A    -11.297503    15A    -11.296960
      16A    -11.293114    17A    -11.248392    18A     -1.430082
      19A     -1.396489    20A     -1.384923    21A     -1.373559
      22A     -1.350838    23A     -1.305999    24A     -1.273648
      25A     -1.182132    26A     -1.081849    27A     -1.067721
      28A     -1.021263    29A     -0.935787    30A     -0.909320
      31A     -0.877518    32A     -0.831708    33A     -0.812438
      34A     -0.766754    35A     -0.752977    36A     -0.736894
      37A     -0.719910    38A     -0.705247    39A     -0.698856
      40A     -0.685564    41A     -0.674713    42A     -0.654425
      43A     -0.651707    44A     -0.637974    45A     -0.621192
      46A     -0.615495    47A     -0.606716    48A     -0.594695
      49A     -0.576640    50A     -0.570092    51A     -0.555646
      52A     -0.545791    53A     -0.538778    54A     -0.532191
      55A     -0.497912    56A     -0.477703    57A     -0.473577
      58A     -0.462327    59A     -0.460283    60A     -0.449182
      61A     -0.440400    62A     -0.432826    63A     -0.395037
      64A     -0.349884

  @DF-RHF Final Energy:  -886.37361493850244

   => Energetics <=

    Nuclear Repulsion Energy =           1324.3109183406199918
    One-Electron Energy =               -3846.2515941993688102
    Two-Electron Energy =                1635.5670609202463766
    Total Energy =                       -886.3736149385024419
  Basis Set: (AUG-CC-PVTZ AUX)
    Blend: AUG-CC-PVTZ-RI
    Molecular point group: c1

    Geometry (in Angstrom), charge = 0, multiplicity = 1:

       Center              X                  Y                   Z               Mass
    ------------   -----------------  -----------------  -----------------  -----------------
         O           -1.249426676586    -0.654432508856     1.031631044640    15.994914619570
         O           -1.246300676586     2.481086491144    -0.687046955360    15.994914619570
         O           -3.196329976586     1.531483391144     0.743970144640    15.994914619570
         O           -2.358354676586    -3.068601508856     0.094056044640    15.994914619570
         O            1.359204323414     2.245269491144    -0.077425955360    15.994914619570
         N            0.842078323414     0.043458491144     0.255059044640    14.003074004430
         N            3.055900323414     0.718738491144    -0.294610955360    14.003074004430
         N            4.715137323414    -0.838419508856    -0.573181955360    14.003074004430
         C           -1.292647776586     1.096216191144    -0.575010555360    12.000000000000
         C           -2.716496676586     0.653442491144    -0.258276955360    12.000000000000
         C           -0.526733676586     0.479755491144     0.599210044640    12.000000000000
         C           -2.530581676586    -0.718650508856     0.360172044640    12.000000000000
         C           -2.529669676586    -1.852157508856    -0.640173955360    12.000000000000
         C            1.218449323414    -1.263172508856     0.310390044640    12.000000000000
         C            1.754268323414     1.065670491144    -0.060286955360    12.000000000000
         C            2.509775323414    -1.610904508856     0.046111044640    12.000000000000
         C            3.410657323414    -0.552417508856    -0.259808955360    12.000000000000
         H           -0.938931676586     0.589639491144    -1.515774955360     1.007825032230
         H           -3.363907676586     0.640900491144    -1.147348955360     1.007825032230
         H           -0.441615676586     1.220115491144     1.403114044640     1.007825032230
         H           -3.283282676586    -0.910498508856     1.129899044640     1.007825032230
         H           -1.714633676586    -1.702069508856    -1.370347955360     1.007825032230
         H           -3.486886676586    -1.835768508856    -1.185018955360     1.007825032230
         H           -0.298850676586     2.711414491144    -0.525883955360     1.007825032230
         H           -2.848881676586     2.397978491144     0.507779044640     1.007825032230
         H            0.432985323414    -1.965201508856     0.568184044640     1.007825032230
         H           -2.435199676586    -3.800196508856    -0.544116955360     1.007825032230
         H            2.827786323414    -2.647162508856     0.073038044640     1.007825032230
         H            5.123854323414    -1.672625508856    -0.163297955360     1.007825032230
         H            5.318488323414    -0.021818508856    -0.569177955360     1.007825032230

  Basis Set: AUG-CC-PVTZ
    Blend: AUG-CC-PVTZ
  Basis Set: (AUG-CC-PVTZ AUX)
    Blend: AUG-CC-PVTZ-JKFIT
	 Reference Energy          =    -886.3736149385024419 [Eh]
	 Singles Energy            =      -0.0000000000000000 [Eh]
	 Same-Spin Energy          =      -0.9010193503519751 [Eh]
	 Opposite-Spin Energy      =      -2.7141015916569988 [Eh]
	 Correlation Energy        =      -3.6151209420089740 [Eh]
	 Total Energy              =    -889.9887358805113990 [Eh]

	 ================> DF-SCS-MP2 Energies <==================
	-----------------------------------------------------------
	 SCS Same-Spin Scale       =       0.3333333333333333 [-]
	 SCS Opposite-Spin Scale   =       1.2000000000000000 [-]
	 SCS Same-Spin Energy      =      -0.3003397834506584 [Eh]
	 SCS Opposite-Spin Energy  =      -3.2569219099883986 [Eh]
	 SCS Correlation Energy    =      -3.5572616934390568 [Eh]
	 SCS Total Energy          =    -889.9308766319414872 [Eh]
	-----------------------------------------------------------

  Dipole Moment: [D]
     X:     1.6555      Y:    -5.9192      Z:    -1.8099     Total:     6.4073

*** Psi4 exiting successfully. Buy a developer a beer!
