                               Psi4 1.4a3.dev225

  ==> Input File <==

--------------------------------------------------------------------------
#psi4
#
memory 32 gb

molecule  {
0 1
  O       -1.3191770     0.6538360    -1.0992360
  O       -1.5735610    -2.4640850     0.5135810
  O       -3.5606630    -1.0699430    -0.4600060
  O       -1.4399290     3.1254620     0.1265180
  O        1.1065530    -2.3833650     0.0076020
  N        0.7686360    -0.1579440    -0.3706350
  N        2.9363770    -0.9938720     0.1460080
  N        4.7058880     0.4431110     0.3611260
  C       -1.3768610    -1.0680440     0.5552780
  C       -2.7379840    -0.3746360     0.4578480
  C       -0.6377490    -0.5042940    -0.6790150
  C       -2.3707440     0.9655450    -0.1585060
  C       -1.9056421     1.9736498     0.8673813
  C        1.2309690     1.1190800    -0.4442230
  C        1.6104480    -1.2470590    -0.0585760
  C        2.5474650     1.3753690    -0.1998620
  C        3.3802090     0.2523040     0.0808410
  H       -0.8441360    -0.7686950     1.4698480
  H       -3.2257400    -0.2778790     1.4400230
  H       -0.6227070    -1.2428120    -1.4883720
  H       -3.1941750     1.3785730    -0.7472070
  H       -1.0952130     1.5703990     1.4802000
  H       -2.7410530     2.2466610     1.5166010
  H       -0.6710550    -2.8260740     0.3542250
  H       -3.3063470    -2.0105220    -0.3629290
  H        0.4929290     1.8778260    -0.6840360
  H       -1.2098800     3.8154810     0.7720340
  H        2.9334840     2.3875570    -0.2389120
  H        5.1589650     1.2712730    -0.0008400
  H        5.2635310    -0.4031270     0.3606700
units angstrom
no_reorient  #important for SAPT in psi4, default
symmetry c1  #important for SAPT in psi4, default
}

set PROPERTIES_ORIGIN ["COM"]
properties('MP2/aug-cc-pvtz', properties = ['dipole'])
--------------------------------------------------------------------------

    Molecular point group: c1
  Charge       = 0
  Multiplicity = 1
  Basis Set: AUG-CC-PVTZ
    Blend: AUG-CC-PVTZ
  Basis Set: (AUG-CC-PVTZ AUX)
    Blend: AUG-CC-PVTZ-JKFIT

    Orbital Energies [Eh]
    ---------------------

    Doubly Occupied:

       1A    -20.584664     2A    -20.581926     3A    -20.559589
       4A    -20.556546     5A    -20.519799     6A    -15.633055
       7A    -15.599670     8A    -15.551783     9A    -11.386028
      10A    -11.358069    11A    -11.339830    12A    -11.325015
      13A    -11.303341    14A    -11.298301    15A    -11.297280
      16A    -11.293607    17A    -11.246513    18A     -1.429326
      19A     -1.393610    20A     -1.379864    21A     -1.371913
      22A     -1.346714    23A     -1.303697    24A     -1.271389
      25A     -1.181227    26A     -1.079391    27A     -1.069826
      28A     -1.017684    29A     -0.937273    30A     -0.906808
      31A     -0.876977    32A     -0.830290    33A     -0.813037
      34A     -0.766589    35A     -0.750245    36A     -0.734804
      37A     -0.721222    38A     -0.705073    39A     -0.703436
      40A     -0.684955    41A     -0.675332    42A     -0.653431
      43A     -0.649074    44A     -0.633425    45A     -0.620115
      46A     -0.614553    47A     -0.607460    48A     -0.593050
      49A     -0.575335    50A     -0.564793    51A     -0.555102
      52A     -0.548301    53A     -0.536853    54A     -0.531509
      55A     -0.495884    56A     -0.482262    57A     -0.474182
      58A     -0.464403    59A     -0.458078    60A     -0.453503
      61A     -0.442532    62A     -0.430407    63A     -0.392316
      64A     -0.348261

  @DF-RHF Final Energy:  -886.37350816885510

   => Energetics <=

    Nuclear Repulsion Energy =           1334.5254737931481941
    One-Electron Energy =               -3866.7769137205891639
    Two-Electron Energy =                1645.8779317585858735
    Total Energy =                       -886.3735081688550963
  Basis Set: (AUG-CC-PVTZ AUX)
    Blend: AUG-CC-PVTZ-RI
    Molecular point group: c1

    Geometry (in Angstrom), charge = 0, multiplicity = 1:

       Center              X                  Y                   Z               Mass
    ------------   -----------------  -----------------  -----------------  -----------------
         O           -1.331602786419     0.683233619701    -1.083961453107    15.994914619570
         O           -1.585986786419    -2.434687380299     0.528855546893    15.994914619570
         O           -3.573088786419    -1.040545380299    -0.444731453107    15.994914619570
         O           -1.452354786419     3.154859619701     0.141792546893    15.994914619570
         O            1.094127213581    -2.353967380299     0.022876546893    15.994914619570
         N            0.756210213581    -0.128546380299    -0.355360453107    14.003074004430
         N            2.923951213581    -0.964474380299     0.161282546893    14.003074004430
         N            4.693462213581     0.472508619701     0.376400546893    14.003074004430
         C           -1.389286786419    -1.038646380299     0.570552546893    12.000000000000
         C           -2.750409786419    -0.345238380299     0.473122546893    12.000000000000
         C           -0.650174786419    -0.474896380299    -0.663740453107    12.000000000000
         C           -2.383169786419     0.994942619701    -0.143231453107    12.000000000000
         C           -1.918067886419     2.003047419701     0.882655846893    12.000000000000
         C            1.218543213581     1.148477619701    -0.428948453107    12.000000000000
         C            1.598022213581    -1.217661380299    -0.043301453107    12.000000000000
         C            2.535039213581     1.404766619701    -0.184587453107    12.000000000000
         C            3.367783213581     0.281701619701     0.096115546893    12.000000000000
         H           -0.856561786419    -0.739297380299     1.485122546893     1.007825032230
         H           -3.238165786419    -0.248481380299     1.455297546893     1.007825032230
         H           -0.635132786419    -1.213414380299    -1.473097453107     1.007825032230
         H           -3.206600786419     1.407970619701    -0.731932453107     1.007825032230
         H           -1.107638786419     1.599796619701     1.495474546893     1.007825032230
         H           -2.753478786419     2.276058619701     1.531875546893     1.007825032230
         H           -0.683480786419    -2.796676380299     0.369499546893     1.007825032230
         H           -3.318772786419    -1.981124380299    -0.347654453107     1.007825032230
         H            0.480503213581     1.907223619701    -0.668761453107     1.007825032230
         H           -1.222305786419     3.844878619701     0.787308546893     1.007825032230
         H            2.921058213581     2.416954619701    -0.223637453107     1.007825032230
         H            5.146539213581     1.300670619701     0.014434546893     1.007825032230
         H            5.251105213581    -0.373729380299     0.375944546893     1.007825032230

  Basis Set: AUG-CC-PVTZ
    Blend: AUG-CC-PVTZ
  Basis Set: (AUG-CC-PVTZ AUX)
    Blend: AUG-CC-PVTZ-JKFIT
	 Reference Energy          =    -886.3735081688550963 [Eh]
	 Singles Energy            =      -0.0000000000000000 [Eh]
	 Same-Spin Energy          =      -0.9018850061810910 [Eh]
	 Opposite-Spin Energy      =      -2.7162695051573218 [Eh]
	 Correlation Energy        =      -3.6181545113384130 [Eh]
	 Total Energy              =    -889.9916626801934854 [Eh]

	 ================> DF-SCS-MP2 Energies <==================
	-----------------------------------------------------------
	 SCS Same-Spin Scale       =       0.3333333333333333 [-]
	 SCS Opposite-Spin Scale   =       1.2000000000000000 [-]
	 SCS Same-Spin Energy      =      -0.3006283353936970 [Eh]
	 SCS Opposite-Spin Energy  =      -3.2595234061887859 [Eh]
	 SCS Correlation Energy    =      -3.5601517415824828 [Eh]
	 SCS Total Energy          =    -889.9336599104375409 [Eh]
	-----------------------------------------------------------

  Dipole Moment: [D]
     X:     2.7180      Y:     5.7405      Z:     1.9736     Total:     6.6510

*** Psi4 exiting successfully. Buy a developer a beer!
