                               Psi4 1.4a3.dev225

  ==> Input File <==

--------------------------------------------------------------------------
#psi4
#
memory 32 gb

molecule  {
0 1
  O       -1.3191770     0.6538360    -1.0992360
  O       -1.5735610    -2.4640850     0.5135810
  O       -3.5606630    -1.0699430    -0.4600060
  O       -1.4399290     3.1254620     0.1265180
  O        1.1065530    -2.3833650     0.0076020
  N        0.7686360    -0.1579440    -0.3706350
  N        2.9363770    -0.9938720     0.1460080
  N        4.7058880     0.4431110     0.3611260
  C       -1.3768610    -1.0680440     0.5552780
  C       -2.7379840    -0.3746360     0.4578480
  C       -0.6377490    -0.5042940    -0.6790150
  C       -2.3707440     0.9655450    -0.1585060
  C       -1.8992030     1.9895750     0.8571380
  C        1.2309690     1.1190800    -0.4442230
  C        1.6104480    -1.2470590    -0.0585760
  C        2.5474650     1.3753690    -0.1998620
  C        3.3802090     0.2523040     0.0808410
  H       -0.8441360    -0.7686950     1.4698480
  H       -3.2257400    -0.2778790     1.4400230
  H       -0.6227070    -1.2428120    -1.4883720
  H       -3.1941750     1.3785730    -0.7472070
  H       -1.0952130     1.5703990     1.4802000
  H       -2.7410530     2.2466610     1.5166010
  H       -0.6710550    -2.8260740     0.3542250
  H       -3.3063470    -2.0105220    -0.3629290
  H        0.5065295     1.8638440    -0.6796168
  H       -1.2098800     3.8154810     0.7720340
  H        2.9334840     2.3875570    -0.2389120
  H        5.1589650     1.2712730    -0.0008400
  H        5.2635310    -0.4031270     0.3606700
units angstrom
no_reorient  #important for SAPT in psi4, default
symmetry c1  #important for SAPT in psi4, default
}

set PROPERTIES_ORIGIN ["COM"]
properties('MP2/aug-cc-pvtz', properties = ['dipole'])
--------------------------------------------------------------------------

    Molecular point group: c1
  Charge       = 0
  Multiplicity = 1
  Basis Set: AUG-CC-PVTZ
    Blend: AUG-CC-PVTZ
  Basis Set: (AUG-CC-PVTZ AUX)
    Blend: AUG-CC-PVTZ-JKFIT

    Orbital Energies [Eh]
    ---------------------

    Doubly Occupied:

       1A    -20.586482     2A    -20.581365     3A    -20.559334
       4A    -20.556394     5A    -20.519728     6A    -15.632951
       7A    -15.599739     8A    -15.551855     9A    -11.385967
      10A    -11.358144    11A    -11.339577    12A    -11.323498
      13A    -11.303450    14A    -11.297856    15A    -11.296953
      16A    -11.293456    17A    -11.246709    18A     -1.429193
      19A     -1.394074    20A     -1.382864    21A     -1.375424
      22A     -1.346509    23A     -1.303750    24A     -1.271473
      25A     -1.181288    26A     -1.079872    27A     -1.067990
      28A     -1.017236    29A     -0.936571    30A     -0.908268
      31A     -0.876855    32A     -0.830138    33A     -0.812439
      34A     -0.766558    35A     -0.751186    36A     -0.735107
      37A     -0.722607    38A     -0.707867    39A     -0.703514
      40A     -0.686083    41A     -0.675194    42A     -0.653402
      43A     -0.649140    44A     -0.633448    45A     -0.620340
      46A     -0.616149    47A     -0.608533    48A     -0.593244
      49A     -0.577308    50A     -0.565077    51A     -0.555777
      52A     -0.548252    53A     -0.536657    54A     -0.531008
      55A     -0.495712    56A     -0.480660    57A     -0.473664
      58A     -0.463465    59A     -0.457991    60A     -0.453003
      61A     -0.442071    62A     -0.430343    63A     -0.392303
      64A     -0.348321

  @DF-RHF Final Energy:  -886.37441447462538

   => Energetics <=

    Nuclear Repulsion Energy =           1334.6615729170348459
    One-Electron Energy =               -3867.0292005321593933
    Two-Electron Energy =                1645.9932131404991651
    Total Energy =                       -886.3744144746253824
  Basis Set: (AUG-CC-PVTZ AUX)
    Blend: AUG-CC-PVTZ-RI
    Molecular point group: c1

    Geometry (in Angstrom), charge = 0, multiplicity = 1:

       Center              X                  Y                   Z               Mass
    ------------   -----------------  -----------------  -----------------  -----------------
         O           -1.331977042048     0.682505435685    -1.083474110960    15.994914619570
         O           -1.586361042048    -2.435415564315     0.529342889040    15.994914619570
         O           -3.573463042048    -1.041273564315    -0.444244110960    15.994914619570
         O           -1.452729042048     3.154131435685     0.142279889040    15.994914619570
         O            1.093752957952    -2.354695564315     0.023363889040    15.994914619570
         N            0.755835957952    -0.129274564315    -0.354873110960    14.003074004430
         N            2.923576957952    -0.965202564315     0.161769889040    14.003074004430
         N            4.693087957952     0.471780435685     0.376887889040    14.003074004430
         C           -1.389661042048    -1.039374564315     0.571039889040    12.000000000000
         C           -2.750784042048    -0.345966564315     0.473609889040    12.000000000000
         C           -0.650549042048    -0.475624564315    -0.663253110960    12.000000000000
         C           -2.383544042048     0.994214435685    -0.142744110960    12.000000000000
         C           -1.912003042048     2.018244435685     0.872899889040    12.000000000000
         C            1.218168957952     1.147749435685    -0.428461110960    12.000000000000
         C            1.597647957952    -1.218389564315    -0.042814110960    12.000000000000
         C            2.534664957952     1.404038435685    -0.184100110960    12.000000000000
         C            3.367408957952     0.280973435685     0.096602889040    12.000000000000
         H           -0.856936042048    -0.740025564315     1.485609889040     1.007825032230
         H           -3.238540042048    -0.249209564315     1.455784889040     1.007825032230
         H           -0.635507042048    -1.214142564315    -1.472610110960     1.007825032230
         H           -3.206975042048     1.407242435685    -0.731445110960     1.007825032230
         H           -1.108013042048     1.599068435685     1.495961889040     1.007825032230
         H           -2.753853042048     2.275330435685     1.532362889040     1.007825032230
         H           -0.683855042048    -2.797404564315     0.369986889040     1.007825032230
         H           -3.319147042048    -1.981852564315    -0.347167110960     1.007825032230
         H            0.493729457952     1.892513435685    -0.663854910960     1.007825032230
         H           -1.222680042048     3.844150435685     0.787795889040     1.007825032230
         H            2.920683957952     2.416226435685    -0.223150110960     1.007825032230
         H            5.146164957952     1.299942435685     0.014921889040     1.007825032230
         H            5.250730957952    -0.374457564315     0.376431889040     1.007825032230

  Basis Set: AUG-CC-PVTZ
    Blend: AUG-CC-PVTZ
  Basis Set: (AUG-CC-PVTZ AUX)
    Blend: AUG-CC-PVTZ-JKFIT
	 Reference Energy          =    -886.3744144746253824 [Eh]
	 Singles Energy            =      -0.0000000000000000 [Eh]
	 Same-Spin Energy          =      -0.9016973888392600 [Eh]
	 Opposite-Spin Energy      =      -2.7157265077145611 [Eh]
	 Correlation Energy        =      -3.6174238965538210 [Eh]
	 Total Energy              =    -889.9918383711792558 [Eh]

	 ================> DF-SCS-MP2 Energies <==================
	-----------------------------------------------------------
	 SCS Same-Spin Scale       =       0.3333333333333333 [-]
	 SCS Opposite-Spin Scale   =       1.2000000000000000 [-]
	 SCS Same-Spin Energy      =      -0.3005657962797533 [Eh]
	 SCS Opposite-Spin Energy  =      -3.2588718092574731 [Eh]
	 SCS Correlation Energy    =      -3.5594376055372265 [Eh]
	 SCS Total Energy          =    -889.9338520801626373 [Eh]
	-----------------------------------------------------------

  Dipole Moment: [D]
     X:     2.7526      Y:     5.7918      Z:     1.9478     Total:     6.7020

*** Psi4 exiting successfully. Buy a developer a beer!
