                               Psi4 1.3.2 release

  ==> Input File <==

--------------------------------------------------------------------------
#psi4
#
memory 32 gb

molecule  {
0 1
  O       -1.2481010    -0.6526680     1.0325150
  O       -1.2449750     2.4828510    -0.6861630
  O       -3.2165300     1.5210990     0.7448870
  O       -2.3570290    -3.0668370     0.0949400
  O        1.3605300     2.2470340    -0.0765420
  N        0.8434040     0.0452230     0.2559430
  N        3.0572260     0.7205030    -0.2937270
  N        4.7164630    -0.8366550    -0.5722980
  C       -1.2894840     1.0784300    -0.5920770
  C       -2.7151710     0.6552070    -0.2573930
  C       -0.5161359     0.4784058     0.6075978
  C       -2.5319700    -0.7274900     0.3673674
  C       -2.5283440    -1.8503930    -0.6392900
  C        1.2197750    -1.2614080     0.3112740
  C        1.7555940     1.0674350    -0.0594030
  C        2.5111010    -1.6091400     0.0469950
  C        3.4119830    -0.5506530    -0.2589250
  H       -0.9376060     0.5914040    -1.5148910
  H       -3.3625820     0.6426650    -1.1464650
  H       -0.4402900     1.2218800     1.4039980
  H       -3.2819570    -0.9087340     1.1307830
  H       -1.7133080    -1.7003050    -1.3694640
  H       -3.4855610    -1.8340040    -1.1841350
  H       -0.2975250     2.7131790    -0.5250000
  H       -2.8475560     2.3997430     0.5086630
  H        0.4343110    -1.9634370     0.5690680
  H       -2.4338740    -3.7984320    -0.5432330
  H        2.8291120    -2.6453980     0.0739220
  H        5.1251800    -1.6708610    -0.1624140
  H        5.3198140    -0.0200540    -0.5682940
units angstrom
no_reorient  #important for SAPT in psi4, default
symmetry c1  #important for SAPT in psi4, default
}

set PROPERTIES_ORIGIN ["COM"]
properties('MP2/aug-cc-pvtz', properties = ['dipole'])
--------------------------------------------------------------------------

    Molecular point group: c1
  Charge       = 0
  Multiplicity = 1
  Basis Set: AUG-CC-PVTZ
    Blend: AUG-CC-PVTZ
  Basis Set: (AUG-CC-PVTZ AUX)
    Blend: AUG-CC-PVTZ-JKFIT

    Orbital Energies [Eh]
    ---------------------

    Doubly Occupied:

       1A    -20.581960     2A    -20.580585     3A    -20.557199
       4A    -20.556681     5A    -20.522330     6A    -15.637438
       7A    -15.600115     8A    -15.553682     9A    -11.388706
      10A    -11.358175    11A    -11.341045    12A    -11.328830
      13A    -11.300851    14A    -11.296633    15A    -11.296331
      16A    -11.292758    17A    -11.248896    18A     -1.428509
      19A     -1.396484    20A     -1.379615    21A     -1.372538
      22A     -1.345590    23A     -1.306532    24A     -1.274735
      25A     -1.182746    26A     -1.082431    27A     -1.065715
      28A     -1.019979    29A     -0.935772    30A     -0.910018
      31A     -0.877047    32A     -0.832148    33A     -0.811446
      34A     -0.767651    35A     -0.752378    36A     -0.736106
      37A     -0.720133    38A     -0.702880    39A     -0.697938
      40A     -0.685987    41A     -0.672933    42A     -0.655059
      43A     -0.651538    44A     -0.637934    45A     -0.620505
      46A     -0.614790    47A     -0.606701    48A     -0.594263
      49A     -0.575357    50A     -0.571158    51A     -0.553210
      52A     -0.545399    53A     -0.536570    54A     -0.532367
      55A     -0.498218    56A     -0.477035    57A     -0.472574
      58A     -0.462670    59A     -0.460020    60A     -0.451447
      61A     -0.439929    62A     -0.433654    63A     -0.395208
      64A     -0.350146

  @DF-RHF Final Energy:  -886.37352379682375

   => Energetics <=

    Nuclear Repulsion Energy =           1323.4599872012640844
    One-Electron Energy =               -3844.5964664827856723
    Two-Electron Energy =                1634.7629554846978408
    Total Energy =                       -886.3735237968237470
  Basis Set: (AUG-CC-PVTZ AUX)
    Blend: AUG-CC-PVTZ-RI
    Molecular point group: c1

    Geometry (in Angstrom), charge = 0, multiplicity = 1:

       Center              X                  Y                   Z               Mass
    ------------   -----------------  -----------------  -----------------  -----------------
         O           -1.248424776790    -0.651990786218     1.031833015400    15.994914619570
         O           -1.245298776790     2.483528213782    -0.686844984600    15.994914619570
         O           -3.216853776790     1.521776213782     0.744205015400    15.994914619570
         O           -2.357352776790    -3.066159786218     0.094258015400    15.994914619570
         O            1.360206223210     2.247711213782    -0.077223984600    15.994914619570
         N            0.843080223210     0.045900213782     0.255261015400    14.003074004430
         N            3.056902223210     0.721180213782    -0.294408984600    14.003074004430
         N            4.716139223210    -0.835977786218    -0.572979984600    14.003074004430
         C           -1.289807776790     1.079107213782    -0.592758984600    12.000000000000
         C           -2.715494776790     0.655884213782    -0.258074984600    12.000000000000
         C           -0.516459676790     0.479083013782     0.606915815400    12.000000000000
         C           -2.532293776790    -0.726812786218     0.366685415400    12.000000000000
         C           -2.528667776790    -1.849715786218    -0.639971984600    12.000000000000
         C            1.219451223210    -1.260730786218     0.310592015400    12.000000000000
         C            1.755270223210     1.068112213782    -0.060084984600    12.000000000000
         C            2.510777223210    -1.608462786218     0.046313015400    12.000000000000
         C            3.411659223210    -0.549975786218    -0.259606984600    12.000000000000
         H           -0.937929776790     0.592081213782    -1.515572984600     1.007825032230
         H           -3.362905776790     0.643342213782    -1.147146984600     1.007825032230
         H           -0.440613776790     1.222557213782     1.403316015400     1.007825032230
         H           -3.282280776790    -0.908056786218     1.130101015400     1.007825032230
         H           -1.713631776790    -1.699627786218    -1.370145984600     1.007825032230
         H           -3.485884776790    -1.833326786218    -1.184816984600     1.007825032230
         H           -0.297848776790     2.713856213782    -0.525681984600     1.007825032230
         H           -2.847879776790     2.400420213782     0.507981015400     1.007825032230
         H            0.433987223210    -1.962759786218     0.568386015400     1.007825032230
         H           -2.434197776790    -3.797754786218    -0.543914984600     1.007825032230
         H            2.828788223210    -2.644720786218     0.073240015400     1.007825032230
         H            5.124856223210    -1.670183786218    -0.163095984600     1.007825032230
         H            5.319490223210    -0.019376786218    -0.568975984600     1.007825032230

  Basis Set: AUG-CC-PVTZ
    Blend: AUG-CC-PVTZ
  Basis Set: (AUG-CC-PVTZ AUX)
    Blend: AUG-CC-PVTZ-JKFIT
	 Reference Energy          =    -886.3735237968237470 [Eh]
	 Singles Energy            =      -0.0000000000000000 [Eh]
	 Same-Spin Energy          =      -0.9010939269622427 [Eh]
	 Opposite-Spin Energy      =      -2.7147492741367838 [Eh]
	 Correlation Energy        =      -3.6158432010990262 [Eh]
	 Total Energy              =    -889.9893669979227298 [Eh]

	 ================> DF-SCS-MP2 Energies <==================
	-----------------------------------------------------------
	 SCS Same-Spin Scale       =       0.3333333333333333 [-]
	 SCS Opposite-Spin Scale   =       1.2000000000000000 [-]
	 SCS Same-Spin Energy      =      -0.3003646423207476 [Eh]
	 SCS Opposite-Spin Energy  =      -3.2576991289641404 [Eh]
	 SCS Correlation Energy    =      -3.5580637712848882 [Eh]
	 SCS Total Energy          =    -889.9315875681086254 [Eh]
	-----------------------------------------------------------

  Dipole Moment: [D]
     X:     1.7458      Y:    -5.9669      Z:    -1.8136     Total:     6.4761

*** Psi4 exiting successfully. Buy a developer a beer!
