                               Psi4 1.3.2 release

  ==> Input File <==

--------------------------------------------------------------------------
#psi4
#
memory 32 gb

molecule  {
0 1
  O       -1.2481010    -0.6526680     1.0325150
  O       -1.2449750     2.4828510    -0.6861630
  O       -3.2165300     1.5210990     0.7448870
  O       -2.3570290    -3.0668370     0.0949400
  O        1.3605300     2.2470340    -0.0765420
  N        0.8434040     0.0452230     0.2559430
  N        3.0572260     0.7205030    -0.2937270
  N        4.7164630    -0.8366550    -0.5722980
  C       -1.2849766     1.0669151    -0.5871729
  C       -2.7151710     0.6552070    -0.2573930
  C       -0.5254080     0.4815200     0.6000940
  C       -2.5161807    -0.7158410     0.3593023
  C       -2.5283440    -1.8503930    -0.6392900
  C        1.2197750    -1.2614080     0.3112740
  C        1.7555940     1.0674350    -0.0594030
  C        2.5111010    -1.6091400     0.0469950
  C        3.4119830    -0.5506530    -0.2589250
  H       -0.9376060     0.5914040    -1.5148910
  H       -3.3625820     0.6426650    -1.1464650
  H       -0.4402900     1.2218800     1.4039980
  H       -3.2819570    -0.9087340     1.1307830
  H       -1.7133080    -1.7003050    -1.3694640
  H       -3.4855610    -1.8340040    -1.1841350
  H       -0.2975250     2.7131790    -0.5250000
  H       -2.8475560     2.3997430     0.5086630
  H        0.4343110    -1.9634370     0.5690680
  H       -2.4338740    -3.7984320    -0.5432330
  H        2.8291120    -2.6453980     0.0739220
  H        5.1251800    -1.6708610    -0.1624140
  H        5.3198140    -0.0200540    -0.5682940
units angstrom
no_reorient  #important for SAPT in psi4, default
symmetry c1  #important for SAPT in psi4, default
}

set PROPERTIES_ORIGIN ["COM"]
properties('MP2/aug-cc-pvtz', properties = ['dipole'])
--------------------------------------------------------------------------

    Molecular point group: c1
  Charge       = 0
  Multiplicity = 1
  Basis Set: AUG-CC-PVTZ
    Blend: AUG-CC-PVTZ
  Basis Set: (AUG-CC-PVTZ AUX)
    Blend: AUG-CC-PVTZ-JKFIT

    Orbital Energies [Eh]
    ---------------------

    Doubly Occupied:

       1A    -20.583113     2A    -20.582111     3A    -20.557801
       4A    -20.556325     5A    -20.522167     6A    -15.637370
       7A    -15.600122     8A    -15.553640     9A    -11.388558
      10A    -11.358185    11A    -11.342421    12A    -11.328991
      13A    -11.300864    14A    -11.296742    15A    -11.296310
      16A    -11.292966    17A    -11.248962    18A     -1.432168
      19A     -1.397232    20A     -1.378588    21A     -1.372622
      22A     -1.344043    23A     -1.306461    24A     -1.274461
      25A     -1.182632    26A     -1.082824    27A     -1.068080
      28A     -1.023184    29A     -0.935915    30A     -0.910088
      31A     -0.877351    32A     -0.832126    33A     -0.812405
      34A     -0.767274    35A     -0.753191    36A     -0.735573
      37A     -0.720753    38A     -0.702531    39A     -0.698195
      40A     -0.686063    41A     -0.672511    42A     -0.655046
      43A     -0.651723    44A     -0.639292    45A     -0.620707
      46A     -0.614771    47A     -0.606998    48A     -0.593708
      49A     -0.576248    50A     -0.569083    51A     -0.553486
      52A     -0.545611    53A     -0.537199    54A     -0.531988
      55A     -0.497795    56A     -0.477360    57A     -0.473600
      58A     -0.461905    59A     -0.460156    60A     -0.453968
      61A     -0.442018    62A     -0.433383    63A     -0.395714
      64A     -0.350519

  @DF-RHF Final Energy:  -886.37290344188614

   => Energetics <=

    Nuclear Repulsion Energy =           1324.1292687145321452
    One-Electron Energy =               -3845.8939441051829817
    Two-Electron Energy =                1635.3917719487649265
    Total Energy =                       -886.3729034418861374
  Basis Set: (AUG-CC-PVTZ AUX)
    Blend: AUG-CC-PVTZ-RI
    Molecular point group: c1

    Geometry (in Angstrom), charge = 0, multiplicity = 1:

       Center              X                  Y                   Z               Mass
    ------------   -----------------  -----------------  -----------------  -----------------
         O           -1.248969009945    -0.652151139661     1.032359486905    15.994914619570
         O           -1.245843009945     2.483367860339    -0.686318513095    15.994914619570
         O           -3.217398009945     1.521615860339     0.744731486905    15.994914619570
         O           -2.357897009945    -3.066320139661     0.094784486905    15.994914619570
         O            1.359661990055     2.247550860339    -0.076697513095    15.994914619570
         N            0.842535990055     0.045739860339     0.255787486905    14.003074004430
         N            3.056357990055     0.721019860339    -0.293882513095    14.003074004430
         N            4.715594990055    -0.836138139661    -0.572453513095    14.003074004430
         C           -1.285844609945     1.067431960339    -0.587328413095    12.000000000000
         C           -2.716039009945     0.655723860339    -0.257548513095    12.000000000000
         C           -0.526276009945     0.482036860339     0.599938486905    12.000000000000
         C           -2.517048709945    -0.715324139661     0.359146786905    12.000000000000
         C           -2.529212009945    -1.849876139661    -0.639445513095    12.000000000000
         C            1.218906990055    -1.260891139661     0.311118486905    12.000000000000
         C            1.754725990055     1.067951860339    -0.059558513095    12.000000000000
         C            2.510232990055    -1.608623139661     0.046839486905    12.000000000000
         C            3.411114990055    -0.550136139661    -0.259080513095    12.000000000000
         H           -0.938474009945     0.591920860339    -1.515046513095     1.007825032230
         H           -3.363450009945     0.643181860339    -1.146620513095     1.007825032230
         H           -0.441158009945     1.222396860339     1.403842486905     1.007825032230
         H           -3.282825009945    -0.908217139661     1.130627486905     1.007825032230
         H           -1.714176009945    -1.699788139661    -1.369619513095     1.007825032230
         H           -3.486429009945    -1.833487139661    -1.184290513095     1.007825032230
         H           -0.298393009945     2.713695860339    -0.525155513095     1.007825032230
         H           -2.848424009945     2.400259860339     0.508507486905     1.007825032230
         H            0.433442990055    -1.962920139661     0.568912486905     1.007825032230
         H           -2.434742009945    -3.797915139661    -0.543388513095     1.007825032230
         H            2.828243990055    -2.644881139661     0.073766486905     1.007825032230
         H            5.124311990055    -1.670344139661    -0.162569513095     1.007825032230
         H            5.318945990055    -0.019537139661    -0.568449513095     1.007825032230

  Basis Set: AUG-CC-PVTZ
    Blend: AUG-CC-PVTZ
  Basis Set: (AUG-CC-PVTZ AUX)
    Blend: AUG-CC-PVTZ-JKFIT
	 Reference Energy          =    -886.3729034418861374 [Eh]
	 Singles Energy            =      -0.0000000000000000 [Eh]
	 Same-Spin Energy          =      -0.9013630020305912 [Eh]
	 Opposite-Spin Energy      =      -2.7151545912190209 [Eh]
	 Correlation Energy        =      -3.6165175932496121 [Eh]
	 Total Energy              =    -889.9894210351357060 [Eh]

	 ================> DF-SCS-MP2 Energies <==================
	-----------------------------------------------------------
	 SCS Same-Spin Scale       =       0.3333333333333333 [-]
	 SCS Opposite-Spin Scale   =       1.2000000000000000 [-]
	 SCS Same-Spin Energy      =      -0.3004543340101971 [Eh]
	 SCS Opposite-Spin Energy  =      -3.2581855094628249 [Eh]
	 SCS Correlation Energy    =      -3.5586398434730220 [Eh]
	 SCS Total Energy          =    -889.9315432853591119 [Eh]
	-----------------------------------------------------------

  Dipole Moment: [D]
     X:     1.7590      Y:    -5.9686      Z:    -1.8123     Total:     6.4809

*** Psi4 exiting successfully. Buy a developer a beer!
