                               Psi4 1.3.2 release

  ==> Input File <==

--------------------------------------------------------------------------
#psi4
#
memory 32 gb

molecule  {
0 1
  O       -1.2481010    -0.6526680     1.0325150
  O       -1.2449750     2.4828510    -0.6861630
  O       -3.2165300     1.5210990     0.7448870
  O       -2.3570290    -3.0668370     0.0949400
  O        1.3605300     2.2470340    -0.0765420
  N        0.8434040     0.0452230     0.2559430
  N        3.0572260     0.7205030    -0.2937270
  N        4.7164630    -0.8366550    -0.5722980
  C       -1.2894840     1.0784300    -0.5920770
  C       -2.7151710     0.6552070    -0.2573930
  C       -0.5254080     0.4815200     0.6000940
  C       -2.5292560    -0.7168860     0.3610560
  C       -2.5283440    -1.8503930    -0.6392900
  C        1.2051887    -1.3305421     0.3213308
  C        1.7555940     1.0674350    -0.0594030
  C        2.5111010    -1.6091400     0.0469950
  C        3.4119830    -0.5506530    -0.2589250
  H       -0.9376060     0.5914040    -1.5148910
  H       -3.3625820     0.6426650    -1.1464650
  H       -0.4402900     1.2218800     1.4039980
  H       -3.2819570    -0.9087340     1.1307830
  H       -1.7133080    -1.7003050    -1.3694640
  H       -3.4855610    -1.8340040    -1.1841350
  H       -0.2975250     2.7131790    -0.5250000
  H       -2.8475560     2.3997430     0.5086630
  H        0.4343110    -1.9634370     0.5690680
  H       -2.4338740    -3.7984320    -0.5432330
  H        2.7759321    -2.6598081     0.0875865
  H        5.1251800    -1.6708610    -0.1624140
  H        5.3198140    -0.0200540    -0.5682940
units angstrom
no_reorient  #important for SAPT in psi4, default
symmetry c1  #important for SAPT in psi4, default
}

set PROPERTIES_ORIGIN ["COM"]
properties('MP2/aug-cc-pvtz', properties = ['dipole'])
--------------------------------------------------------------------------

    Molecular point group: c1
  Charge       = 0
  Multiplicity = 1
  Basis Set: AUG-CC-PVTZ
    Blend: AUG-CC-PVTZ
  Basis Set: (AUG-CC-PVTZ AUX)
    Blend: AUG-CC-PVTZ-JKFIT

    Orbital Energies [Eh]
    ---------------------

    Doubly Occupied:

       1A    -20.581962     2A    -20.579571     3A    -20.556116
       4A    -20.555151     5A    -20.520610     6A    -15.631440
       7A    -15.603009     8A    -15.555809     9A    -11.387346
      10A    -11.363124    11A    -11.337037    12A    -11.330605
      13A    -11.300432    14A    -11.295484    15A    -11.293691
      16A    -11.291057    17A    -11.255159    18A     -1.425803
      19A     -1.393351    20A     -1.378457    21A     -1.371736
      22A     -1.344411    23A     -1.303328    24A     -1.262581
      25A     -1.182544    26A     -1.084443    27A     -1.066043
      28A     -1.018122    29A     -0.933229    30A     -0.910768
      31A     -0.875747    32A     -0.829609    33A     -0.810578
      34A     -0.764890    35A     -0.749578    36A     -0.732732
      37A     -0.723935    38A     -0.702838    39A     -0.696926
      40A     -0.691038    41A     -0.671079    42A     -0.652161
      43A     -0.650613    44A     -0.637228    45A     -0.629245
      46A     -0.614475    47A     -0.607523    48A     -0.584448
      49A     -0.575418    50A     -0.568798    51A     -0.552622
      52A     -0.543800    53A     -0.535983    54A     -0.530714
      55A     -0.491640    56A     -0.476380    57A     -0.472253
      58A     -0.460472    59A     -0.459810    60A     -0.450893
      61A     -0.440348    62A     -0.433402    63A     -0.394745
      64A     -0.353530

  @DF-RHF Final Energy:  -886.36458754612067

   => Energetics <=

    Nuclear Repulsion Energy =           1322.2820879047694689
    One-Electron Energy =               -3842.3376075296359886
    Two-Electron Energy =                1633.6909320787458455
    Total Energy =                       -886.3645875461206742
  Basis Set: (AUG-CC-PVTZ AUX)
    Blend: AUG-CC-PVTZ-RI
    Molecular point group: c1

    Geometry (in Angstrom), charge = 0, multiplicity = 1:

       Center              X                  Y                   Z               Mass
    ------------   -----------------  -----------------  -----------------  -----------------
         O           -1.247160494023    -0.649195417502     1.031961897510    15.994914619570
         O           -1.244034494023     2.486323582498    -0.686716102490    15.994914619570
         O           -3.215589494023     1.524571582498     0.744333897510    15.994914619570
         O           -2.356088494023    -3.063364417502     0.094386897510    15.994914619570
         O            1.361470505977     2.250506582498    -0.077095102490    15.994914619570
         N            0.844344505977     0.048695582498     0.255389897510    14.003074004430
         N            3.058166505977     0.723975582498    -0.294280102490    14.003074004430
         N            4.717403505977    -0.833182417502    -0.572851102490    14.003074004430
         C           -1.288543494023     1.081902582498    -0.592630102490    12.000000000000
         C           -2.714230494023     0.658679582498    -0.257946102490    12.000000000000
         C           -0.524467494023     0.484992582498     0.599540897510    12.000000000000
         C           -2.528315494023    -0.713413417502     0.360502897510    12.000000000000
         C           -2.527403494023    -1.846920417502    -0.639843102490    12.000000000000
         C            1.206129205977    -1.327069517502     0.320777697510    12.000000000000
         C            1.756534505977     1.070907582498    -0.059956102490    12.000000000000
         C            2.512041505977    -1.605667417502     0.046441897510    12.000000000000
         C            3.412923505977    -0.547180417502    -0.259478102490    12.000000000000
         H           -0.936665494023     0.594876582498    -1.515444102490     1.007825032230
         H           -3.361641494023     0.646137582498    -1.147018102490     1.007825032230
         H           -0.439349494023     1.225352582498     1.403444897510     1.007825032230
         H           -3.281016494023    -0.905261417502     1.130229897510     1.007825032230
         H           -1.712367494023    -1.696832417502    -1.370017102490     1.007825032230
         H           -3.484620494023    -1.830531417502    -1.184688102490     1.007825032230
         H           -0.296584494023     2.716651582498    -0.525553102490     1.007825032230
         H           -2.846615494023     2.403215582498     0.508109897510     1.007825032230
         H            0.435251505977    -1.959964417502     0.568514897510     1.007825032230
         H           -2.432933494023    -3.794959417502    -0.543786102490     1.007825032230
         H            2.776872605977    -2.656335517502     0.087033397510     1.007825032230
         H            5.126120505977    -1.667388417502    -0.162967102490     1.007825032230
         H            5.320754505977    -0.016581417502    -0.568847102490     1.007825032230

  Basis Set: AUG-CC-PVTZ
    Blend: AUG-CC-PVTZ
  Basis Set: (AUG-CC-PVTZ AUX)
    Blend: AUG-CC-PVTZ-JKFIT
	 Reference Energy          =    -886.3645875461206742 [Eh]
	 Singles Energy            =      -0.0000000000000000 [Eh]
	 Same-Spin Energy          =      -0.9012812766959004 [Eh]
	 Opposite-Spin Energy      =      -2.7163799890356901 [Eh]
	 Correlation Energy        =      -3.6176612657315905 [Eh]
	 Total Energy              =    -889.9822488118522870 [Eh]

	 ================> DF-SCS-MP2 Energies <==================
	-----------------------------------------------------------
	 SCS Same-Spin Scale       =       0.3333333333333333 [-]
	 SCS Opposite-Spin Scale   =       1.2000000000000000 [-]
	 SCS Same-Spin Energy      =      -0.3004270922319668 [Eh]
	 SCS Opposite-Spin Energy  =      -3.2596559868428279 [Eh]
	 SCS Correlation Energy    =      -3.5600830790747948 [Eh]
	 SCS Total Energy          =    -889.9246706251955175 [Eh]
	-----------------------------------------------------------

  Dipole Moment: [D]
     X:     1.9415      Y:    -6.0914      Z:    -1.8400     Total:     6.6529

*** Psi4 exiting successfully. Buy a developer a beer!
