                               Psi4 1.3.2 release

  ==> Input File <==

--------------------------------------------------------------------------
#psi4
#
memory 32 gb

molecule  {
0 1
  O       -1.2481010    -0.6526680     1.0325150
  O       -1.2380498     2.4832574    -0.6760187
  O       -3.2165300     1.5210990     0.7448870
  O       -2.3570290    -3.0668370     0.0949400
  O        1.3605300     2.2470340    -0.0765420
  N        0.8434040     0.0452230     0.2559430
  N        3.0572260     0.7205030    -0.2937270
  N        4.7164630    -0.8366550    -0.5722980
  C       -1.2894840     1.0784300    -0.5920770
  C       -2.7151710     0.6552070    -0.2573930
  C       -0.5218522     0.4938700     0.6039231
  C       -2.5292560    -0.7168860     0.3610560
  C       -2.5283440    -1.8503930    -0.6392900
  C        1.2197750    -1.2614080     0.3112740
  C        1.7555940     1.0674350    -0.0594030
  C        2.5111010    -1.6091400     0.0469950
  C        3.4119830    -0.5506530    -0.2589250
  H       -0.9376060     0.5914040    -1.5148910
  H       -3.3625820     0.6426650    -1.1464650
  H       -0.4402900     1.2218800     1.4039980
  H       -3.2819570    -0.9087340     1.1307830
  H       -1.7133080    -1.7003050    -1.3694640
  H       -3.4855610    -1.8340040    -1.1841350
  H       -0.2975250     2.7131790    -0.5250000
  H       -2.8475560     2.3997430     0.5086630
  H        0.4343110    -1.9634370     0.5690680
  H       -2.4338740    -3.7984320    -0.5432330
  H        2.8291120    -2.6453980     0.0739220
  H        5.1251800    -1.6708610    -0.1624140
  H        5.3198140    -0.0200540    -0.5682940
units angstrom
no_reorient  #important for SAPT in psi4, default
symmetry c1  #important for SAPT in psi4, default
}

set PROPERTIES_ORIGIN ["COM"]
properties('MP2/aug-cc-pvtz', properties = ['dipole'])
--------------------------------------------------------------------------

    Molecular point group: c1
  Charge       = 0
  Multiplicity = 1
  Basis Set: AUG-CC-PVTZ
    Blend: AUG-CC-PVTZ
  Basis Set: (AUG-CC-PVTZ AUX)
    Blend: AUG-CC-PVTZ-JKFIT

    Orbital Energies [Eh]
    ---------------------

    Doubly Occupied:

       1A    -20.581966     2A    -20.580364     3A    -20.557925
       4A    -20.556440     5A    -20.521799     6A    -15.636933
       7A    -15.599826     8A    -15.553183     9A    -11.387993
      10A    -11.357810    11A    -11.341324    12A    -11.328586
      13A    -11.300860    14A    -11.297159    15A    -11.296373
      16A    -11.293180    17A    -11.248551    18A     -1.426967
      19A     -1.395784    20A     -1.380377    21A     -1.372119
      22A     -1.347124    23A     -1.305874    24A     -1.273503
      25A     -1.182134    26A     -1.082101    27A     -1.067023
      28A     -1.021512    29A     -0.935748    30A     -0.909093
      31A     -0.877237    32A     -0.833538    33A     -0.810839
      34A     -0.766670    35A     -0.752025    36A     -0.737685
      37A     -0.719969    38A     -0.702997    39A     -0.698134
      40A     -0.685330    41A     -0.672936    42A     -0.654876
      43A     -0.651200    44A     -0.638313    45A     -0.620485
      46A     -0.613930    47A     -0.606631    48A     -0.594075
      49A     -0.575478    50A     -0.569772    51A     -0.553570
      52A     -0.545489    53A     -0.537278    54A     -0.532194
      55A     -0.498100    56A     -0.477095    57A     -0.474533
      58A     -0.461920    59A     -0.459944    60A     -0.452974
      61A     -0.441316    62A     -0.433018    63A     -0.395404
      64A     -0.350165

  @DF-RHF Final Energy:  -886.37363817066432

   => Energetics <=

    Nuclear Repulsion Energy =           1323.7251995824924506
    One-Electron Energy =               -3845.1281694825329396
    Two-Electron Energy =                1635.0293317293758264
    Total Energy =                       -886.3736381706644352
  Basis Set: (AUG-CC-PVTZ AUX)
    Blend: AUG-CC-PVTZ-RI
    Molecular point group: c1

    Geometry (in Angstrom), charge = 0, multiplicity = 1:

       Center              X                  Y                   Z               Mass
    ------------   -----------------  -----------------  -----------------  -----------------
         O           -1.248732242173    -0.653304392774     1.031658492408    15.994914619570
         O           -1.238681042173     2.482621007226    -0.676875207592    15.994914619570
         O           -3.217161242173     1.520462607226     0.744030492408    15.994914619570
         O           -2.357660242173    -3.067473392774     0.094083492408    15.994914619570
         O            1.359898757827     2.246397607226    -0.077398507592    15.994914619570
         N            0.842772757827     0.044586607226     0.255086492408    14.003074004430
         N            3.056594757827     0.719866607226    -0.294583507592    14.003074004430
         N            4.715831757827    -0.837291392774    -0.573154507592    14.003074004430
         C           -1.290115242173     1.077793607226    -0.592933507592    12.000000000000
         C           -2.715802242173     0.654570607226    -0.258249507592    12.000000000000
         C           -0.522483442173     0.493233607226     0.603066592408    12.000000000000
         C           -2.529887242173    -0.717522392774     0.360199492408    12.000000000000
         C           -2.528975242173    -1.851029392774    -0.640146507592    12.000000000000
         C            1.219143757827    -1.262044392774     0.310417492408    12.000000000000
         C            1.754962757827     1.066798607226    -0.060259507592    12.000000000000
         C            2.510469757827    -1.609776392774     0.046138492408    12.000000000000
         C            3.411351757827    -0.551289392774    -0.259781507592    12.000000000000
         H           -0.938237242173     0.590767607226    -1.515747507592     1.007825032230
         H           -3.363213242173     0.642028607226    -1.147321507592     1.007825032230
         H           -0.440921242173     1.221243607226     1.403141492408     1.007825032230
         H           -3.282588242173    -0.909370392774     1.129926492408     1.007825032230
         H           -1.713939242173    -1.700941392774    -1.370320507592     1.007825032230
         H           -3.486192242173    -1.834640392774    -1.184991507592     1.007825032230
         H           -0.298156242173     2.712542607226    -0.525856507592     1.007825032230
         H           -2.848187242173     2.399106607226     0.507806492408     1.007825032230
         H            0.433679757827    -1.964073392774     0.568211492408     1.007825032230
         H           -2.434505242173    -3.799068392774    -0.544089507592     1.007825032230
         H            2.828480757827    -2.646034392774     0.073065492408     1.007825032230
         H            5.124548757827    -1.671497392774    -0.163270507592     1.007825032230
         H            5.319182757827    -0.020690392774    -0.569150507592     1.007825032230

  Basis Set: AUG-CC-PVTZ
    Blend: AUG-CC-PVTZ
  Basis Set: (AUG-CC-PVTZ AUX)
    Blend: AUG-CC-PVTZ-JKFIT
	 Reference Energy          =    -886.3736381706643215 [Eh]
	 Singles Energy            =      -0.0000000000000000 [Eh]
	 Same-Spin Energy          =      -0.9010459124415694 [Eh]
	 Opposite-Spin Energy      =      -2.7147370224096070 [Eh]
	 Correlation Energy        =      -3.6157829348511763 [Eh]
	 Total Energy              =    -889.9894211055154756 [Eh]

	 ================> DF-SCS-MP2 Energies <==================
	-----------------------------------------------------------
	 SCS Same-Spin Scale       =       0.3333333333333333 [-]
	 SCS Opposite-Spin Scale   =       1.2000000000000000 [-]
	 SCS Same-Spin Energy      =      -0.3003486374805231 [Eh]
	 SCS Opposite-Spin Energy  =      -3.2576844268915282 [Eh]
	 SCS Correlation Energy    =      -3.5580330643720512 [Eh]
	 SCS Total Energy          =    -889.9316712350363332 [Eh]
	-----------------------------------------------------------

  Dipole Moment: [D]
     X:     1.7142      Y:    -5.9187      Z:    -1.8378     Total:     6.4301

*** Psi4 exiting successfully. Buy a developer a beer!
