                               Psi4 1.3.2 release

  ==> Input File <==

--------------------------------------------------------------------------
#psi4
#
memory 32 gb

molecule  {
0 1
  O       -1.2481010    -0.6526680     1.0325150
  O       -1.2449750     2.4828510    -0.6861630
  O       -3.2166872     1.5303734     0.7367198
  O       -2.3570290    -3.0668370     0.0949400
  O        1.3605300     2.2470340    -0.0765420
  N        0.8434040     0.0452230     0.2559430
  N        3.0572260     0.7205030    -0.2937270
  N        4.7164630    -0.8366550    -0.5722980
  C       -1.2894840     1.0784300    -0.5920770
  C       -2.7151710     0.6552070    -0.2573930
  C       -0.5254080     0.4815200     0.6000940
  C       -2.5248641    -0.7214622     0.3494414
  C       -2.5283440    -1.8503930    -0.6392900
  C        1.2197750    -1.2614080     0.3112740
  C        1.7555940     1.0674350    -0.0594030
  C        2.5111010    -1.6091400     0.0469950
  C        3.4119830    -0.5506530    -0.2589250
  H       -0.9376060     0.5914040    -1.5148910
  H       -3.3625820     0.6426650    -1.1464650
  H       -0.4402900     1.2218800     1.4039980
  H       -3.2819570    -0.9087340     1.1307830
  H       -1.7133080    -1.7003050    -1.3694640
  H       -3.4855610    -1.8340040    -1.1841350
  H       -0.2975250     2.7131790    -0.5250000
  H       -2.8475560     2.3997430     0.5086630
  H        0.4343110    -1.9634370     0.5690680
  H       -2.4338740    -3.7984320    -0.5432330
  H        2.8291120    -2.6453980     0.0739220
  H        5.1251800    -1.6708610    -0.1624140
  H        5.3198140    -0.0200540    -0.5682940
units angstrom
no_reorient  #important for SAPT in psi4, default
symmetry c1  #important for SAPT in psi4, default
}

set PROPERTIES_ORIGIN ["COM"]
properties('MP2/aug-cc-pvtz', properties = ['dipole'])
--------------------------------------------------------------------------

    Molecular point group: c1
  Charge       = 0
  Multiplicity = 1
  Basis Set: AUG-CC-PVTZ
    Blend: AUG-CC-PVTZ
  Basis Set: (AUG-CC-PVTZ AUX)
    Blend: AUG-CC-PVTZ-JKFIT

    Orbital Energies [Eh]
    ---------------------

    Doubly Occupied:

       1A    -20.582819     2A    -20.581718     3A    -20.556925
       4A    -20.556898     5A    -20.521936     6A    -15.636856
       7A    -15.599847     8A    -15.553323     9A    -11.388206
      10A    -11.357847    11A    -11.341456    12A    -11.328532
      13A    -11.301508    14A    -11.297628    15A    -11.296542
      16A    -11.293387    17A    -11.248568    18A     -1.429305
      19A     -1.396381    20A     -1.380887    21A     -1.373337
      22A     -1.346928    23A     -1.306027    24A     -1.273763
      25A     -1.182229    26A     -1.081992    27A     -1.069683
      28A     -1.021863    29A     -0.936588    30A     -0.909492
      31A     -0.877367    32A     -0.832136    33A     -0.811522
      34A     -0.766924    35A     -0.752363    36A     -0.736200
      37A     -0.720406    38A     -0.704234    39A     -0.698863
      40A     -0.685669    41A     -0.673747    42A     -0.654814
      43A     -0.651703    44A     -0.638375    45A     -0.620701
      46A     -0.615025    47A     -0.607101    48A     -0.593883
      49A     -0.576138    50A     -0.568103    51A     -0.554339
      52A     -0.546393    53A     -0.537164    54A     -0.532382
      55A     -0.497859    56A     -0.477834    57A     -0.473828
      58A     -0.462943    59A     -0.459945    60A     -0.452889
      61A     -0.441129    62A     -0.433153    63A     -0.395207
      64A     -0.349995

  @DF-RHF Final Energy:  -886.37368858958735

   => Energetics <=

    Nuclear Repulsion Energy =           1323.8033471617388841
    One-Electron Energy =               -3845.2484649972948318
    Two-Electron Energy =                1635.0714292459683747
    Total Energy =                       -886.3736885895873456
  Basis Set: (AUG-CC-PVTZ AUX)
    Blend: AUG-CC-PVTZ-RI
    Molecular point group: c1

    Geometry (in Angstrom), charge = 0, multiplicity = 1:

       Center              X                  Y                   Z               Mass
    ------------   -----------------  -----------------  -----------------  -----------------
         O           -1.248307497897    -0.653052335403     1.033625764165    15.994914619570
         O           -1.245181497897     2.482466664597    -0.685052235835    15.994914619570
         O           -3.216893697897     1.529989064597     0.737830564165    15.994914619570
         O           -2.357235497897    -3.067221335403     0.096050764165    15.994914619570
         O            1.360323502103     2.246649664597    -0.075431235835    15.994914619570
         N            0.843197502103     0.044838664597     0.257053764165    14.003074004430
         N            3.057019502103     0.720118664597    -0.292616235835    14.003074004430
         N            4.716256502103    -0.837039335403    -0.571187235835    14.003074004430
         C           -1.289690497897     1.078045664597    -0.590966235835    12.000000000000
         C           -2.715377497897     0.654822664597    -0.256282235835    12.000000000000
         C           -0.525614497897     0.481135664597     0.601204764165    12.000000000000
         C           -2.525070597897    -0.721846535403     0.350552164165    12.000000000000
         C           -2.528550497897    -1.850777335403    -0.638179235835    12.000000000000
         C            1.219568502103    -1.261792335403     0.312384764165    12.000000000000
         C            1.755387502103     1.067050664597    -0.058292235835    12.000000000000
         C            2.510894502103    -1.609524335403     0.048105764165    12.000000000000
         C            3.411776502103    -0.551037335403    -0.257814235835    12.000000000000
         H           -0.937812497897     0.591019664597    -1.513780235835     1.007825032230
         H           -3.362788497897     0.642280664597    -1.145354235835     1.007825032230
         H           -0.440496497897     1.221495664597     1.405108764165     1.007825032230
         H           -3.282163497897    -0.909118335403     1.131893764165     1.007825032230
         H           -1.713514497897    -1.700689335403    -1.368353235835     1.007825032230
         H           -3.485767497897    -1.834388335403    -1.183024235835     1.007825032230
         H           -0.297731497897     2.712794664597    -0.523889235835     1.007825032230
         H           -2.847762497897     2.399358664597     0.509773764165     1.007825032230
         H            0.434104502103    -1.963821335403     0.570178764165     1.007825032230
         H           -2.434080497897    -3.798816335403    -0.542122235835     1.007825032230
         H            2.828905502103    -2.645782335403     0.075032764165     1.007825032230
         H            5.124973502103    -1.671245335403    -0.161303235835     1.007825032230
         H            5.319607502103    -0.020438335403    -0.567183235835     1.007825032230

  Basis Set: AUG-CC-PVTZ
    Blend: AUG-CC-PVTZ
  Basis Set: (AUG-CC-PVTZ AUX)
    Blend: AUG-CC-PVTZ-JKFIT
	 Reference Energy          =    -886.3736885895873456 [Eh]
	 Singles Energy            =      -0.0000000000000000 [Eh]
	 Same-Spin Energy          =      -0.9012052873404401 [Eh]
	 Opposite-Spin Energy      =      -2.7147078285285389 [Eh]
	 Correlation Energy        =      -3.6159131158689792 [Eh]
	 Total Energy              =    -889.9896017054563799 [Eh]

	 ================> DF-SCS-MP2 Energies <==================
	-----------------------------------------------------------
	 SCS Same-Spin Scale       =       0.3333333333333333 [-]
	 SCS Opposite-Spin Scale   =       1.2000000000000000 [-]
	 SCS Same-Spin Energy      =      -0.3004017624468134 [Eh]
	 SCS Opposite-Spin Energy  =      -3.2576493942342464 [Eh]
	 SCS Correlation Energy    =      -3.5580511566810600 [Eh]
	 SCS Total Energy          =    -889.9317397462683630 [Eh]
	-----------------------------------------------------------

  Dipole Moment: [D]
     X:     1.7089      Y:    -5.9798      Z:    -1.8268     Total:     6.4820

*** Psi4 exiting successfully. Buy a developer a beer!
