                               Psi4 1.3.2 release

  ==> Input File <==

--------------------------------------------------------------------------
#psi4
#
memory 32 gb

molecule  {
0 1
  O       -1.2481010    -0.6526680     1.0325150
  O       -1.2449750     2.4828510    -0.6861630
  O       -3.2165300     1.5210990     0.7448870
  O       -2.3570290    -3.0668370     0.0949400
  O        1.3605300     2.2470340    -0.0765420
  N        0.8434040     0.0452230     0.2559430
  N        3.0572260     0.7205030    -0.2937270
  N        4.7164630    -0.8366550    -0.5722980
  C       -1.2774093     1.0782539    -0.5897961
  C       -2.7151710     0.6552070    -0.2573930
  C       -0.5254080     0.4815200     0.6000940
  C       -2.5292560    -0.7168860     0.3610560
  C       -2.5283440    -1.8503930    -0.6392900
  C        1.2197750    -1.2614080     0.3112740
  C        1.7555940     1.0674350    -0.0594030
  C        2.5111010    -1.6091400     0.0469950
  C        3.4119830    -0.5506530    -0.2589250
  H       -0.9376060     0.5914040    -1.5148910
  H       -3.3625820     0.6426650    -1.1464650
  H       -0.4402900     1.2218800     1.4039980
  H       -3.2819570    -0.9087340     1.1307830
  H       -1.7133080    -1.7003050    -1.3694640
  H       -3.4855610    -1.8340040    -1.1841350
  H       -0.2956913     2.7048062    -0.5240448
  H       -2.8475560     2.3997430     0.5086630
  H        0.4343110    -1.9634370     0.5690680
  H       -2.4338740    -3.7984320    -0.5432330
  H        2.8291120    -2.6453980     0.0739220
  H        5.1251800    -1.6708610    -0.1624140
  H        5.3198140    -0.0200540    -0.5682940
units angstrom
no_reorient  #important for SAPT in psi4, default
symmetry c1  #important for SAPT in psi4, default
}

set PROPERTIES_ORIGIN ["COM"]
properties('MP2/aug-cc-pvtz', properties = ['dipole'])
--------------------------------------------------------------------------

    Molecular point group: c1
  Charge       = 0
  Multiplicity = 1
  Basis Set: AUG-CC-PVTZ
    Blend: AUG-CC-PVTZ
  Basis Set: (AUG-CC-PVTZ AUX)
    Blend: AUG-CC-PVTZ-JKFIT

    Orbital Energies [Eh]
    ---------------------

    Doubly Occupied:

       1A    -20.582208     2A    -20.581845     3A    -20.557652
       4A    -20.557546     5A    -20.522351     6A    -15.636972
       7A    -15.599950     8A    -15.553504     9A    -11.388491
      10A    -11.357984    11A    -11.341652    12A    -11.328623
      13A    -11.301123    14A    -11.296701    15A    -11.296368
      16A    -11.293152    17A    -11.248659    18A     -1.429595
      19A     -1.396651    20A     -1.380080    21A     -1.372853
      22A     -1.346528    23A     -1.306265    24A     -1.273974
      25A     -1.182421    26A     -1.082343    27A     -1.066768
      28A     -1.021692    29A     -0.935133    30A     -0.909614
      31A     -0.877448    32A     -0.832051    33A     -0.812160
      34A     -0.767110    35A     -0.752445    36A     -0.736074
      37A     -0.720308    38A     -0.702923    39A     -0.698213
      40A     -0.685798    41A     -0.672467    42A     -0.654726
      43A     -0.651474    44A     -0.638918    45A     -0.620681
      46A     -0.614367    47A     -0.606722    48A     -0.594242
      49A     -0.575259    50A     -0.569779    51A     -0.554780
      52A     -0.545783    53A     -0.538172    54A     -0.531858
      55A     -0.498110    56A     -0.477498    57A     -0.473267
      58A     -0.462123    59A     -0.460314    60A     -0.452827
      61A     -0.441073    62A     -0.433374    63A     -0.395432
      64A     -0.350213

  @DF-RHF Final Energy:  -886.37308802194411

   => Energetics <=

    Nuclear Repulsion Energy =           1323.8138558428950091
    One-Electron Energy =               -3845.2805146766677353
    Two-Electron Energy =                1635.0935708118286129
    Total Energy =                       -886.3730880219441133
  Basis Set: (AUG-CC-PVTZ AUX)
    Blend: AUG-CC-PVTZ-RI
    Molecular point group: c1

    Geometry (in Angstrom), charge = 0, multiplicity = 1:

       Center              X                  Y                   Z               Mass
    ------------   -----------------  -----------------  -----------------  -----------------
         O           -1.248704708102    -0.652624583255     1.032398449841    15.994914619570
         O           -1.245578708102     2.482894416745    -0.686279550159    15.994914619570
         O           -3.217133708102     1.521142416745     0.744770449841    15.994914619570
         O           -2.357632708102    -3.066793583255     0.094823449841    15.994914619570
         O            1.359926291898     2.247077416745    -0.076658550159    15.994914619570
         N            0.842800291898     0.045266416745     0.255826449841    14.003074004430
         N            3.056622291898     0.720546416745    -0.293843550159    14.003074004430
         N            4.715859291898    -0.836611583255    -0.572414550159    14.003074004430
         C           -1.278013008102     1.078297316745    -0.589912650159    12.000000000000
         C           -2.715774708102     0.655250416745    -0.257509550159    12.000000000000
         C           -0.526011708102     0.481563416745     0.599977449841    12.000000000000
         C           -2.529859708102    -0.716842583255     0.360939449841    12.000000000000
         C           -2.528947708102    -1.850349583255    -0.639406550159    12.000000000000
         C            1.219171291898    -1.261364583255     0.311157449841    12.000000000000
         C            1.754990291898     1.067478416745    -0.059519550159    12.000000000000
         C            2.510497291898    -1.609096583255     0.046878449841    12.000000000000
         C            3.411379291898    -0.550609583255    -0.259041550159    12.000000000000
         H           -0.938209708102     0.591447416745    -1.515007550159     1.007825032230
         H           -3.363185708102     0.642708416745    -1.146581550159     1.007825032230
         H           -0.440893708102     1.221923416745     1.403881449841     1.007825032230
         H           -3.282560708102    -0.908690583255     1.130666449841     1.007825032230
         H           -1.713911708102    -1.700261583255    -1.369580550159     1.007825032230
         H           -3.486164708102    -1.833960583255    -1.184251550159     1.007825032230
         H           -0.296295008102     2.704849616745    -0.524161350159     1.007825032230
         H           -2.848159708102     2.399786416745     0.508546449841     1.007825032230
         H            0.433707291898    -1.963393583255     0.568951449841     1.007825032230
         H           -2.434477708102    -3.798388583255    -0.543349550159     1.007825032230
         H            2.828508291898    -2.645354583255     0.073805449841     1.007825032230
         H            5.124576291898    -1.670817583255    -0.162530550159     1.007825032230
         H            5.319210291898    -0.020010583255    -0.568410550159     1.007825032230

  Basis Set: AUG-CC-PVTZ
    Blend: AUG-CC-PVTZ
  Basis Set: (AUG-CC-PVTZ AUX)
    Blend: AUG-CC-PVTZ-JKFIT
	 Reference Energy          =    -886.3730880219441133 [Eh]
	 Singles Energy            =      -0.0000000000000000 [Eh]
	 Same-Spin Energy          =      -0.9013343082874544 [Eh]
	 Opposite-Spin Energy      =      -2.7151106774386582 [Eh]
	 Correlation Energy        =      -3.6164449857261127 [Eh]
	 Total Energy              =    -889.9895330076702749 [Eh]

	 ================> DF-SCS-MP2 Energies <==================
	-----------------------------------------------------------
	 SCS Same-Spin Scale       =       0.3333333333333333 [-]
	 SCS Opposite-Spin Scale   =       1.2000000000000000 [-]
	 SCS Same-Spin Energy      =      -0.3004447694291514 [Eh]
	 SCS Opposite-Spin Energy  =      -3.2581328129263896 [Eh]
	 SCS Correlation Energy    =      -3.5585775823555412 [Eh]
	 SCS Total Energy          =    -889.9316656042996101 [Eh]
	-----------------------------------------------------------

  Dipole Moment: [D]
     X:     1.7243      Y:    -5.9586      Z:    -1.8193     Total:     6.4644

*** Psi4 exiting successfully. Buy a developer a beer!
