                               Psi4 1.3.2 release

  ==> Input File <==

--------------------------------------------------------------------------
#psi4
#
memory 32 gb

molecule  {
0 1
  O       -1.2481010    -0.6526680     1.0325150
  O       -1.2449750     2.4828510    -0.6861630
  O       -3.2165300     1.5210990     0.7448870
  O       -2.3570290    -3.0668370     0.0949400
  O        1.3605300     2.2470340    -0.0765420
  N        0.8434040     0.0452230     0.2559430
  N        3.0572260     0.7205030    -0.2937270
  N        4.7164630    -0.8366550    -0.5722980
  C       -1.2894840     1.0784300    -0.5920770
  C       -2.7151710     0.6552070    -0.2573930
  C       -0.6180638     0.5110532     0.6233898
  C       -2.5292560    -0.7168860     0.3610560
  C       -2.5283440    -1.8503930    -0.6392900
  C        1.2197750    -1.2614080     0.3112740
  C        1.7555940     1.0674350    -0.0594030
  C        2.5111010    -1.6091400     0.0469950
  C        3.4119830    -0.5506530    -0.2589250
  H       -0.9376060     0.5914040    -1.5148910
  H       -3.3625820     0.6426650    -1.1464650
  H       -0.4402900     1.2218800     1.4039980
  H       -3.2819570    -0.9087340     1.1307830
  H       -1.7133080    -1.7003050    -1.3694640
  H       -3.4855610    -1.8340040    -1.1841350
  H       -0.2975250     2.7131790    -0.5250000
  H       -2.8475560     2.3997430     0.5086630
  H        0.4343110    -1.9634370     0.5690680
  H       -2.4338740    -3.7984320    -0.5432330
  H        2.8291120    -2.6453980     0.0739220
  H        5.1251800    -1.6708610    -0.1624140
  H        5.3198140    -0.0200540    -0.5682940
units angstrom
no_reorient  #important for SAPT in psi4, default
symmetry c1  #important for SAPT in psi4, default
}

set PROPERTIES_ORIGIN ["COM"]
properties('MP2/aug-cc-pvtz', properties = ['dipole'])
--------------------------------------------------------------------------

    Molecular point group: c1
  Charge       = 0
  Multiplicity = 1
  Basis Set: AUG-CC-PVTZ
    Blend: AUG-CC-PVTZ
  Basis Set: (AUG-CC-PVTZ AUX)
    Blend: AUG-CC-PVTZ-JKFIT

    Orbital Energies [Eh]
    ---------------------

    Doubly Occupied:

       1A    -20.590557     2A    -20.584461     3A    -20.562338
       4A    -20.559752     5A    -20.516596     6A    -15.627007
       7A    -15.595783     8A    -15.548272     9A    -11.381754
      10A    -11.352828    11A    -11.347863    12A    -11.322898
      13A    -11.304112    14A    -11.301093    15A    -11.299031
      16A    -11.296880    17A    -11.243092    18A     -1.440502
      19A     -1.392319    20A     -1.383770    21A     -1.376595
      22A     -1.350058    23A     -1.299550    24A     -1.261069
      25A     -1.175078    26A     -1.075817    27A     -1.073836
      28A     -1.029079    29A     -0.932481    30A     -0.902510
      31A     -0.872836    32A     -0.835542    33A     -0.818058
      34A     -0.759879    35A     -0.748328    36A     -0.739882
      37A     -0.719419    38A     -0.705495    39A     -0.700578
      40A     -0.685210    41A     -0.669490    42A     -0.658972
      43A     -0.650870    44A     -0.637573    45A     -0.621132
      46A     -0.613073    47A     -0.607679    48A     -0.587013
      49A     -0.578903    50A     -0.574117    51A     -0.554520
      52A     -0.548342    53A     -0.537051    54A     -0.532363
      55A     -0.494589    56A     -0.480938    57A     -0.477882
      58A     -0.465320    59A     -0.461201    60A     -0.456772
      61A     -0.443902    62A     -0.426194    63A     -0.392454
      64A     -0.345184

  @DF-RHF Final Energy:  -886.36495771260491

   => Energetics <=

    Nuclear Repulsion Energy =           1323.3577675838503183
    One-Electron Energy =               -3844.3899745717371843
    Two-Electron Energy =                1634.6672492752816197
    Total Energy =                       -886.3649577126050190
  Basis Set: (AUG-CC-PVTZ AUX)
    Blend: AUG-CC-PVTZ-RI
    Molecular point group: c1

    Geometry (in Angstrom), charge = 0, multiplicity = 1:

       Center              X                  Y                   Z               Mass
    ------------   -----------------  -----------------  -----------------  -----------------
         O           -1.243527048626    -0.654125906397     1.031365002333    15.994914619570
         O           -1.240401048626     2.481393093603    -0.687312997667    15.994914619570
         O           -3.211956048626     1.519641093603     0.743737002333    15.994914619570
         O           -2.352455048626    -3.068294906397     0.093790002333    15.994914619570
         O            1.365103951374     2.245576093603    -0.077691997667    15.994914619570
         N            0.847977951374     0.043765093603     0.254793002333    14.003074004430
         N            3.061799951374     0.719045093603    -0.294876997667    14.003074004430
         N            4.721036951374    -0.838112906397    -0.573447997667    14.003074004430
         C           -1.284910048626     1.076972093603    -0.593226997667    12.000000000000
         C           -2.710597048626     0.653749093603    -0.258542997667    12.000000000000
         C           -0.613489848626     0.509595293603     0.622239802333    12.000000000000
         C           -2.524682048626    -0.718343906397     0.359906002333    12.000000000000
         C           -2.523770048626    -1.851850906397    -0.640439997667    12.000000000000
         C            1.224348951374    -1.262865906397     0.310124002333    12.000000000000
         C            1.760167951374     1.065977093603    -0.060552997667    12.000000000000
         C            2.515674951374    -1.610597906397     0.045845002333    12.000000000000
         C            3.416556951374    -0.552110906397    -0.260074997667    12.000000000000
         H           -0.933032048626     0.589946093603    -1.516040997667     1.007825032230
         H           -3.358008048626     0.641207093603    -1.147614997667     1.007825032230
         H           -0.435716048626     1.220422093603     1.402848002333     1.007825032230
         H           -3.277383048626    -0.910191906397     1.129633002333     1.007825032230
         H           -1.708734048626    -1.701762906397    -1.370613997667     1.007825032230
         H           -3.480987048626    -1.835461906397    -1.185284997667     1.007825032230
         H           -0.292951048626     2.711721093603    -0.526149997667     1.007825032230
         H           -2.842982048626     2.398285093603     0.507513002333     1.007825032230
         H            0.438884951374    -1.964894906397     0.567918002333     1.007825032230
         H           -2.429300048626    -3.799889906397    -0.544382997667     1.007825032230
         H            2.833685951374    -2.646855906397     0.072772002333     1.007825032230
         H            5.129753951374    -1.672318906397    -0.163563997667     1.007825032230
         H            5.324387951374    -0.021511906397    -0.569443997667     1.007825032230

  Basis Set: AUG-CC-PVTZ
    Blend: AUG-CC-PVTZ
  Basis Set: (AUG-CC-PVTZ AUX)
    Blend: AUG-CC-PVTZ-JKFIT
	 Reference Energy          =    -886.3649577126049053 [Eh]
	 Singles Energy            =      -0.0000000000000000 [Eh]
	 Same-Spin Energy          =      -0.9017132189686543 [Eh]
	 Opposite-Spin Energy      =      -2.7154792968325636 [Eh]
	 Correlation Energy        =      -3.6171925158012179 [Eh]
	 Total Energy              =    -889.9821502284061125 [Eh]

	 ================> DF-SCS-MP2 Energies <==================
	-----------------------------------------------------------
	 SCS Same-Spin Scale       =       0.3333333333333333 [-]
	 SCS Opposite-Spin Scale   =       1.2000000000000000 [-]
	 SCS Same-Spin Energy      =      -0.3005710729895514 [Eh]
	 SCS Opposite-Spin Energy  =      -3.2585751561990763 [Eh]
	 SCS Correlation Energy    =      -3.5591462291886278 [Eh]
	 SCS Total Energy          =    -889.9241039417935326 [Eh]
	-----------------------------------------------------------

  Dipole Moment: [D]
     X:     1.0954      Y:    -5.9159      Z:    -1.7385     Total:     6.2627

*** Psi4 exiting successfully. Buy a developer a beer!
