                               Psi4 1.3.2 release

  ==> Input File <==

--------------------------------------------------------------------------
#psi4
#
memory 32 gb

molecule  {
0 1
  O       -1.2481010    -0.6526680     1.0325150
  O       -1.2449750     2.4828510    -0.6861630
  O       -3.1515209     1.5567397     0.7438724
  O       -2.3570290    -3.0668370     0.0949400
  O        1.3605300     2.2470340    -0.0765420
  N        0.8434040     0.0452230     0.2559430
  N        3.0572260     0.7205030    -0.2937270
  N        4.7164630    -0.8366550    -0.5722980
  C       -1.2962986     1.1366715    -0.5379417
  C       -2.7151710     0.6552070    -0.2573930
  C       -0.5254080     0.4815200     0.6000940
  C       -2.5292560    -0.7168860     0.3610560
  C       -2.5283440    -1.8503930    -0.6392900
  C        1.2197750    -1.2614080     0.3112740
  C        1.7555940     1.0674350    -0.0594030
  C        2.5111010    -1.6091400     0.0469950
  C        3.4119830    -0.5506530    -0.2589250
  H       -0.9376060     0.5914040    -1.5148910
  H       -3.3625820     0.6426650    -1.1464650
  H       -0.4402900     1.2218800     1.4039980
  H       -3.2819570    -0.9087340     1.1307830
  H       -1.7133080    -1.7003050    -1.3694640
  H       -3.4855610    -1.8340040    -1.1841350
  H       -0.2975250     2.7131790    -0.5250000
  H       -2.8475560     2.3997430     0.5086630
  H        0.4343110    -1.9634370     0.5690680
  H       -2.4338740    -3.7984320    -0.5432330
  H        2.8291120    -2.6453980     0.0739220
  H        5.1251800    -1.6708610    -0.1624140
  H        5.3198140    -0.0200540    -0.5682940
units angstrom
no_reorient  #important for SAPT in psi4, default
symmetry c1  #important for SAPT in psi4, default
}

set PROPERTIES_ORIGIN ["COM"]
properties('MP2/aug-cc-pvtz', properties = ['dipole'])
--------------------------------------------------------------------------

    Molecular point group: c1
  Charge       = 0
  Multiplicity = 1
  Basis Set: AUG-CC-PVTZ
    Blend: AUG-CC-PVTZ
  Basis Set: (AUG-CC-PVTZ AUX)
    Blend: AUG-CC-PVTZ-JKFIT

    Orbital Energies [Eh]
    ---------------------

    Doubly Occupied:

       1A    -20.582322     2A    -20.582290     3A    -20.560498
       4A    -20.550946     5A    -20.522173     6A    -15.636756
       7A    -15.599430     8A    -15.552931     9A    -11.388108
      10A    -11.357411    11A    -11.339792    12A    -11.328092
      13A    -11.301261    14A    -11.298734    15A    -11.298354
      16A    -11.293806    17A    -11.248006    18A     -1.432542
      19A     -1.396984    20A     -1.395650    21A     -1.374161
      22A     -1.360054    23A     -1.305816    24A     -1.273301
      25A     -1.181847    26A     -1.081569    27A     -1.068023
      28A     -1.021185    29A     -0.936685    30A     -0.908969
      31A     -0.878064    32A     -0.831391    33A     -0.813917
      34A     -0.766449    35A     -0.754756    36A     -0.738173
      37A     -0.719394    38A     -0.711066    39A     -0.700377
      40A     -0.685269    41A     -0.677614    42A     -0.654820
      43A     -0.652009    44A     -0.636830    45A     -0.622458
      46A     -0.617412    47A     -0.606563    48A     -0.596603
      49A     -0.578808    50A     -0.570847    51A     -0.559113
      52A     -0.546458    53A     -0.540426    54A     -0.532583
      55A     -0.497490    56A     -0.478039    57A     -0.473090
      58A     -0.462765    59A     -0.460843    60A     -0.441599
      61A     -0.437485    62A     -0.430389    63A     -0.394601
      64A     -0.349553

  @DF-RHF Final Energy:  -886.36599193628035

   => Energetics <=

    Nuclear Repulsion Energy =           1325.5388349840129649
    One-Electron Energy =               -3848.6197513007386988
    Two-Electron Energy =                1636.7149243804456091
    Total Energy =                       -886.3659919362803521
  Basis Set: (AUG-CC-PVTZ AUX)
    Blend: AUG-CC-PVTZ-RI
    Molecular point group: c1

    Geometry (in Angstrom), charge = 0, multiplicity = 1:

       Center              X                  Y                   Z               Mass
    ------------   -----------------  -----------------  -----------------  -----------------
         O           -1.252042197531    -0.657888243008     1.029909360060    15.994914619570
         O           -1.248916197531     2.477630756992    -0.688768639940    15.994914619570
         O           -3.155462097531     1.551519456992     0.741266760060    15.994914619570
         O           -2.360970197531    -3.072057243008     0.092334360060    15.994914619570
         O            1.356588802469     2.241813756992    -0.079147639940    15.994914619570
         N            0.839462802469     0.040002756992     0.253337360060    14.003074004430
         N            3.053284802469     0.715282756992    -0.296332639940    14.003074004430
         N            4.712521802469    -0.841875243008    -0.574903639940    14.003074004430
         C           -1.300239797531     1.131451256992    -0.540547339940    12.000000000000
         C           -2.719112197531     0.649986756992    -0.259998639940    12.000000000000
         C           -0.529349197531     0.476299756992     0.597488360060    12.000000000000
         C           -2.533197197531    -0.722106243008     0.358450360060    12.000000000000
         C           -2.532285197531    -1.855613243008    -0.641895639940    12.000000000000
         C            1.215833802469    -1.266628243008     0.308668360060    12.000000000000
         C            1.751652802469     1.062214756992    -0.062008639940    12.000000000000
         C            2.507159802469    -1.614360243008     0.044389360060    12.000000000000
         C            3.408041802469    -0.555873243008    -0.261530639940    12.000000000000
         H           -0.941547197531     0.586183756992    -1.517496639940     1.007825032230
         H           -3.366523197531     0.637444756992    -1.149070639940     1.007825032230
         H           -0.444231197531     1.216659756992     1.401392360060     1.007825032230
         H           -3.285898197531    -0.913954243008     1.128177360060     1.007825032230
         H           -1.717249197531    -1.705525243008    -1.372069639940     1.007825032230
         H           -3.489502197531    -1.839224243008    -1.186740639940     1.007825032230
         H           -0.301466197531     2.707958756992    -0.527605639940     1.007825032230
         H           -2.851497197531     2.394522756992     0.506057360060     1.007825032230
         H            0.430369802469    -1.968657243008     0.566462360060     1.007825032230
         H           -2.437815197531    -3.803652243008    -0.545838639940     1.007825032230
         H            2.825170802469    -2.650618243008     0.071316360060     1.007825032230
         H            5.121238802469    -1.676081243008    -0.165019639940     1.007825032230
         H            5.315872802469    -0.025274243008    -0.570899639940     1.007825032230

  Basis Set: AUG-CC-PVTZ
    Blend: AUG-CC-PVTZ
  Basis Set: (AUG-CC-PVTZ AUX)
    Blend: AUG-CC-PVTZ-JKFIT
	 Reference Energy          =    -886.3659919362803521 [Eh]
	 Singles Energy            =      -0.0000000000000000 [Eh]
	 Same-Spin Energy          =      -0.9007736118073087 [Eh]
	 Opposite-Spin Energy      =      -2.7128898154427459 [Eh]
	 Correlation Energy        =      -3.6136634272500547 [Eh]
	 Total Energy              =    -889.9796553635303553 [Eh]

	 ================> DF-SCS-MP2 Energies <==================
	-----------------------------------------------------------
	 SCS Same-Spin Scale       =       0.3333333333333333 [-]
	 SCS Opposite-Spin Scale   =       1.2000000000000000 [-]
	 SCS Same-Spin Energy      =      -0.3002578706024362 [Eh]
	 SCS Opposite-Spin Energy  =      -3.2554677785312949 [Eh]
	 SCS Correlation Energy    =      -3.5557256491337310 [Eh]
	 SCS Total Energy          =    -889.9217175854140578 [Eh]
	-----------------------------------------------------------

  Dipole Moment: [D]
     X:     1.5339      Y:    -5.8440      Z:    -1.7684     Total:     6.2954

*** Psi4 exiting successfully. Buy a developer a beer!
