                               Psi4 1.3.2 release

  ==> Input File <==

--------------------------------------------------------------------------
#psi4
#
memory 32 gb

molecule  {
0 1
  O       -1.2481010    -0.6526680     1.0325150
  O       -1.2449750     2.4828510    -0.6861630
  O       -3.2165300     1.5210990     0.7448870
  O       -2.3570290    -3.0668370     0.0949400
  O        1.3505629     2.2436852    -0.0738373
  N        0.8345478     0.0536089     0.2572697
  N        3.0572260     0.7205030    -0.2937270
  N        4.7164630    -0.8366550    -0.5722980
  C       -1.2894840     1.0784300    -0.5920770
  C       -2.7151710     0.6552070    -0.2573930
  C       -0.5254080     0.4815200     0.6000940
  C       -2.5292560    -0.7168860     0.3610560
  C       -2.5283440    -1.8503930    -0.6392900
  C        1.2197750    -1.2614080     0.3112740
  C        1.7555940     1.0674350    -0.0594030
  C        2.5111010    -1.6091400     0.0469950
  C        3.4119830    -0.5506530    -0.2589250
  H       -0.9376060     0.5914040    -1.5148910
  H       -3.3625820     0.6426650    -1.1464650
  H       -0.4402900     1.2218800     1.4039980
  H       -3.2819570    -0.9087340     1.1307830
  H       -1.7133080    -1.7003050    -1.3694640
  H       -3.4855610    -1.8340040    -1.1841350
  H       -0.2975250     2.7131790    -0.5250000
  H       -2.8475560     2.3997430     0.5086630
  H        0.4343110    -1.9634370     0.5690680
  H       -2.4338740    -3.7984320    -0.5432330
  H        2.8291120    -2.6453980     0.0739220
  H        5.1251800    -1.6708610    -0.1624140
  H        5.3198140    -0.0200540    -0.5682940
units angstrom
no_reorient  #important for SAPT in psi4, default
symmetry c1  #important for SAPT in psi4, default
}

set PROPERTIES_ORIGIN ["COM"]
properties('MP2/aug-cc-pvtz', properties = ['dipole'])
--------------------------------------------------------------------------

    Molecular point group: c1
  Charge       = 0
  Multiplicity = 1
  Basis Set: AUG-CC-PVTZ
    Blend: AUG-CC-PVTZ
  Basis Set: (AUG-CC-PVTZ AUX)
    Blend: AUG-CC-PVTZ-JKFIT

    Orbital Energies [Eh]
    ---------------------

    Doubly Occupied:

       1A    -20.581978     2A    -20.580941     3A    -20.557176
       4A    -20.556268     5A    -20.521480     6A    -15.636261
       7A    -15.600831     8A    -15.554459     9A    -11.388416
      10A    -11.359073    11A    -11.339935    12A    -11.329611
      13A    -11.300828    14A    -11.296417    15A    -11.295661
      16A    -11.292274    17A    -11.249844    18A     -1.429144
      19A     -1.396353    20A     -1.379486    21A     -1.372433
      22A     -1.345566    23A     -1.305545    24A     -1.273111
      25A     -1.183337    26A     -1.082610    27A     -1.067179
      28A     -1.020849    29A     -0.935758    30A     -0.908519
      31A     -0.877339    32A     -0.832214    33A     -0.811492
      34A     -0.767452    35A     -0.751675    36A     -0.735708
      37A     -0.720842    38A     -0.702898    39A     -0.697939
      40A     -0.686033    41A     -0.672723    42A     -0.654394
      43A     -0.651819    44A     -0.638244    45A     -0.620429
      46A     -0.614238    47A     -0.606487    48A     -0.593491
      49A     -0.575402    50A     -0.569479    51A     -0.553694
      52A     -0.545615    53A     -0.537191    54A     -0.531577
      55A     -0.496759    56A     -0.477016    57A     -0.473762
      58A     -0.461659    59A     -0.460189    60A     -0.452125
      61A     -0.440461    62A     -0.433573    63A     -0.395692
      64A     -0.350773

  @DF-RHF Final Energy:  -886.37322814843776

   => Energetics <=

    Nuclear Repulsion Energy =           1323.9724472887110096
    One-Electron Energy =               -3845.6278978267337152
    Two-Electron Energy =                1635.2822223895850584
    Total Energy =                       -886.3732281484376472
  Basis Set: (AUG-CC-PVTZ AUX)
    Blend: AUG-CC-PVTZ-RI
    Molecular point group: c1

    Geometry (in Angstrom), charge = 0, multiplicity = 1:

       Center              X                  Y                   Z               Mass
    ------------   -----------------  -----------------  -----------------  -----------------
         O           -1.246935037143    -0.652930714717     1.032260614197    15.994914619570
         O           -1.243809037143     2.482588285283    -0.686417385803    15.994914619570
         O           -3.215364037143     1.520836285283     0.744632614197    15.994914619570
         O           -2.355863037143    -3.067099714717     0.094685614197    15.994914619570
         O            1.351728862857     2.243422485283    -0.074091685803    15.994914619570
         N            0.835713762857     0.053346185283     0.257015314197    14.003074004430
         N            3.058391962857     0.720240285283    -0.293981385803    14.003074004430
         N            4.717628962857    -0.836917714717    -0.572552385803    14.003074004430
         C           -1.288318037143     1.078167285283    -0.592331385803    12.000000000000
         C           -2.714005037143     0.654944285283    -0.257647385803    12.000000000000
         C           -0.524242037143     0.481257285283     0.599839614197    12.000000000000
         C           -2.528090037143    -0.717148714717     0.360801614197    12.000000000000
         C           -2.527178037143    -1.850655714717    -0.639544385803    12.000000000000
         C            1.220940962857    -1.261670714717     0.311019614197    12.000000000000
         C            1.756759962857     1.067172285283    -0.059657385803    12.000000000000
         C            2.512266962857    -1.609402714717     0.046740614197    12.000000000000
         C            3.413148962857    -0.550915714717    -0.259179385803    12.000000000000
         H           -0.936440037143     0.591141285283    -1.515145385803     1.007825032230
         H           -3.361416037143     0.642402285283    -1.146719385803     1.007825032230
         H           -0.439124037143     1.221617285283     1.403743614197     1.007825032230
         H           -3.280791037143    -0.908996714717     1.130528614197     1.007825032230
         H           -1.712142037143    -1.700567714717    -1.369718385803     1.007825032230
         H           -3.484395037143    -1.834266714717    -1.184389385803     1.007825032230
         H           -0.296359037143     2.712916285283    -0.525254385803     1.007825032230
         H           -2.846390037143     2.399480285283     0.508408614197     1.007825032230
         H            0.435476962857    -1.963699714717     0.568813614197     1.007825032230
         H           -2.432708037143    -3.798694714717    -0.543487385803     1.007825032230
         H            2.830277962857    -2.645660714717     0.073667614197     1.007825032230
         H            5.126345962857    -1.671123714717    -0.162668385803     1.007825032230
         H            5.320979962857    -0.020316714717    -0.568548385803     1.007825032230

  Basis Set: AUG-CC-PVTZ
    Blend: AUG-CC-PVTZ
  Basis Set: (AUG-CC-PVTZ AUX)
    Blend: AUG-CC-PVTZ-JKFIT
	 Reference Energy          =    -886.3732281484377609 [Eh]
	 Singles Energy            =      -0.0000000000000000 [Eh]
	 Same-Spin Energy          =      -0.9012235730751040 [Eh]
	 Opposite-Spin Energy      =      -2.7149747008290710 [Eh]
	 Correlation Energy        =      -3.6161982739041751 [Eh]
	 Total Energy              =    -889.9894264223419214 [Eh]

	 ================> DF-SCS-MP2 Energies <==================
	-----------------------------------------------------------
	 SCS Same-Spin Scale       =       0.3333333333333333 [-]
	 SCS Opposite-Spin Scale   =       1.2000000000000000 [-]
	 SCS Same-Spin Energy      =      -0.3004078576917013 [Eh]
	 SCS Opposite-Spin Energy  =      -3.2579696409948853 [Eh]
	 SCS Correlation Energy    =      -3.5583774986865864 [Eh]
	 SCS Total Energy          =    -889.9316056471243428 [Eh]
	-----------------------------------------------------------

  Dipole Moment: [D]
     X:     1.8105      Y:    -5.9754      Z:    -1.8341     Total:     6.5075

*** Psi4 exiting successfully. Buy a developer a beer!
