                               Psi4 1.3.2 release

  ==> Input File <==

--------------------------------------------------------------------------
#psi4
#
memory 32 gb

molecule  {
0 1
  O       -1.2481010    -0.6526680     1.0325150
  O       -1.2449750     2.4828510    -0.6861630
  O       -3.2165300     1.5210990     0.7448870
  O       -2.3570290    -3.0668370     0.0949400
  O        1.3605300     2.2470340    -0.0765420
  N        0.8434040     0.0452230     0.2559430
  N        3.0572260     0.7205030    -0.2937270
  N        4.7164630    -0.8366550    -0.5722980
  C       -1.2894840     1.0784300    -0.5920770
  C       -2.7151710     0.6552070    -0.2573930
  C       -0.5254080     0.4815200     0.6000940
  C       -2.5292560    -0.7168860     0.3610560
  C       -2.5283440    -1.8503930    -0.6392900
  C        1.2197750    -1.2614080     0.3112740
  C        1.7555940     1.0674350    -0.0594030
  C        2.5111010    -1.6091400     0.0469950
  C        3.4119830    -0.5506530    -0.2589250
  H       -0.9376060     0.5914040    -1.5148910
  H       -3.4803054     0.6403844    -1.3081313
  H       -0.4402900     1.2218800     1.4039980
  H       -3.2819570    -0.9087340     1.1307830
  H       -1.7133080    -1.7003050    -1.3694640
  H       -3.4855610    -1.8340040    -1.1841350
  H       -0.2975250     2.7131790    -0.5250000
  H       -2.8475560     2.3997430     0.5086630
  H        0.4343110    -1.9634370     0.5690680
  H       -2.4338740    -3.7984320    -0.5432330
  H        2.8291120    -2.6453980     0.0739220
  H        5.1251800    -1.6708610    -0.1624140
  H        5.3198140    -0.0200540    -0.5682940
units angstrom
no_reorient  #important for SAPT in psi4, default
symmetry c1  #important for SAPT in psi4, default
}

set PROPERTIES_ORIGIN ["COM"]
properties('MP2/aug-cc-pvtz', properties = ['dipole'])
--------------------------------------------------------------------------

    Molecular point group: c1
  Charge       = 0
  Multiplicity = 1
  Basis Set: AUG-CC-PVTZ
    Blend: AUG-CC-PVTZ
  Basis Set: (AUG-CC-PVTZ AUX)
    Blend: AUG-CC-PVTZ-JKFIT

    Orbital Energies [Eh]
    ---------------------

    Doubly Occupied:

       1A    -20.583805     2A    -20.581743     3A    -20.563230
       4A    -20.558148     5A    -20.522774     6A    -15.637989
       7A    -15.600399     8A    -15.554011     9A    -11.389077
      10A    -11.358528    11A    -11.343519    12A    -11.329307
      13A    -11.315518    14A    -11.300573    15A    -11.299183
      16A    -11.299058    17A    -11.249289    18A     -1.431211
      19A     -1.397416    20A     -1.381687    21A     -1.373007
      22A     -1.348685    23A     -1.306835    24A     -1.274666
      25A     -1.182930    26A     -1.082867    27A     -1.065474
      28A     -1.022483    29A     -0.934195    30A     -0.910285
      31A     -0.876914    32A     -0.833573    33A     -0.801589
      34A     -0.767444    35A     -0.750081    36A     -0.737179
      37A     -0.717467    38A     -0.703852    39A     -0.699741
      40A     -0.686364    41A     -0.668836    42A     -0.653211
      43A     -0.651923    44A     -0.634731    45A     -0.621127
      46A     -0.613324    47A     -0.607648    48A     -0.593378
      49A     -0.571052    50A     -0.569047    51A     -0.555106
      52A     -0.545777    53A     -0.538981    54A     -0.532241
      55A     -0.499340    56A     -0.477672    57A     -0.474914
      58A     -0.462734    59A     -0.458031    60A     -0.451674
      61A     -0.434988    62A     -0.433818    63A     -0.395607
      64A     -0.350741

  @DF-RHF Final Energy:  -886.35292862584811

   => Energetics <=

    Nuclear Repulsion Energy =           1322.5248081781971905
    One-Electron Energy =               -3842.6194833326130720
    Two-Electron Energy =                1633.7417465285680009
    Total Energy =                       -886.3529286258481079
  Basis Set: (AUG-CC-PVTZ AUX)
    Blend: AUG-CC-PVTZ-RI
    Molecular point group: c1

    Geometry (in Angstrom), charge = 0, multiplicity = 1:

       Center              X                  Y                   Z               Mass
    ------------   -----------------  -----------------  -----------------  -----------------
         O           -1.247612956369    -0.652658534564     1.033185270949    15.994914619570
         O           -1.244486956369     2.482860465436    -0.685492729051    15.994914619570
         O           -3.216041956369     1.521108465436     0.745557270949    15.994914619570
         O           -2.356540956369    -3.066827534564     0.095610270949    15.994914619570
         O            1.361018043631     2.247043465436    -0.075871729051    15.994914619570
         N            0.843892043631     0.045232465436     0.256613270949    14.003074004430
         N            3.057714043631     0.720512465436    -0.293056729051    14.003074004430
         N            4.716951043631    -0.836645534564    -0.571627729051    14.003074004430
         C           -1.288995956369     1.078439465436    -0.591406729051    12.000000000000
         C           -2.714682956369     0.655216465436    -0.256722729051    12.000000000000
         C           -0.524919956369     0.481529465436     0.600764270949    12.000000000000
         C           -2.528767956369    -0.716876534564     0.361726270949    12.000000000000
         C           -2.527855956369    -1.850383534564    -0.638619729051    12.000000000000
         C            1.220263043631    -1.261398534564     0.311944270949    12.000000000000
         C            1.756082043631     1.067444465436    -0.058732729051    12.000000000000
         C            2.511589043631    -1.609130534564     0.047665270949    12.000000000000
         C            3.412471043631    -0.550643534564    -0.258254729051    12.000000000000
         H           -0.937117956369     0.591413465436    -1.514220729051     1.007825032230
         H           -3.479817356369     0.640393865436    -1.307461029051     1.007825032230
         H           -0.439801956369     1.221889465436     1.404668270949     1.007825032230
         H           -3.281468956369    -0.908724534564     1.131453270949     1.007825032230
         H           -1.712819956369    -1.700295534564    -1.368793729051     1.007825032230
         H           -3.485072956369    -1.833994534564    -1.183464729051     1.007825032230
         H           -0.297036956369     2.713188465436    -0.524329729051     1.007825032230
         H           -2.847067956369     2.399752465436     0.509333270949     1.007825032230
         H            0.434799043631    -1.963427534564     0.569738270949     1.007825032230
         H           -2.433385956369    -3.798422534564    -0.542562729051     1.007825032230
         H            2.829600043631    -2.645388534564     0.074592270949     1.007825032230
         H            5.125668043631    -1.670851534564    -0.161743729051     1.007825032230
         H            5.320302043631    -0.020044534564    -0.567623729051     1.007825032230

  Basis Set: AUG-CC-PVTZ
    Blend: AUG-CC-PVTZ
  Basis Set: (AUG-CC-PVTZ AUX)
    Blend: AUG-CC-PVTZ-JKFIT
	 Reference Energy          =    -886.3529286258481079 [Eh]
	 Singles Energy            =      -0.0000000000000000 [Eh]
	 Same-Spin Energy          =      -0.9017318246259988 [Eh]
	 Opposite-Spin Energy      =      -2.7171704658352311 [Eh]
	 Correlation Energy        =      -3.6189022904612300 [Eh]
	 Total Energy              =    -889.9718309163093863 [Eh]

	 ================> DF-SCS-MP2 Energies <==================
	-----------------------------------------------------------
	 SCS Same-Spin Scale       =       0.3333333333333333 [-]
	 SCS Opposite-Spin Scale   =       1.2000000000000000 [-]
	 SCS Same-Spin Energy      =      -0.3005772748753329 [Eh]
	 SCS Opposite-Spin Energy  =      -3.2606045590022772 [Eh]
	 SCS Correlation Energy    =      -3.5611818338776100 [Eh]
	 SCS Total Energy          =    -889.9141104597257481 [Eh]
	-----------------------------------------------------------

  Dipole Moment: [D]
     X:     1.8340      Y:    -5.8992      Z:    -1.6570     Total:     6.3961

*** Psi4 exiting successfully. Buy a developer a beer!
