                               Psi4 1.3.2 release

  ==> Input File <==

--------------------------------------------------------------------------
#psi4
#
memory 32 gb

molecule  {
0 1
  O       -1.2481010    -0.6526680     1.0325150
  O       -1.2172998     2.4838344    -0.6455504
  O       -3.2165300     1.5210990     0.7448870
  O       -2.3570290    -3.0668370     0.0949400
  O        1.3605300     2.2470340    -0.0765420
  N        0.8434040     0.0452230     0.2559430
  N        3.0572260     0.7205030    -0.2937270
  N        4.7164630    -0.8366550    -0.5722980
  C       -1.2894840     1.0784300    -0.5920770
  C       -2.7151710     0.6552070    -0.2573930
  C       -0.5115365     0.5311833     0.6148630
  C       -2.5292560    -0.7168860     0.3610560
  C       -2.5283440    -1.8503930    -0.6392900
  C        1.2197750    -1.2614080     0.3112740
  C        1.7555940     1.0674350    -0.0594030
  C        2.5111010    -1.6091400     0.0469950
  C        3.4119830    -0.5506530    -0.2589250
  H       -0.9376060     0.5914040    -1.5148910
  H       -3.3625820     0.6426650    -1.1464650
  H       -0.4402900     1.2218800     1.4039980
  H       -3.2819570    -0.9087340     1.1307830
  H       -1.7133080    -1.7003050    -1.3694640
  H       -3.4855610    -1.8340040    -1.1841350
  H       -0.2975250     2.7131790    -0.5250000
  H       -2.8475560     2.3997430     0.5086630
  H        0.4343110    -1.9634370     0.5690680
  H       -2.4338740    -3.7984320    -0.5432330
  H        2.8291120    -2.6453980     0.0739220
  H        5.1251800    -1.6708610    -0.1624140
  H        5.3198140    -0.0200540    -0.5682940
units angstrom
no_reorient  #important for SAPT in psi4, default
symmetry c1  #important for SAPT in psi4, default
}

set PROPERTIES_ORIGIN ["COM"]
properties('MP2/aug-cc-pvtz', properties = ['dipole'])
--------------------------------------------------------------------------

    Molecular point group: c1
  Charge       = 0
  Multiplicity = 1
  Basis Set: AUG-CC-PVTZ
    Blend: AUG-CC-PVTZ
  Basis Set: (AUG-CC-PVTZ AUX)
    Blend: AUG-CC-PVTZ-JKFIT

    Orbital Energies [Eh]
    ---------------------

    Doubly Occupied:

       1A    -20.581138     2A    -20.576562     3A    -20.558369
       4A    -20.554015     5A    -20.521246     6A    -15.636969
       7A    -15.599708     8A    -15.552668     9A    -11.387176
      10A    -11.357621    11A    -11.340983    12A    -11.328717
      13A    -11.299914    14A    -11.298891    15A    -11.294802
      16A    -11.293795    17A    -11.248485    18A     -1.421458
      19A     -1.393838    20A     -1.380991    21A     -1.369709
      22A     -1.349305    23A     -1.305279    24A     -1.272508
      25A     -1.181739    26A     -1.082457    27A     -1.065042
      28A     -1.022015    29A     -0.936797    30A     -0.907924
      31A     -0.877129    32A     -0.837424    33A     -0.808009
      34A     -0.765808    35A     -0.750937    36A     -0.742606
      37A     -0.719131    38A     -0.703031    39A     -0.697285
      40A     -0.684507    41A     -0.673967    42A     -0.655818
      43A     -0.649918    44A     -0.638086    45A     -0.619829
      46A     -0.612172    47A     -0.606654    48A     -0.594637
      49A     -0.574987    50A     -0.569765    51A     -0.552287
      52A     -0.544362    53A     -0.536724    54A     -0.532727
      55A     -0.498134    56A     -0.475772    57A     -0.475051
      58A     -0.461087    59A     -0.459337    60A     -0.452955
      61A     -0.442846    62A     -0.432371    63A     -0.395850
      64A     -0.350524

  @DF-RHF Final Energy:  -886.37031766119003

   => Energetics <=

    Nuclear Repulsion Energy =           1323.7883031712569846
    One-Electron Energy =               -3845.2935443146566286
    Two-Electron Energy =                1635.1349234822098424
    Total Energy =                       -886.3703176611900290
  Basis Set: (AUG-CC-PVTZ AUX)
    Blend: AUG-CC-PVTZ-RI
    Molecular point group: c1

    Geometry (in Angstrom), charge = 0, multiplicity = 1:

       Center              X                  Y                   Z               Mass
    ------------   -----------------  -----------------  -----------------  -----------------
         O           -1.250606820623    -0.655184342944     1.029113640473    15.994914619570
         O           -1.219805620623     2.481318057056    -0.648951759527    15.994914619570
         O           -3.219035820623     1.518582657056     0.741485640473    15.994914619570
         O           -2.359534820623    -3.069353342944     0.091538640473    15.994914619570
         O            1.358024179377     2.244517657056    -0.079943359527    15.994914619570
         N            0.840898179377     0.042706657056     0.252541640473    14.003074004430
         N            3.054720179377     0.717986657056    -0.297128359527    14.003074004430
         N            4.713957179377    -0.839171342944    -0.575699359527    14.003074004430
         C           -1.291989820623     1.075913657056    -0.595478359527    12.000000000000
         C           -2.717676820623     0.652690657056    -0.260794359527    12.000000000000
         C           -0.514042320623     0.528666957056     0.611461640473    12.000000000000
         C           -2.531761820623    -0.719402342944     0.357654640473    12.000000000000
         C           -2.530849820623    -1.852909342944    -0.642691359527    12.000000000000
         C            1.217269179377    -1.263924342944     0.307872640473    12.000000000000
         C            1.753088179377     1.064918657056    -0.062804359527    12.000000000000
         C            2.508595179377    -1.611656342944     0.043593640473    12.000000000000
         C            3.409477179377    -0.553169342944    -0.262326359527    12.000000000000
         H           -0.940111820623     0.588887657056    -1.518292359527     1.007825032230
         H           -3.365087820623     0.640148657056    -1.149866359527     1.007825032230
         H           -0.442795820623     1.219363657056     1.400596640473     1.007825032230
         H           -3.284462820623    -0.911250342944     1.127381640473     1.007825032230
         H           -1.715813820623    -1.702821342944    -1.372865359527     1.007825032230
         H           -3.488066820623    -1.836520342944    -1.187536359527     1.007825032230
         H           -0.300030820623     2.710662657056    -0.528401359527     1.007825032230
         H           -2.850061820623     2.397226657056     0.505261640473     1.007825032230
         H            0.431805179377    -1.965953342944     0.565666640473     1.007825032230
         H           -2.436379820623    -3.800948342944    -0.546634359527     1.007825032230
         H            2.826606179377    -2.647914342944     0.070520640473     1.007825032230
         H            5.122674179377    -1.673377342944    -0.165815359527     1.007825032230
         H            5.317308179377    -0.022570342944    -0.571695359527     1.007825032230

  Basis Set: AUG-CC-PVTZ
    Blend: AUG-CC-PVTZ
  Basis Set: (AUG-CC-PVTZ AUX)
    Blend: AUG-CC-PVTZ-JKFIT
	 Reference Energy          =    -886.3703176611900290 [Eh]
	 Singles Energy            =      -0.0000000000000000 [Eh]
	 Same-Spin Energy          =      -0.9005789074360119 [Eh]
	 Opposite-Spin Energy      =      -2.7143904317157350 [Eh]
	 Correlation Energy        =      -3.6149693391517470 [Eh]
	 Total Energy              =    -889.9852870003418275 [Eh]

	 ================> DF-SCS-MP2 Energies <==================
	-----------------------------------------------------------
	 SCS Same-Spin Scale       =       0.3333333333333333 [-]
	 SCS Opposite-Spin Scale   =       1.2000000000000000 [-]
	 SCS Same-Spin Energy      =      -0.3001929691453373 [Eh]
	 SCS Opposite-Spin Energy  =      -3.2572685180588818 [Eh]
	 SCS Correlation Energy    =      -3.5574614872042192 [Eh]
	 SCS Total Energy          =    -889.9277791483942792 [Eh]
	-----------------------------------------------------------

  Dipole Moment: [D]
     X:     1.7219      Y:    -5.8248      Z:    -1.8875     Total:     6.3605

*** Psi4 exiting successfully. Buy a developer a beer!
