                               Psi4 1.3.2 release

  ==> Input File <==

--------------------------------------------------------------------------
#psi4
#
memory 32 gb

molecule  {
0 1
  O       -1.1969608    -0.6628454     1.0849655
  O       -1.2449750     2.4828510    -0.6861630
  O       -3.2165300     1.5210990     0.7448870
  O       -2.3570290    -3.0668370     0.0949400
  O        1.3605300     2.2470340    -0.0765420
  N        0.8434040     0.0452230     0.2559430
  N        3.0572260     0.7205030    -0.2937270
  N        4.7164630    -0.8366550    -0.5722980
  C       -1.2330333     1.1355440    -0.5969459
  C       -2.7151710     0.6552070    -0.2573930
  C       -0.5254080     0.4815200     0.6000940
  C       -2.5292560    -0.7168860     0.3610560
  C       -2.5283440    -1.8503930    -0.6392900
  C        1.2197750    -1.2614080     0.3112740
  C        1.7555940     1.0674350    -0.0594030
  C        2.5111010    -1.6091400     0.0469950
  C        3.4119830    -0.5506530    -0.2589250
  H       -0.9376060     0.5914040    -1.5148910
  H       -3.3625820     0.6426650    -1.1464650
  H       -0.4402900     1.2218800     1.4039980
  H       -3.2819570    -0.9087340     1.1307830
  H       -1.7133080    -1.7003050    -1.3694640
  H       -3.4855610    -1.8340040    -1.1841350
  H       -0.2975250     2.7131790    -0.5250000
  H       -2.8475560     2.3997430     0.5086630
  H        0.4343110    -1.9634370     0.5690680
  H       -2.4338740    -3.7984320    -0.5432330
  H        2.8291120    -2.6453980     0.0739220
  H        5.1251800    -1.6708610    -0.1624140
  H        5.3198140    -0.0200540    -0.5682940
units angstrom
no_reorient  #important for SAPT in psi4, default
symmetry c1  #important for SAPT in psi4, default
}

set PROPERTIES_ORIGIN ["COM"]
properties('MP2/aug-cc-pvtz', properties = ['dipole'])
--------------------------------------------------------------------------

    Molecular point group: c1
  Charge       = 0
  Multiplicity = 1
  Basis Set: AUG-CC-PVTZ
    Blend: AUG-CC-PVTZ
  Basis Set: (AUG-CC-PVTZ AUX)
    Blend: AUG-CC-PVTZ-JKFIT

    Orbital Energies [Eh]
    ---------------------

    Doubly Occupied:

       1A    -20.583216     2A    -20.582807     3A    -20.565402
       4A    -20.558106     5A    -20.521695     6A    -15.633246
       7A    -15.598335     8A    -15.551697     9A    -11.386580
      10A    -11.355999    11A    -11.337568    12A    -11.325641
      13A    -11.304347    14A    -11.302509    15A    -11.299923
      16A    -11.296093    17A    -11.246200    18A     -1.423553
      19A     -1.394722    20A     -1.390247    21A     -1.373862
      22A     -1.354157    23A     -1.303878    24A     -1.269921
      25A     -1.180259    26A     -1.079059    27A     -1.065747
      28A     -1.012928    29A     -0.931556    30A     -0.905891
      31A     -0.876575    32A     -0.831312    33A     -0.809430
      34A     -0.765423    35A     -0.749730    36A     -0.739088
      37A     -0.718133    38A     -0.704645    39A     -0.699339
      40A     -0.683642    41A     -0.672316    42A     -0.652162
      43A     -0.650557    44A     -0.638038    45A     -0.621791
      46A     -0.614704    47A     -0.604517    48A     -0.595786
      49A     -0.575818    50A     -0.563447    51A     -0.560387
      52A     -0.548978    53A     -0.539590    54A     -0.530047
      55A     -0.497332    56A     -0.479421    57A     -0.471838
      58A     -0.464110    59A     -0.460275    60A     -0.446128
      61A     -0.435600    62A     -0.431770    63A     -0.393159
      64A     -0.347646

  @DF-RHF Final Energy:  -886.36047446545399

   => Energetics <=

    Nuclear Repulsion Energy =           1322.0057547094738766
    One-Electron Energy =               -3841.7167041881089062
    Two-Electron Energy =                1633.3504750131810397
    Total Energy =                       -886.3604744654539900
  Basis Set: (AUG-CC-PVTZ AUX)
    Blend: AUG-CC-PVTZ-RI
    Molecular point group: c1

    Geometry (in Angstrom), charge = 0, multiplicity = 1:

       Center              X                  Y                   Z               Mass
    ------------   -----------------  -----------------  -----------------  -----------------
         O           -1.203112543546    -0.664995173834     1.081754643800    15.994914619570
         O           -1.251126743546     2.480701226166    -0.689373856200    15.994914619570
         O           -3.222681743546     1.518949226166     0.741676143800    15.994914619570
         O           -2.363180743546    -3.068986773834     0.091729143800    15.994914619570
         O            1.354378256454     2.244884226166    -0.079752856200    15.994914619570
         N            0.837252256454     0.043073226166     0.252732143800    14.003074004430
         N            3.051074256454     0.718353226166    -0.296937856200    14.003074004430
         N            4.710311256454    -0.838804773834    -0.575508856200    14.003074004430
         C           -1.239185043546     1.133394226166    -0.600156756200    12.000000000000
         C           -2.721322743546     0.653057226166    -0.260603856200    12.000000000000
         C           -0.531559743546     0.479370226166     0.596883143800    12.000000000000
         C           -2.535407743546    -0.719035773834     0.357845143800    12.000000000000
         C           -2.534495743546    -1.852542773834    -0.642500856200    12.000000000000
         C            1.213623256454    -1.263557773834     0.308063143800    12.000000000000
         C            1.749442256454     1.065285226166    -0.062613856200    12.000000000000
         C            2.504949256454    -1.611289773834     0.043784143800    12.000000000000
         C            3.405831256454    -0.552802773834    -0.262135856200    12.000000000000
         H           -0.943757743546     0.589254226166    -1.518101856200     1.007825032230
         H           -3.368733743546     0.640515226166    -1.149675856200     1.007825032230
         H           -0.446441743546     1.219730226166     1.400787143800     1.007825032230
         H           -3.288108743546    -0.910883773834     1.127572143800     1.007825032230
         H           -1.719459743546    -1.702454773834    -1.372674856200     1.007825032230
         H           -3.491712743546    -1.836153773834    -1.187345856200     1.007825032230
         H           -0.303676743546     2.711029226166    -0.528210856200     1.007825032230
         H           -2.853707743546     2.397593226166     0.505452143800     1.007825032230
         H            0.428159256454    -1.965586773834     0.565857143800     1.007825032230
         H           -2.440025743546    -3.800581773834    -0.546443856200     1.007825032230
         H            2.822960256454    -2.647547773834     0.070711143800     1.007825032230
         H            5.119028256454    -1.673010773834    -0.165624856200     1.007825032230
         H            5.313662256454    -0.022203773834    -0.571504856200     1.007825032230

  Basis Set: AUG-CC-PVTZ
    Blend: AUG-CC-PVTZ
  Basis Set: (AUG-CC-PVTZ AUX)
    Blend: AUG-CC-PVTZ-JKFIT
	 Reference Energy          =    -886.3604744654539900 [Eh]
	 Singles Energy            =      -0.0000000000000000 [Eh]
	 Same-Spin Energy          =      -0.9022378443628649 [Eh]
	 Opposite-Spin Energy      =      -2.7170983846777368 [Eh]
	 Correlation Energy        =      -3.6193362290406017 [Eh]
	 Total Energy              =    -889.9798106944946312 [Eh]

	 ================> DF-SCS-MP2 Energies <==================
	-----------------------------------------------------------
	 SCS Same-Spin Scale       =       0.3333333333333333 [-]
	 SCS Opposite-Spin Scale   =       1.2000000000000000 [-]
	 SCS Same-Spin Energy      =      -0.3007459481209550 [Eh]
	 SCS Opposite-Spin Energy  =      -3.2605180616132841 [Eh]
	 SCS Correlation Energy    =      -3.5612640097342392 [Eh]
	 SCS Total Energy          =    -889.9217384751882491 [Eh]
	-----------------------------------------------------------

  Dipole Moment: [D]
     X:     1.4576      Y:    -5.7590      Z:    -1.9713     Total:     6.2591

*** Psi4 exiting successfully. Buy a developer a beer!
