                               Psi4 1.3.2 release

  ==> Input File <==

--------------------------------------------------------------------------
#psi4
#
memory 32 gb

molecule  {
0 1
  O       -1.2481010    -0.6526680     1.0325150
  O       -1.2449750     2.4828510    -0.6861630
  O       -3.2165300     1.5210990     0.7448870
  O       -2.3570290    -3.0668370     0.0949400
  O        1.3605300     2.2470340    -0.0765420
  N        0.8434040     0.0452230     0.2559430
  N        3.0572260     0.7205030    -0.2937270
  N        4.7164630    -0.8366550    -0.5722980
  C       -1.2894840     1.0784300    -0.5920770
  C       -2.7151710     0.6552070    -0.2573930
  C       -0.5254080     0.4815200     0.6000940
  C       -2.5292560    -0.7168860     0.3610560
  C       -2.5403145    -1.7653951    -0.6905936
  C        1.2197750    -1.2614080     0.3112740
  C        1.7555940     1.0674350    -0.0594030
  C        2.5111010    -1.6091400     0.0469950
  C        3.4119830    -0.5506530    -0.2589250
  H       -0.9376060     0.5914040    -1.5148910
  H       -3.3625820     0.6426650    -1.1464650
  H       -0.4402900     1.2218800     1.4039980
  H       -3.2819570    -0.9087340     1.1307830
  H       -1.7133080    -1.7003050    -1.3694640
  H       -3.4855610    -1.8340040    -1.1841350
  H       -0.2975250     2.7131790    -0.5250000
  H       -2.8475560     2.3997430     0.5086630
  H        0.4343110    -1.9634370     0.5690680
  H       -2.4338740    -3.7984320    -0.5432330
  H        2.8291120    -2.6453980     0.0739220
  H        5.1251800    -1.6708610    -0.1624140
  H        5.3198140    -0.0200540    -0.5682940
units angstrom
no_reorient  #important for SAPT in psi4, default
symmetry c1  #important for SAPT in psi4, default
}

set PROPERTIES_ORIGIN ["COM"]
properties('MP2/aug-cc-pvtz', properties = ['dipole'])
--------------------------------------------------------------------------

    Molecular point group: c1
  Charge       = 0
  Multiplicity = 1
  Basis Set: AUG-CC-PVTZ
    Blend: AUG-CC-PVTZ
  Basis Set: (AUG-CC-PVTZ AUX)
    Blend: AUG-CC-PVTZ-JKFIT

    Orbital Energies [Eh]
    ---------------------

    Doubly Occupied:

       1A    -20.584129     2A    -20.571654     3A    -20.558586
       4A    -20.558568     5A    -20.522680     6A    -15.637675
       7A    -15.600190     8A    -15.553830     9A    -11.388911
      10A    -11.358278    11A    -11.342928    12A    -11.328743
      13A    -11.301191    14A    -11.298944    15A    -11.298328
      16A    -11.293732    17A    -11.248893    18A     -1.430671
      19A     -1.396736    20A     -1.379652    21A     -1.347390
      22A     -1.340102    23A     -1.306590    24A     -1.274401
      25A     -1.182750    26A     -1.082852    27A     -1.076560
      28A     -1.023625    29A     -0.939149    30A     -0.910892
      31A     -0.878659    32A     -0.833941    33A     -0.815231
      34A     -0.768005    35A     -0.753060    36A     -0.736140
      37A     -0.719299    38A     -0.702306    39A     -0.688706
      40A     -0.680946    41A     -0.675308    42A     -0.656213
      43A     -0.653144    44A     -0.637739    45A     -0.621804
      46A     -0.613717    47A     -0.606135    48A     -0.593996
      49A     -0.571904    50A     -0.569412    51A     -0.548257
      52A     -0.544148    53A     -0.537843    54A     -0.530803
      55A     -0.499053    56A     -0.481574    57A     -0.474196
      58A     -0.467220    59A     -0.461098    60A     -0.454857
      61A     -0.443272    62A     -0.434271    63A     -0.395820
      64A     -0.350571

  @DF-RHF Final Energy:  -886.36363455477203

   => Energetics <=

    Nuclear Repulsion Energy =           1323.6617633259609192
    One-Electron Energy =               -3844.9762324600646934
    Two-Electron Energy =                1634.9508345793319677
    Total Energy =                       -886.3636345547720339
  Basis Set: (AUG-CC-PVTZ AUX)
    Blend: AUG-CC-PVTZ-RI
    Molecular point group: c1

    Geometry (in Angstrom), charge = 0, multiplicity = 1:

       Center              X                  Y                   Z               Mass
    ------------   -----------------  -----------------  -----------------  -----------------
         O           -1.247510106103    -0.656863940314     1.035047627271    15.994914619570
         O           -1.244384106103     2.478655059686    -0.683630372729    15.994914619570
         O           -3.215939106103     1.516903059686     0.747419627271    15.994914619570
         O           -2.356438106103    -3.071032940314     0.097472627271    15.994914619570
         O            1.361120893897     2.242838059686    -0.074009372729    15.994914619570
         N            0.843994893897     0.041027059686     0.258475627271    14.003074004430
         N            3.057816893897     0.716307059686    -0.291194372729    14.003074004430
         N            4.717053893897    -0.840850940314    -0.569765372729    14.003074004430
         C           -1.288893106103     1.074234059686    -0.589544372729    12.000000000000
         C           -2.714580106103     0.651011059686    -0.254860372729    12.000000000000
         C           -0.524817106103     0.477324059686     0.602626627271    12.000000000000
         C           -2.528665106103    -0.721081940314     0.363588627271    12.000000000000
         C           -2.539723606103    -1.769591040314    -0.688060972729    12.000000000000
         C            1.220365893897    -1.265603940314     0.313806627271    12.000000000000
         C            1.756184893897     1.063239059686    -0.056870372729    12.000000000000
         C            2.511691893897    -1.613335940314     0.049527627271    12.000000000000
         C            3.412573893897    -0.554848940314    -0.256392372729    12.000000000000
         H           -0.937015106103     0.587208059686    -1.512358372729     1.007825032230
         H           -3.361991106103     0.638469059686    -1.143932372729     1.007825032230
         H           -0.439699106103     1.217684059686     1.406530627271     1.007825032230
         H           -3.281366106103    -0.912929940314     1.133315627271     1.007825032230
         H           -1.712717106103    -1.704500940314    -1.366931372729     1.007825032230
         H           -3.484970106103    -1.838199940314    -1.181602372729     1.007825032230
         H           -0.296934106103     2.708983059686    -0.522467372729     1.007825032230
         H           -2.846965106103     2.395547059686     0.511195627271     1.007825032230
         H            0.434901893897    -1.967632940314     0.571600627271     1.007825032230
         H           -2.433283106103    -3.802627940314    -0.540700372729     1.007825032230
         H            2.829702893897    -2.649593940314     0.076454627271     1.007825032230
         H            5.125770893897    -1.675056940314    -0.159881372729     1.007825032230
         H            5.320404893897    -0.024249940314    -0.565761372729     1.007825032230

  Basis Set: AUG-CC-PVTZ
    Blend: AUG-CC-PVTZ
  Basis Set: (AUG-CC-PVTZ AUX)
    Blend: AUG-CC-PVTZ-JKFIT
	 Reference Energy          =    -886.3636345547720339 [Eh]
	 Singles Energy            =      -0.0000000000000000 [Eh]
	 Same-Spin Energy          =      -0.9018389100630568 [Eh]
	 Opposite-Spin Energy      =      -2.7171837786679127 [Eh]
	 Correlation Energy        =      -3.6190226887309693 [Eh]
	 Total Energy              =    -889.9826572435030130 [Eh]

	 ================> DF-SCS-MP2 Energies <==================
	-----------------------------------------------------------
	 SCS Same-Spin Scale       =       0.3333333333333333 [-]
	 SCS Opposite-Spin Scale   =       1.2000000000000000 [-]
	 SCS Same-Spin Energy      =      -0.3006129700210189 [Eh]
	 SCS Opposite-Spin Energy  =      -3.2606205344014954 [Eh]
	 SCS Correlation Energy    =      -3.5612335044225141 [Eh]
	 SCS Total Energy          =    -889.9248680591945231 [Eh]
	-----------------------------------------------------------

  Dipole Moment: [D]
     X:     1.7173      Y:    -5.6317      Z:    -1.9461     Total:     6.2009

*** Psi4 exiting successfully. Buy a developer a beer!
