                               Psi4 1.3.2 release

  ==> Input File <==

--------------------------------------------------------------------------
#psi4
#
memory 32 gb

molecule  {
0 1
  O       -1.2481010    -0.6526680     1.0325150
  O       -1.2449750     2.4828510    -0.6861630
  O       -3.2165300     1.5210990     0.7448870
  O       -2.3570290    -3.0668370     0.0949400
  O        1.3605300     2.2470340    -0.0765420
  N        0.8434040     0.0452230     0.2559430
  N        3.0572260     0.7205030    -0.2937270
  N        4.7164630    -0.8366550    -0.5722980
  C       -1.2894840     1.0784300    -0.5920770
  C       -2.7151710     0.6552070    -0.2573930
  C       -0.5254080     0.4815200     0.6000940
  C       -2.5292560    -0.7168860     0.3610560
  C       -2.5283440    -1.8503930    -0.6392900
  C        1.2197750    -1.2614080     0.3112740
  C        1.7555940     1.0674350    -0.0594030
  C        2.3216443    -1.5581226     0.0857686
  C        3.4119830    -0.5506530    -0.2589250
  H       -0.9376060     0.5914040    -1.5148910
  H       -3.3625820     0.6426650    -1.1464650
  H       -0.4402900     1.2218800     1.4039980
  H       -3.2819570    -0.9087340     1.1307830
  H       -1.7133080    -1.7003050    -1.3694640
  H       -3.4855610    -1.8340040    -1.1841350
  H       -0.2975250     2.7131790    -0.5250000
  H       -2.8475560     2.3997430     0.5086630
  H        0.4343110    -1.9634370     0.5690680
  H       -2.4338740    -3.7984320    -0.5432330
  H        2.8291120    -2.6453980     0.0739220
  H        5.1251800    -1.6708610    -0.1624140
  H        5.3198140    -0.0200540    -0.5682940
units angstrom
no_reorient  #important for SAPT in psi4, default
symmetry c1  #important for SAPT in psi4, default
}

set PROPERTIES_ORIGIN ["COM"]
properties('MP2/aug-cc-pvtz', properties = ['dipole'])
--------------------------------------------------------------------------

    Molecular point group: c1
  Charge       = 0
  Multiplicity = 1
  Basis Set: AUG-CC-PVTZ
    Blend: AUG-CC-PVTZ
  Basis Set: (AUG-CC-PVTZ AUX)
    Blend: AUG-CC-PVTZ-JKFIT

    Orbital Energies [Eh]
    ---------------------

    Doubly Occupied:

       1A    -20.578885     2A    -20.575463     3A    -20.554082
       4A    -20.553533     5A    -20.521696     6A    -15.616969
       7A    -15.615960     8A    -15.557702     9A    -11.387102
      10A    -11.373143    11A    -11.333694    12A    -11.297547
      13A    -11.292514    14A    -11.291005    15A    -11.288597
      16A    -11.282102    17A    -11.247501    18A     -1.423673
      19A     -1.394292    20A     -1.376299    21A     -1.368911
      22A     -1.342618    23A     -1.309789    24A     -1.274913
      25A     -1.187628    26A     -1.114984    27A     -1.063178
      28A     -1.015751    29A     -0.929135    30A     -0.892825
      31A     -0.879766    32A     -0.830948    33A     -0.808052
      34A     -0.772569    35A     -0.750507    36A     -0.731130
      37A     -0.723012    38A     -0.699910    39A     -0.694204
      40A     -0.687925    41A     -0.671556    42A     -0.652334
      43A     -0.646697    44A     -0.638383    45A     -0.621228
      46A     -0.611724    47A     -0.607164    48A     -0.573601
      49A     -0.569986    50A     -0.565552    51A     -0.551471
      52A     -0.541707    53A     -0.533802    54A     -0.527091
      55A     -0.511109    56A     -0.474065    57A     -0.471309
      58A     -0.459894    59A     -0.454197    60A     -0.448593
      61A     -0.440465    62A     -0.425291    63A     -0.397239
      64A     -0.367063

  @DF-RHF Final Energy:  -886.30608101273197

   => Energetics <=

    Nuclear Repulsion Energy =           1327.2190607680661287
    One-Electron Energy =               -3852.2482171836491034
    Two-Electron Energy =                1638.7230754028512365
    Total Energy =                       -886.3060810127319655
  Basis Set: (AUG-CC-PVTZ AUX)
    Blend: AUG-CC-PVTZ-RI
    Molecular point group: c1

    Geometry (in Angstrom), charge = 0, multiplicity = 1:

       Center              X                  Y                   Z               Mass
    ------------   -----------------  -----------------  -----------------  -----------------
         O           -1.238748439035    -0.655186481290     1.030600935433    15.994914619570
         O           -1.235622439035     2.480332518710    -0.688077064567    15.994914619570
         O           -3.207177439035     1.518580518710     0.742972935433    15.994914619570
         O           -2.347676439035    -3.069355481290     0.093025935433    15.994914619570
         O            1.369882560965     2.244515518710    -0.078456064567    15.994914619570
         N            0.852756560965     0.042704518710     0.254028935433    14.003074004430
         N            3.066578560965     0.717984518710    -0.295641064567    14.003074004430
         N            4.725815560965    -0.839173481290    -0.574212064567    14.003074004430
         C           -1.280131439035     1.075911518710    -0.593991064567    12.000000000000
         C           -2.705818439035     0.652688518710    -0.259307064567    12.000000000000
         C           -0.516055439035     0.479001518710     0.598179935433    12.000000000000
         C           -2.519903439035    -0.719404481290     0.359141935433    12.000000000000
         C           -2.518991439035    -1.852911481290    -0.641204064567    12.000000000000
         C            1.229127560965    -1.263926481290     0.309359935433    12.000000000000
         C            1.764946560965     1.064916518710    -0.061317064567    12.000000000000
         C            2.330996860965    -1.560641081290     0.083854535433    12.000000000000
         C            3.421335560965    -0.553171481290    -0.260839064567    12.000000000000
         H           -0.928253439035     0.588885518710    -1.516805064567     1.007825032230
         H           -3.353229439035     0.640146518710    -1.148379064567     1.007825032230
         H           -0.430937439035     1.219361518710     1.402083935433     1.007825032230
         H           -3.272604439035    -0.911252481290     1.128868935433     1.007825032230
         H           -1.703955439035    -1.702823481290    -1.371378064567     1.007825032230
         H           -3.476208439035    -1.836522481290    -1.186049064567     1.007825032230
         H           -0.288172439035     2.710660518710    -0.526914064567     1.007825032230
         H           -2.838203439035     2.397224518710     0.506748935433     1.007825032230
         H            0.443663560965    -1.965955481290     0.567153935433     1.007825032230
         H           -2.424521439035    -3.800950481290    -0.545147064567     1.007825032230
         H            2.838464560965    -2.647916481290     0.072007935433     1.007825032230
         H            5.134532560965    -1.673379481290    -0.164328064567     1.007825032230
         H            5.329166560965    -0.022572481290    -0.570208064567     1.007825032230

  Basis Set: AUG-CC-PVTZ
    Blend: AUG-CC-PVTZ
  Basis Set: (AUG-CC-PVTZ AUX)
    Blend: AUG-CC-PVTZ-JKFIT
	 Reference Energy          =    -886.3060810127319655 [Eh]
	 Singles Energy            =      -0.0000000000000000 [Eh]
	 Same-Spin Energy          =      -0.8995659760811401 [Eh]
	 Opposite-Spin Energy      =      -2.7136215060391518 [Eh]
	 Correlation Energy        =      -3.6131874821202921 [Eh]
	 Total Energy              =    -889.9192684948523038 [Eh]

	 ================> DF-SCS-MP2 Energies <==================
	-----------------------------------------------------------
	 SCS Same-Spin Scale       =       0.3333333333333333 [-]
	 SCS Opposite-Spin Scale   =       1.2000000000000000 [-]
	 SCS Same-Spin Energy      =      -0.2998553253603800 [Eh]
	 SCS Opposite-Spin Energy  =      -3.2563458072469822 [Eh]
	 SCS Correlation Energy    =      -3.5562011326073621 [Eh]
	 SCS Total Energy          =    -889.8622821453393499 [Eh]
	-----------------------------------------------------------

  Dipole Moment: [D]
     X:     2.4840      Y:    -5.9543      Z:    -1.9519     Total:     6.7405

*** Psi4 exiting successfully. Buy a developer a beer!
