                               Psi4 1.3.2 release

  ==> Input File <==

--------------------------------------------------------------------------
#psi4
#
memory 32 gb

molecule  {
0 1
  O       -1.2481010    -0.6526680     1.0325150
  O       -1.2449750     2.4828510    -0.6861630
  O       -3.2165300     1.5210990     0.7448870
  O       -2.3570290    -3.0668370     0.0949400
  O        1.3605300     2.2470340    -0.0765420
  N        0.8434040     0.0452230     0.2559430
  N        3.0572260     0.7205030    -0.2937270
  N        4.7164630    -0.8366550    -0.5722980
  C       -1.2894840     1.0784300    -0.5920770
  C       -2.7151710     0.6552070    -0.2573930
  C       -0.5254080     0.4815200     0.6000940
  C       -2.5292560    -0.7168860     0.3610560
  C       -2.5283440    -1.8503930    -0.6392900
  C        1.2197750    -1.2614080     0.3112740
  C        1.7555940     1.0674350    -0.0594030
  C        2.5111010    -1.6091400     0.0469950
  C        3.4657263    -0.7432247    -0.2536527
  H       -0.9376060     0.5914040    -1.5148910
  H       -3.3625820     0.6426650    -1.1464650
  H       -0.4402900     1.2218800     1.4039980
  H       -3.2819570    -0.9087340     1.1307830
  H       -1.7133080    -1.7003050    -1.3694640
  H       -3.4855610    -1.8340040    -1.1841350
  H       -0.2975250     2.7131790    -0.5250000
  H       -2.8475560     2.3997430     0.5086630
  H        0.4343110    -1.9634370     0.5690680
  H       -2.4338740    -3.7984320    -0.5432330
  H        2.8291120    -2.6453980     0.0739220
  H        5.1251800    -1.6708610    -0.1624140
  H        5.3198140    -0.0200540    -0.5682940
units angstrom
no_reorient  #important for SAPT in psi4, default
symmetry c1  #important for SAPT in psi4, default
}

set PROPERTIES_ORIGIN ["COM"]
properties('MP2/aug-cc-pvtz', properties = ['dipole'])
--------------------------------------------------------------------------

    Molecular point group: c1
  Charge       = 0
  Multiplicity = 1
  Basis Set: AUG-CC-PVTZ
    Blend: AUG-CC-PVTZ
  Basis Set: (AUG-CC-PVTZ AUX)
    Blend: AUG-CC-PVTZ-JKFIT

    Orbital Energies [Eh]
    ---------------------

    Doubly Occupied:

       1A    -20.583380     2A    -20.581990     3A    -20.556746
       4A    -20.553592     5A    -20.503260     6A    -15.641088
       7A    -15.617320     8A    -15.540393     9A    -11.368007
      10A    -11.358388    11A    -11.345878    12A    -11.340808
      13A    -11.301868    14A    -11.297006    15A    -11.295380
      16A    -11.292233    17A    -11.245156    18A     -1.428113
      19A     -1.384047    20A     -1.378185    21A     -1.372446
      22A     -1.343514    23A     -1.311527    24A     -1.283350
      25A     -1.145812    26A     -1.091362    27A     -1.067291
      28A     -1.025700    29A     -0.946560    30A     -0.912912
      31A     -0.862684    32A     -0.833745    33A     -0.811249
      34A     -0.773121    35A     -0.756778    36A     -0.743925
      37A     -0.734221    38A     -0.705321    39A     -0.698337
      40A     -0.680293    41A     -0.674970    42A     -0.647808
      43A     -0.646552    44A     -0.636581    45A     -0.630021
      46A     -0.610284    47A     -0.606953    48A     -0.579076
      49A     -0.573875    50A     -0.570396    51A     -0.555446
      52A     -0.545395    53A     -0.536796    54A     -0.533778
      55A     -0.493705    56A     -0.477775    57A     -0.473238
      58A     -0.461317    59A     -0.451150    60A     -0.444885
      61A     -0.431896    62A     -0.413298    63A     -0.375584
      64A     -0.347360

  @DF-RHF Final Energy:  -886.32165827015569

   => Energetics <=

    Nuclear Repulsion Energy =           1321.9194148359274550
    One-Electron Energy =               -3841.6198976079040222
    Two-Electron Energy =                1633.3788245018208727
    Total Energy =                       -886.3216582701556945
  Basis Set: (AUG-CC-PVTZ AUX)
    Blend: AUG-CC-PVTZ-RI
    Molecular point group: c1

    Geometry (in Angstrom), charge = 0, multiplicity = 1:

       Center              X                  Y                   Z               Mass
    ------------   -----------------  -----------------  -----------------  -----------------
         O           -1.250754090353    -0.643161621917     1.032254738585    15.994914619570
         O           -1.247628090353     2.492357378083    -0.686423261415    15.994914619570
         O           -3.219183090353     1.530605378083     0.744626738585    15.994914619570
         O           -2.359682090353    -3.057330621917     0.094679738585    15.994914619570
         O            1.357876909647     2.256540378083    -0.076802261415    15.994914619570
         N            0.840750909647     0.054729378083     0.255682738585    14.003074004430
         N            3.054572909647     0.730009378083    -0.293987261415    14.003074004430
         N            4.713809909647    -0.827148621917    -0.572558261415    14.003074004430
         C           -1.292137090353     1.087936378083    -0.592337261415    12.000000000000
         C           -2.717824090353     0.664713378083    -0.257653261415    12.000000000000
         C           -0.528061090353     0.491026378083     0.599833738585    12.000000000000
         C           -2.531909090353    -0.707379621917     0.360795738585    12.000000000000
         C           -2.530997090353    -1.840886621917    -0.639550261415    12.000000000000
         C            1.217121909647    -1.251901621917     0.311013738585    12.000000000000
         C            1.752940909647     1.076941378083    -0.059663261415    12.000000000000
         C            2.508447909647    -1.599633621917     0.046734738585    12.000000000000
         C            3.463073209647    -0.733718321917    -0.253912961415    12.000000000000
         H           -0.940259090353     0.600910378083    -1.515151261415     1.007825032230
         H           -3.365235090353     0.652171378083    -1.146725261415     1.007825032230
         H           -0.442943090353     1.231386378083     1.403737738585     1.007825032230
         H           -3.284610090353    -0.899227621917     1.130522738585     1.007825032230
         H           -1.715961090353    -1.690798621917    -1.369724261415     1.007825032230
         H           -3.488214090353    -1.824497621917    -1.184395261415     1.007825032230
         H           -0.300178090353     2.722685378083    -0.525260261415     1.007825032230
         H           -2.850209090353     2.409249378083     0.508402738585     1.007825032230
         H            0.431657909647    -1.953930621917     0.568807738585     1.007825032230
         H           -2.436527090353    -3.788925621917    -0.543493261415     1.007825032230
         H            2.826458909647    -2.635891621917     0.073661738585     1.007825032230
         H            5.122526909647    -1.661354621917    -0.162674261415     1.007825032230
         H            5.317160909647    -0.010547621917    -0.568554261415     1.007825032230

  Basis Set: AUG-CC-PVTZ
    Blend: AUG-CC-PVTZ
  Basis Set: (AUG-CC-PVTZ AUX)
    Blend: AUG-CC-PVTZ-JKFIT
	 Reference Energy          =    -886.3216582701556945 [Eh]
	 Singles Energy            =      -0.0000000000000000 [Eh]
	 Same-Spin Energy          =      -0.9047064680445409 [Eh]
	 Opposite-Spin Energy      =      -2.7206325472917223 [Eh]
	 Correlation Energy        =      -3.6253390153362632 [Eh]
	 Total Energy              =    -889.9469972854919888 [Eh]

	 ================> DF-SCS-MP2 Energies <==================
	-----------------------------------------------------------
	 SCS Same-Spin Scale       =       0.3333333333333333 [-]
	 SCS Opposite-Spin Scale   =       1.2000000000000000 [-]
	 SCS Same-Spin Energy      =      -0.3015688226815136 [Eh]
	 SCS Opposite-Spin Energy  =      -3.2647590567500666 [Eh]
	 SCS Correlation Energy    =      -3.5663278794315803 [Eh]
	 SCS Total Energy          =    -889.8879861495872774 [Eh]
	-----------------------------------------------------------

  Dipole Moment: [D]
     X:     2.2063      Y:    -6.7692      Z:    -1.8789     Total:     7.3634

*** Psi4 exiting successfully. Buy a developer a beer!
