                               Psi4 1.3.2 release

  ==> Input File <==

--------------------------------------------------------------------------
#psi4
#
memory 32 gb

molecule  {
0 1
  O       -1.2481010    -0.6526680     1.0325150
  O       -1.2449750     2.4828510    -0.6861630
  O       -3.2165300     1.5210990     0.7448870
  O       -2.3570290    -3.0668370     0.0949400
  O        1.3605300     2.2470340    -0.0765420
  N        0.8434040     0.0452230     0.2559430
  N        3.0572260     0.7205030    -0.2937270
  N        4.7164630    -0.8366550    -0.5722980
  C       -1.2894840     1.0784300    -0.5920770
  C       -2.7151710     0.6552070    -0.2573930
  C       -0.5254080     0.4815200     0.6000940
  C       -2.3522855    -0.7080153     0.4538070
  C       -2.5283440    -1.8503930    -0.6392900
  C        1.2197750    -1.2614080     0.3112740
  C        1.7555940     1.0674350    -0.0594030
  C        2.5111010    -1.6091400     0.0469950
  C        3.4119830    -0.5506530    -0.2589250
  H       -0.9376060     0.5914040    -1.5148910
  H       -3.3625820     0.6426650    -1.1464650
  H       -0.4402900     1.2218800     1.4039980
  H       -3.2819570    -0.9087340     1.1307830
  H       -1.7133080    -1.7003050    -1.3694640
  H       -3.4855610    -1.8340040    -1.1841350
  H       -0.2975250     2.7131790    -0.5250000
  H       -2.8475560     2.3997430     0.5086630
  H        0.4343110    -1.9634370     0.5690680
  H       -2.4338740    -3.7984320    -0.5432330
  H        2.8291120    -2.6453980     0.0739220
  H        5.1251800    -1.6708610    -0.1624140
  H        5.3198140    -0.0200540    -0.5682940
units angstrom
no_reorient  #important for SAPT in psi4, default
symmetry c1  #important for SAPT in psi4, default
}

set PROPERTIES_ORIGIN ["COM"]
properties('MP2/aug-cc-pvtz', properties = ['dipole'])
--------------------------------------------------------------------------

    Molecular point group: c1
  Charge       = 0
  Multiplicity = 1
  Basis Set: AUG-CC-PVTZ
    Blend: AUG-CC-PVTZ
  Basis Set: (AUG-CC-PVTZ AUX)
    Blend: AUG-CC-PVTZ-JKFIT

    Orbital Energies [Eh]
    ---------------------

    Doubly Occupied:

       1A    -20.602383     2A    -20.573917     3A    -20.558256
       4A    -20.553830     5A    -20.526707     6A    -15.644087
       7A    -15.603475     8A    -15.557864     9A    -11.393575
      10A    -11.362324    11A    -11.355021    12A    -11.334488
      13A    -11.296995    14A    -11.296862    15A    -11.290612
      16A    -11.287877    17A    -11.253709    18A     -1.500613
      19A     -1.407361    20A     -1.381269    21A     -1.367412
      22A     -1.344422    23A     -1.312683    24A     -1.282602
      25A     -1.187641    26A     -1.090829    27A     -1.050427
      28A     -1.027387    29A     -0.930866    30A     -0.919200
      31A     -0.876289    32A     -0.836149    33A     -0.818868
      34A     -0.771235    35A     -0.764454    36A     -0.741597
      37A     -0.726230    38A     -0.705390    39A     -0.699499
      40A     -0.690909    41A     -0.673908    42A     -0.663920
      43A     -0.654369    44A     -0.645428    45A     -0.633070
      46A     -0.623905    47A     -0.616412    48A     -0.598501
      49A     -0.594383    50A     -0.567434    51A     -0.553582
      52A     -0.546605    53A     -0.537160    54A     -0.535276
      55A     -0.499016    56A     -0.472148    57A     -0.464604
      58A     -0.458667    59A     -0.448954    60A     -0.444006
      61A     -0.437041    62A     -0.415757    63A     -0.398486
      64A     -0.354959

  @DF-RHF Final Energy:  -886.33361178250334

   => Energetics <=

    Nuclear Repulsion Energy =           1327.0585862939462913
    One-Electron Energy =               -3851.2585783333747713
    Two-Electron Energy =                1637.8663802569249128
    Total Energy =                       -886.3336117825033398
  Basis Set: (AUG-CC-PVTZ AUX)
    Blend: AUG-CC-PVTZ-RI
    Molecular point group: c1

    Geometry (in Angstrom), charge = 0, multiplicity = 1:

       Center              X                  Y                   Z               Mass
    ------------   -----------------  -----------------  -----------------  -----------------
         O           -1.256837243297    -0.653105895006     1.027936322590    15.994914619570
         O           -1.253711243297     2.482413104994    -0.690741677410    15.994914619570
         O           -3.225266243297     1.520661104994     0.740308322590    15.994914619570
         O           -2.365765243297    -3.067274895006     0.090361322590    15.994914619570
         O            1.351793756703     2.246596104994    -0.081120677410    15.994914619570
         N            0.834667756703     0.044785104994     0.251364322590    14.003074004430
         N            3.048489756703     0.720065104994    -0.298305677410    14.003074004430
         N            4.707726756703    -0.837092895006    -0.576876677410    14.003074004430
         C           -1.298220243297     1.077992104994    -0.596655677410    12.000000000000
         C           -2.723907243297     0.654769104994    -0.261971677410    12.000000000000
         C           -0.534144243297     0.481082104994     0.595515322590    12.000000000000
         C           -2.361021743297    -0.708453195006     0.449228322590    12.000000000000
         C           -2.537080243297    -1.850830895006    -0.643868677410    12.000000000000
         C            1.211038756703    -1.261845895006     0.306695322590    12.000000000000
         C            1.746857756703     1.066997104994    -0.063981677410    12.000000000000
         C            2.502364756703    -1.609577895006     0.042416322590    12.000000000000
         C            3.403246756703    -0.551090895006    -0.263503677410    12.000000000000
         H           -0.946342243297     0.590966104994    -1.519469677410     1.007825032230
         H           -3.371318243297     0.642227104994    -1.151043677410     1.007825032230
         H           -0.449026243297     1.221442104994     1.399419322590     1.007825032230
         H           -3.290693243297    -0.909171895006     1.126204322590     1.007825032230
         H           -1.722044243297    -1.700742895006    -1.374042677410     1.007825032230
         H           -3.494297243297    -1.834441895006    -1.188713677410     1.007825032230
         H           -0.306261243297     2.712741104994    -0.529578677410     1.007825032230
         H           -2.856292243297     2.399305104994     0.504084322590     1.007825032230
         H            0.425574756703    -1.963874895006     0.564489322590     1.007825032230
         H           -2.442610243297    -3.798869895006    -0.547811677410     1.007825032230
         H            2.820375756703    -2.645835895006     0.069343322590     1.007825032230
         H            5.116443756703    -1.671298895006    -0.166992677410     1.007825032230
         H            5.311077756703    -0.020491895006    -0.572872677410     1.007825032230

  Basis Set: AUG-CC-PVTZ
    Blend: AUG-CC-PVTZ
  Basis Set: (AUG-CC-PVTZ AUX)
    Blend: AUG-CC-PVTZ-JKFIT
	 Reference Energy          =    -886.3336117825033398 [Eh]
	 Singles Energy            =      -0.0000000000000000 [Eh]
	 Same-Spin Energy          =      -0.9022017322898497 [Eh]
	 Opposite-Spin Energy      =      -2.7150537770855641 [Eh]
	 Correlation Energy        =      -3.6172555093754140 [Eh]
	 Total Energy              =    -889.9508672918788079 [Eh]

	 ================> DF-SCS-MP2 Energies <==================
	-----------------------------------------------------------
	 SCS Same-Spin Scale       =       0.3333333333333333 [-]
	 SCS Opposite-Spin Scale   =       1.2000000000000000 [-]
	 SCS Same-Spin Energy      =      -0.3007339107632832 [Eh]
	 SCS Opposite-Spin Energy  =      -3.2580645325026767 [Eh]
	 SCS Correlation Energy    =      -3.5587984432659598 [Eh]
	 SCS Total Energy          =    -889.8924102257692539 [Eh]
	-----------------------------------------------------------

  Dipole Moment: [D]
     X:     2.6340      Y:    -5.6520      Z:    -1.5737     Total:     6.4312

*** Psi4 exiting successfully. Buy a developer a beer!
