                               Psi4 1.3.2 release

  ==> Input File <==

--------------------------------------------------------------------------
#psi4
#
memory 32 gb

molecule  {
0 1
  O       -1.2481010    -0.6526680     1.0325150
  O       -1.2449750     2.4828510    -0.6861630
  O       -3.2165300     1.5210990     0.7448870
  O       -2.3570290    -3.0668370     0.0949400
  O        1.3605300     2.2470340    -0.0765420
  N        0.8434040     0.0452230     0.2559430
  N        3.0572260     0.7205030    -0.2937270
  N        4.7164630    -0.8366550    -0.5722980
  C       -1.2894840     1.0784300    -0.5920770
  C       -2.7151710     0.6552070    -0.2573930
  C       -0.5254080     0.4815200     0.6000940
  C       -2.5292560    -0.7168860     0.3610560
  C       -2.5283440    -1.8503930    -0.6392900
  C        1.2086477    -1.2644392     0.3141081
  C        1.7466182     1.0757212    -0.0582683
  C        2.5111010    -1.6091400     0.0469950
  C        3.4119830    -0.5506530    -0.2589250
  H       -0.9376060     0.5914040    -1.5148910
  H       -3.3625820     0.6426650    -1.1464650
  H       -0.4402900     1.2218800     1.4039980
  H       -3.2819570    -0.9087340     1.1307830
  H       -1.7133080    -1.7003050    -1.3694640
  H       -3.4855610    -1.8340040    -1.1841350
  H       -0.2975250     2.7131790    -0.5250000
  H       -2.8475560     2.3997430     0.5086630
  H        0.4343110    -1.9634370     0.5690680
  H       -2.4338740    -3.7984320    -0.5432330
  H        2.8291120    -2.6453980     0.0739220
  H        5.1251800    -1.6708610    -0.1624140
  H        5.3198140    -0.0200540    -0.5682940
units angstrom
no_reorient  #important for SAPT in psi4, default
symmetry c1  #important for SAPT in psi4, default
}

set PROPERTIES_ORIGIN ["COM"]
properties('MP2/aug-cc-pvtz', properties = ['dipole'])
--------------------------------------------------------------------------

    Molecular point group: c1
  Charge       = 0
  Multiplicity = 1
  Basis Set: AUG-CC-PVTZ
    Blend: AUG-CC-PVTZ
  Basis Set: (AUG-CC-PVTZ AUX)
    Blend: AUG-CC-PVTZ-JKFIT

    Orbital Energies [Eh]
    ---------------------

    Doubly Occupied:

       1A    -20.582420     2A    -20.581822     3A    -20.558251
       4A    -20.558197     5A    -20.525328     6A    -15.637002
       7A    -15.598304     8A    -15.552208     9A    -11.389055
      10A    -11.355990    11A    -11.341492    12A    -11.329085
      13A    -11.301399    14A    -11.297203    15A    -11.297138
      16A    -11.293355    17A    -11.248591    18A     -1.430384
      19A     -1.400876    20A     -1.380676    21A     -1.373230
      22A     -1.347046    23A     -1.306994    24A     -1.273419
      25A     -1.178953    26A     -1.079582    27A     -1.068082
      28A     -1.021082    29A     -0.935196    30A     -0.910857
      31A     -0.875711    32A     -0.831654    33A     -0.812063
      34A     -0.765360    35A     -0.752799    36A     -0.736823
      37A     -0.720336    38A     -0.703268    39A     -0.698852
      40A     -0.686335    41A     -0.673098    42A     -0.655084
      43A     -0.652543    44A     -0.638268    45A     -0.620838
      46A     -0.615848    47A     -0.606852    48A     -0.594563
      49A     -0.576091    50A     -0.569749    51A     -0.554221
      52A     -0.545825    53A     -0.538551    54A     -0.532624
      55A     -0.499302    56A     -0.477799    57A     -0.474915
      58A     -0.464240    59A     -0.461069    60A     -0.453420
      61A     -0.440519    62A     -0.431624    63A     -0.394114
      64A     -0.348221

  @DF-RHF Final Energy:  -886.37292782592374

   => Energetics <=

    Nuclear Repulsion Energy =           1323.6914180010401196
    One-Electron Energy =               -3845.0171045098072682
    Two-Electron Energy =                1634.9527586828430685
    Total Energy =                       -886.3729278259238527
  Basis Set: (AUG-CC-PVTZ AUX)
    Blend: AUG-CC-PVTZ-RI
    Molecular point group: c1

    Geometry (in Angstrom), charge = 0, multiplicity = 1:

       Center              X                  Y                   Z               Mass
    ------------   -----------------  -----------------  -----------------  -----------------
         O           -1.247108637518    -0.652927404737     1.032319086309    15.994914619570
         O           -1.243982637518     2.482591595263    -0.686358913691    15.994914619570
         O           -3.215537637518     1.520839595263     0.744691086309    15.994914619570
         O           -2.356036637518    -3.067096404737     0.094744086309    15.994914619570
         O            1.361522362482     2.246774595263    -0.076737913691    15.994914619570
         N            0.844396362482     0.044963595263     0.255747086309    14.003074004430
         N            3.058218362482     0.720243595263    -0.293922913691    14.003074004430
         N            4.717455362482    -0.836914404737    -0.572493913691    14.003074004430
         C           -1.288491637518     1.078170595263    -0.592272913691    12.000000000000
         C           -2.714178637518     0.654947595263    -0.257588913691    12.000000000000
         C           -0.524415637518     0.481260595263     0.599898086309    12.000000000000
         C           -2.528263637518    -0.717145404737     0.360860086309    12.000000000000
         C           -2.527351637518    -1.850652404737    -0.639485913691    12.000000000000
         C            1.209640062482    -1.264698604737     0.313912186309    12.000000000000
         C            1.747610562482     1.075461795263    -0.058464213691    12.000000000000
         C            2.512093362482    -1.609399404737     0.046799086309    12.000000000000
         C            3.412975362482    -0.550912404737    -0.259120913691    12.000000000000
         H           -0.936613637518     0.591144595263    -1.515086913691     1.007825032230
         H           -3.361589637518     0.642405595263    -1.146660913691     1.007825032230
         H           -0.439297637518     1.221620595263     1.403802086309     1.007825032230
         H           -3.280964637518    -0.908993404737     1.130587086309     1.007825032230
         H           -1.712315637518    -1.700564404737    -1.369659913691     1.007825032230
         H           -3.484568637518    -1.834263404737    -1.184330913691     1.007825032230
         H           -0.296532637518     2.712919595263    -0.525195913691     1.007825032230
         H           -2.846563637518     2.399483595263     0.508467086309     1.007825032230
         H            0.435303362482    -1.963696404737     0.568872086309     1.007825032230
         H           -2.432881637518    -3.798691404737    -0.543428913691     1.007825032230
         H            2.830104362482    -2.645657404737     0.073726086309     1.007825032230
         H            5.126172362482    -1.671120404737    -0.162609913691     1.007825032230
         H            5.320806362482    -0.020313404737    -0.568489913691     1.007825032230

  Basis Set: AUG-CC-PVTZ
    Blend: AUG-CC-PVTZ
  Basis Set: (AUG-CC-PVTZ AUX)
    Blend: AUG-CC-PVTZ-JKFIT
	 Reference Energy          =    -886.3729278259237390 [Eh]
	 Singles Energy            =      -0.0000000000000000 [Eh]
	 Same-Spin Energy          =      -0.9012052044132906 [Eh]
	 Opposite-Spin Energy      =      -2.7150260084628526 [Eh]
	 Correlation Energy        =      -3.6162312128761434 [Eh]
	 Total Energy              =    -889.9891590387999258 [Eh]

	 ================> DF-SCS-MP2 Energies <==================
	-----------------------------------------------------------
	 SCS Same-Spin Scale       =       0.3333333333333333 [-]
	 SCS Opposite-Spin Scale   =       1.2000000000000000 [-]
	 SCS Same-Spin Energy      =      -0.3004017348044302 [Eh]
	 SCS Opposite-Spin Energy  =      -3.2580312101554232 [Eh]
	 SCS Correlation Energy    =      -3.5584329449598533 [Eh]
	 SCS Total Energy          =    -889.9313607708835434 [Eh]
	-----------------------------------------------------------

  Dipole Moment: [D]
     X:     1.6132      Y:    -5.8454      Z:    -1.8153     Total:     6.3298

*** Psi4 exiting successfully. Buy a developer a beer!
