                               Psi4 1.3.2 release

  ==> Input File <==

--------------------------------------------------------------------------
#psi4
#
memory 32 gb

molecule  {
0 1
  O       -1.2481010    -0.6526680     1.0325150
  O       -1.2449750     2.4828510    -0.6861630
  O       -3.2165300     1.5210990     0.7448870
  O       -2.3570290    -3.0668370     0.0949400
  O        1.3605300     2.2470340    -0.0765420
  N        0.8434040     0.0452230     0.2559430
  N        3.0572260     0.7205030    -0.2937270
  N        4.7164630    -0.8366550    -0.5722980
  C       -1.2894840     1.0784300    -0.5920770
  C       -2.7151710     0.6552070    -0.2573930
  C       -0.5254080     0.4815200     0.6000940
  C       -2.5292560    -0.7168860     0.3610560
  C       -2.5283440    -1.8503930    -0.6392900
  C        1.2197750    -1.2614080     0.3112740
  C        1.7675443     1.1132144    -0.0656604
  C        2.5111010    -1.6091400     0.0469950
  C        3.4552015    -0.5380247    -0.2687303
  H       -0.9376060     0.5914040    -1.5148910
  H       -3.3625820     0.6426650    -1.1464650
  H       -0.4402900     1.2218800     1.4039980
  H       -3.2819570    -0.9087340     1.1307830
  H       -1.7133080    -1.7003050    -1.3694640
  H       -3.4855610    -1.8340040    -1.1841350
  H       -0.2975250     2.7131790    -0.5250000
  H       -2.8475560     2.3997430     0.5086630
  H        0.4343110    -1.9634370     0.5690680
  H       -2.4338740    -3.7984320    -0.5432330
  H        2.8291120    -2.6453980     0.0739220
  H        5.1251800    -1.6708610    -0.1624140
  H        5.3198140    -0.0200540    -0.5682940
units angstrom
no_reorient  #important for SAPT in psi4, default
symmetry c1  #important for SAPT in psi4, default
}

set PROPERTIES_ORIGIN ["COM"]
properties('MP2/aug-cc-pvtz', properties = ['dipole'])
--------------------------------------------------------------------------

    Molecular point group: c1
  Charge       = 0
  Multiplicity = 1
  Basis Set: AUG-CC-PVTZ
    Blend: AUG-CC-PVTZ
  Basis Set: (AUG-CC-PVTZ AUX)
    Blend: AUG-CC-PVTZ-JKFIT

    Orbital Energies [Eh]
    ---------------------

    Doubly Occupied:

       1A    -20.580060     2A    -20.577959     3A    -20.558358
       4A    -20.556580     5A    -20.532234     6A    -15.625529
       7A    -15.605635     8A    -15.547134     9A    -11.390469
      10A    -11.359025    11A    -11.336791    12A    -11.320497
      13A    -11.298936    14A    -11.294563    15A    -11.294492
      16A    -11.291215    17A    -11.243604    18A     -1.429920
      19A     -1.410758    20A     -1.379157    21A     -1.370940
      22A     -1.346381    23A     -1.312613    24A     -1.273289
      25A     -1.184601    26A     -1.071332    27A     -1.065386
      28A     -1.015117    29A     -0.931482    30A     -0.895288
      31A     -0.878882    32A     -0.830102    33A     -0.809528
      34A     -0.766184    35A     -0.748181    36A     -0.734837
      37A     -0.728050    38A     -0.702340    39A     -0.696854
      40A     -0.687172    41A     -0.672295    42A     -0.660412
      43A     -0.649566    44A     -0.634015    45A     -0.617505
      46A     -0.614002    47A     -0.605200    48A     -0.595297
      49A     -0.573903    50A     -0.568758    51A     -0.553325
      52A     -0.548262    53A     -0.541421    54A     -0.532012
      55A     -0.500912    56A     -0.475858    57A     -0.473515
      58A     -0.468738    59A     -0.457923    60A     -0.451777
      61A     -0.438181    62A     -0.421144    63A     -0.394800
      64A     -0.342421

  @DF-RHF Final Energy:  -886.37024503897112

   => Energetics <=

    Nuclear Repulsion Energy =           1322.7609890441683547
    One-Electron Energy =               -3843.3170339584789872
    Two-Electron Energy =                1634.1857998753393986
    Total Energy =                       -886.3702450389710066
  Basis Set: (AUG-CC-PVTZ AUX)
    Blend: AUG-CC-PVTZ-RI
    Molecular point group: c1

    Geometry (in Angstrom), charge = 0, multiplicity = 1:

       Center              X                  Y                   Z               Mass
    ------------   -----------------  -----------------  -----------------  -----------------
         O           -1.250824460649    -0.655551305982     1.033307948169    15.994914619570
         O           -1.247698460649     2.479967694018    -0.685370051831    15.994914619570
         O           -3.219253460649     1.518215694018     0.745679948169    15.994914619570
         O           -2.359752460649    -3.069720305982     0.095732948169    15.994914619570
         O            1.357806539351     2.244150694018    -0.075749051831    15.994914619570
         N            0.840680539351     0.042339694018     0.256735948169    14.003074004430
         N            3.054502539351     0.717619694018    -0.292934051831    14.003074004430
         N            4.713739539351    -0.839538305982    -0.571505051831    14.003074004430
         C           -1.292207460649     1.075546694018    -0.591284051831    12.000000000000
         C           -2.717894460649     0.652323694018    -0.256600051831    12.000000000000
         C           -0.528131460649     0.478636694018     0.600886948169    12.000000000000
         C           -2.531979460649    -0.719769305982     0.361848948169    12.000000000000
         C           -2.531067460649    -1.853276305982    -0.638497051831    12.000000000000
         C            1.217051539351    -1.264291305982     0.312066948169    12.000000000000
         C            1.764820839351     1.110331094018    -0.064867451831    12.000000000000
         C            2.508377539351    -1.612023305982     0.047787948169    12.000000000000
         C            3.452478039351    -0.540908005982    -0.267937351831    12.000000000000
         H           -0.940329460649     0.588520694018    -1.514098051831     1.007825032230
         H           -3.365305460649     0.639781694018    -1.145672051831     1.007825032230
         H           -0.443013460649     1.218996694018     1.404790948169     1.007825032230
         H           -3.284680460649    -0.911617305982     1.131575948169     1.007825032230
         H           -1.716031460649    -1.703188305982    -1.368671051831     1.007825032230
         H           -3.488284460649    -1.836887305982    -1.183342051831     1.007825032230
         H           -0.300248460649     2.710295694018    -0.524207051831     1.007825032230
         H           -2.850279460649     2.396859694018     0.509455948169     1.007825032230
         H            0.431587539351    -1.966320305982     0.569860948169     1.007825032230
         H           -2.436597460649    -3.801315305982    -0.542440051831     1.007825032230
         H            2.826388539351    -2.648281305982     0.074714948169     1.007825032230
         H            5.122456539351    -1.673744305982    -0.161621051831     1.007825032230
         H            5.317090539351    -0.022937305982    -0.567501051831     1.007825032230

  Basis Set: AUG-CC-PVTZ
    Blend: AUG-CC-PVTZ
  Basis Set: (AUG-CC-PVTZ AUX)
    Blend: AUG-CC-PVTZ-JKFIT
	 Reference Energy          =    -886.3702450389711203 [Eh]
	 Singles Energy            =      -0.0000000000000000 [Eh]
	 Same-Spin Energy          =      -0.9004187038072625 [Eh]
	 Opposite-Spin Energy      =      -2.7136116723490424 [Eh]
	 Correlation Energy        =      -3.6140303761563048 [Eh]
	 Total Energy              =    -889.9842754151273994 [Eh]

	 ================> DF-SCS-MP2 Energies <==================
	-----------------------------------------------------------
	 SCS Same-Spin Scale       =       0.3333333333333333 [-]
	 SCS Opposite-Spin Scale   =       1.2000000000000000 [-]
	 SCS Same-Spin Energy      =      -0.3001395679357541 [Eh]
	 SCS Opposite-Spin Energy  =      -3.2563340068188507 [Eh]
	 SCS Correlation Energy    =      -3.5564735747546048 [Eh]
	 SCS Total Energy          =    -889.9267186137257113 [Eh]
	-----------------------------------------------------------

  Dipole Moment: [D]
     X:     2.1218      Y:    -5.5505      Z:    -1.9481     Total:     6.2534

*** Psi4 exiting successfully. Buy a developer a beer!
