                               Psi4 1.3.2 release

  ==> Input File <==

--------------------------------------------------------------------------
#psi4
#
memory 32 gb

molecule  {
0 1
  O       -1.2481010    -0.6526680     1.0325150
  O       -1.2186884     2.4754944    -0.7546524
  O       -3.2165300     1.5210990     0.7448870
  O       -2.3570290    -3.0668370     0.0949400
  O        1.3605300     2.2470340    -0.0765420
  N        0.8434040     0.0452230     0.2559430
  N        3.0572260     0.7205030    -0.2937270
  N        4.7164630    -0.8366550    -0.5722980
  C       -1.2894840     1.0784300    -0.5920770
  C       -2.7151710     0.6552070    -0.2573930
  C       -0.5254080     0.4815200     0.6000940
  C       -2.5292560    -0.7168860     0.3610560
  C       -2.5283440    -1.8503930    -0.6392900
  C        1.2197750    -1.2614080     0.3112740
  C        1.7555940     1.0674350    -0.0594030
  C        2.5111010    -1.6091400     0.0469950
  C        3.4119830    -0.5506530    -0.2589250
  H       -0.9286743     0.6437588    -1.5373153
  H       -3.3625820     0.6426650    -1.1464650
  H       -0.4402900     1.2218800     1.4039980
  H       -3.2819570    -0.9087340     1.1307830
  H       -1.7133080    -1.7003050    -1.3694640
  H       -3.4855610    -1.8340040    -1.1841350
  H       -0.2975250     2.7131790    -0.5250000
  H       -2.8475560     2.3997430     0.5086630
  H        0.4343110    -1.9634370     0.5690680
  H       -2.4338740    -3.7984320    -0.5432330
  H        2.8291120    -2.6453980     0.0739220
  H        5.1251800    -1.6708610    -0.1624140
  H        5.3198140    -0.0200540    -0.5682940
units angstrom
no_reorient  #important for SAPT in psi4, default
symmetry c1  #important for SAPT in psi4, default
}

set PROPERTIES_ORIGIN ["COM"]
properties('MP2/aug-cc-pvtz', properties = ['dipole'])
--------------------------------------------------------------------------

    Molecular point group: c1
  Charge       = 0
  Multiplicity = 1
  Basis Set: AUG-CC-PVTZ
    Blend: AUG-CC-PVTZ
  Basis Set: (AUG-CC-PVTZ AUX)
    Blend: AUG-CC-PVTZ-JKFIT

    Orbital Energies [Eh]
    ---------------------

    Doubly Occupied:

       1A    -20.582697     2A    -20.582378     3A    -20.560591
       4A    -20.553896     5A    -20.521406     6A    -15.637025
       7A    -15.599698     8A    -15.553098     9A    -11.387926
      10A    -11.357681    11A    -11.343385    12A    -11.328512
      13A    -11.301286    14A    -11.297804    15A    -11.295965
      16A    -11.294257    17A    -11.248456    18A     -1.429834
      19A     -1.396330    20A     -1.379905    21A     -1.372984
      22A     -1.348655    23A     -1.305830    24A     -1.273758
      25A     -1.182080    26A     -1.081971    27A     -1.068040
      28A     -1.021445    29A     -0.935754    30A     -0.909438
      31A     -0.877446    32A     -0.833386    33A     -0.812312
      34A     -0.767012    35A     -0.753515    36A     -0.733900
      37A     -0.720236    38A     -0.704187    39A     -0.699528
      40A     -0.685699    41A     -0.672633    42A     -0.654237
      43A     -0.652800    44A     -0.638650    45A     -0.621727
      46A     -0.614002    47A     -0.606375    48A     -0.593366
      49A     -0.576435    50A     -0.571068    51A     -0.553443
      52A     -0.546323    53A     -0.537845    54A     -0.532198
      55A     -0.498917    56A     -0.478486    57A     -0.473060
      58A     -0.463297    59A     -0.460014    60A     -0.450370
      61A     -0.441758    62A     -0.432999    63A     -0.395127
      64A     -0.349786

  @DF-RHF Final Energy:  -886.37303512205744

   => Energetics <=

    Nuclear Repulsion Energy =           1323.1688584703001652
    One-Electron Energy =               -3843.9753426799443332
    Two-Electron Energy =                1634.4334490875867232
    Total Energy =                       -886.3730351220574448
  Basis Set: (AUG-CC-PVTZ AUX)
    Blend: AUG-CC-PVTZ-RI
    Molecular point group: c1

    Geometry (in Angstrom), charge = 0, multiplicity = 1:

       Center              X                  Y                   Z               Mass
    ------------   -----------------  -----------------  -----------------  -----------------
         O           -1.249867710588    -0.652400990368     1.037114548719    15.994914619570
         O           -1.220455110588     2.475761409632    -0.750052851281    15.994914619570
         O           -3.218296710588     1.521366009632     0.749486548719    15.994914619570
         O           -2.358795710588    -3.066569990368     0.099539548719    15.994914619570
         O            1.358763289412     2.247301009632    -0.071942451281    15.994914619570
         N            0.841637289412     0.045490009632     0.260542548719    14.003074004430
         N            3.055459289412     0.720770009632    -0.289127451281    14.003074004430
         N            4.714696289412    -0.836387990368    -0.567698451281    14.003074004430
         C           -1.291250710588     1.078697009632    -0.587477451281    12.000000000000
         C           -2.716937710588     0.655474009632    -0.252793451281    12.000000000000
         C           -0.527174710588     0.481787009632     0.604693548719    12.000000000000
         C           -2.531022710588    -0.716618990368     0.365655548719    12.000000000000
         C           -2.530110710588    -1.850125990368    -0.634690451281    12.000000000000
         C            1.218008289412    -1.261140990368     0.315873548719    12.000000000000
         C            1.753827289412     1.067702009632    -0.054803451281    12.000000000000
         C            2.509334289412    -1.608872990368     0.051594548719    12.000000000000
         C            3.410216289412    -0.550385990368    -0.254325451281    12.000000000000
         H           -0.930441010588     0.644025809632    -1.532715751281     1.007825032230
         H           -3.364348710588     0.642932009632    -1.141865451281     1.007825032230
         H           -0.442056710588     1.222147009632     1.408597548719     1.007825032230
         H           -3.283723710588    -0.908466990368     1.135382548719     1.007825032230
         H           -1.715074710588    -1.700037990368    -1.364864451281     1.007825032230
         H           -3.487327710588    -1.833736990368    -1.179535451281     1.007825032230
         H           -0.299291710588     2.713446009632    -0.520400451281     1.007825032230
         H           -2.849322710588     2.400010009632     0.513262548719     1.007825032230
         H            0.432544289412    -1.963169990368     0.573667548719     1.007825032230
         H           -2.435640710588    -3.798164990368    -0.538633451281     1.007825032230
         H            2.827345289412    -2.645130990368     0.078521548719     1.007825032230
         H            5.123413289412    -1.670593990368    -0.157814451281     1.007825032230
         H            5.318047289412    -0.019786990368    -0.563694451281     1.007825032230

  Basis Set: AUG-CC-PVTZ
    Blend: AUG-CC-PVTZ
  Basis Set: (AUG-CC-PVTZ AUX)
    Blend: AUG-CC-PVTZ-JKFIT
	 Reference Energy          =    -886.3730351220574448 [Eh]
	 Singles Energy            =      -0.0000000000000000 [Eh]
	 Same-Spin Energy          =      -0.9008420774815704 [Eh]
	 Opposite-Spin Energy      =      -2.7144796220026386 [Eh]
	 Correlation Energy        =      -3.6153216994842090 [Eh]
	 Total Energy              =    -889.9883568215416290 [Eh]

	 ================> DF-SCS-MP2 Energies <==================
	-----------------------------------------------------------
	 SCS Same-Spin Scale       =       0.3333333333333333 [-]
	 SCS Opposite-Spin Scale   =       1.2000000000000000 [-]
	 SCS Same-Spin Energy      =      -0.3002806924938568 [Eh]
	 SCS Opposite-Spin Energy  =      -3.2573755464031664 [Eh]
	 SCS Correlation Energy    =      -3.5576562388970232 [Eh]
	 SCS Total Energy          =    -889.9306913609544836 [Eh]
	-----------------------------------------------------------

  Dipole Moment: [D]
     X:     1.6302      Y:    -5.9605      Z:    -1.6863     Total:     6.4054

*** Psi4 exiting successfully. Buy a developer a beer!
