                               Psi4 1.3.2 release

  ==> Input File <==

--------------------------------------------------------------------------
#psi4
#
memory 32 gb

molecule  {
0 1
  O       -1.2481010    -0.6526680     1.0325150
  O       -1.2449750     2.4828510    -0.6861630
  O       -3.2165300     1.5210990     0.7448870
  O       -2.3570290    -3.0668370     0.0949400
  O        1.3605300     2.2470340    -0.0765420
  N        0.8434040     0.0452230     0.2559430
  N        3.0572260     0.7205030    -0.2937270
  N        4.7164630    -0.8366550    -0.5722980
  C       -1.2894840     1.0784300    -0.5920770
  C       -2.7151710     0.6552070    -0.2573930
  C       -0.5254080     0.4815200     0.6000940
  C       -2.5292560    -0.7168860     0.3610560
  C       -2.5282837    -1.9253704    -0.7054593
  C        1.2197750    -1.2614080     0.3112740
  C        1.7555940     1.0674350    -0.0594030
  C        2.5111010    -1.6091400     0.0469950
  C        3.4119830    -0.5506530    -0.2589250
  H       -0.9376060     0.5914040    -1.5148910
  H       -3.3625820     0.6426650    -1.1464650
  H       -0.4402900     1.2218800     1.4039980
  H       -3.2819570    -0.9087340     1.1307830
  H       -1.7133080    -1.7003050    -1.3694640
  H       -3.4855610    -1.8340040    -1.1841350
  H       -0.2975250     2.7131790    -0.5250000
  H       -2.8475560     2.3997430     0.5086630
  H        0.4343110    -1.9634370     0.5690680
  H       -2.4338740    -3.7984320    -0.5432330
  H        2.8291120    -2.6453980     0.0739220
  H        5.1251800    -1.6708610    -0.1624140
  H        5.3198140    -0.0200540    -0.5682940
units angstrom
no_reorient  #important for SAPT in psi4, default
symmetry c1  #important for SAPT in psi4, default
}

set PROPERTIES_ORIGIN ["COM"]
properties('MP2/aug-cc-pvtz', properties = ['dipole'])
--------------------------------------------------------------------------

    Molecular point group: c1
  Charge       = 0
  Multiplicity = 1
  Basis Set: AUG-CC-PVTZ
    Blend: AUG-CC-PVTZ
  Basis Set: (AUG-CC-PVTZ AUX)
    Blend: AUG-CC-PVTZ-JKFIT

    Orbital Energies [Eh]
    ---------------------

    Doubly Occupied:

       1A    -20.587857     2A    -20.580849     3A    -20.556388
       4A    -20.556196     5A    -20.521692     6A    -15.636618
       7A    -15.599771     8A    -15.553205     9A    -11.387996
      10A    -11.357747    11A    -11.340709    12A    -11.328495
      13A    -11.299262    14A    -11.298146    15A    -11.295646
      16A    -11.290478    17A    -11.248527    18A     -1.427740
      19A     -1.396895    20A     -1.387719    21A     -1.376065
      22A     -1.345054    23A     -1.305816    24A     -1.273439
      25A     -1.182028    26A     -1.081428    27A     -1.057163
      28A     -1.015163    29A     -0.934077    30A     -0.909871
      31A     -0.878028    32A     -0.831173    33A     -0.810272
      34A     -0.766637    35A     -0.751975    36A     -0.735058
      37A     -0.720804    38A     -0.705202    39A     -0.696185
      40A     -0.685883    41A     -0.672575    42A     -0.658162
      43A     -0.651496    44A     -0.638026    45A     -0.622842
      46A     -0.613445    47A     -0.605722    48A     -0.594326
      49A     -0.579921    50A     -0.571431    51A     -0.557193
      52A     -0.541536    53A     -0.536692    54A     -0.525833
      55A     -0.497576    56A     -0.484654    57A     -0.472983
      58A     -0.459923    59A     -0.454038    60A     -0.451554
      61A     -0.436947    62A     -0.429067    63A     -0.394817
      64A     -0.349789

  @DF-RHF Final Energy:  -886.36466023428034

   => Energetics <=

    Nuclear Repulsion Energy =           1321.9890867873841671
    One-Electron Energy =               -3841.6798773097189041
    Two-Electron Energy =                1633.3261302880544008
    Total Energy =                       -886.3646602342803362
  Basis Set: (AUG-CC-PVTZ AUX)
    Blend: AUG-CC-PVTZ-RI
    Molecular point group: c1

    Geometry (in Angstrom), charge = 0, multiplicity = 1:

       Center              X                  Y                   Z               Mass
    ------------   -----------------  -----------------  -----------------  -----------------
         O           -1.248104010666    -0.648966704824     1.035781477644    15.994914619570
         O           -1.244978010666     2.486552295176    -0.682896522356    15.994914619570
         O           -3.216533010666     1.524800295176     0.748153477644    15.994914619570
         O           -2.357032010666    -3.063135704824     0.098206477644    15.994914619570
         O            1.360526989334     2.250735295176    -0.073275522356    15.994914619570
         N            0.843400989334     0.048924295176     0.259209477644    14.003074004430
         N            3.057222989334     0.724204295176    -0.290460522356    14.003074004430
         N            4.716459989334    -0.832953704824    -0.569031522356    14.003074004430
         C           -1.289487010666     1.082131295176    -0.588810522356    12.000000000000
         C           -2.715174010666     0.658908295176    -0.254126522356    12.000000000000
         C           -0.525411010666     0.485221295176     0.603360477644    12.000000000000
         C           -2.529259010666    -0.713184704824     0.364322477644    12.000000000000
         C           -2.528286710666    -1.921669104824    -0.702192822356    12.000000000000
         C            1.219771989334    -1.257706704824     0.314540477644    12.000000000000
         C            1.755590989334     1.071136295176    -0.056136522356    12.000000000000
         C            2.511097989334    -1.605438704824     0.050261477644    12.000000000000
         C            3.411979989334    -0.546951704824    -0.255658522356    12.000000000000
         H           -0.937609010666     0.595105295176    -1.511624522356     1.007825032230
         H           -3.362585010666     0.646366295176    -1.143198522356     1.007825032230
         H           -0.440293010666     1.225581295176     1.407264477644     1.007825032230
         H           -3.281960010666    -0.905032704824     1.134049477644     1.007825032230
         H           -1.713311010666    -1.696603704824    -1.366197522356     1.007825032230
         H           -3.485564010666    -1.830302704824    -1.180868522356     1.007825032230
         H           -0.297528010666     2.716880295176    -0.521733522356     1.007825032230
         H           -2.847559010666     2.403444295176     0.511929477644     1.007825032230
         H            0.434307989334    -1.959735704824     0.572334477644     1.007825032230
         H           -2.433877010666    -3.794730704824    -0.539966522356     1.007825032230
         H            2.829108989334    -2.641696704824     0.077188477644     1.007825032230
         H            5.125176989334    -1.667159704824    -0.159147522356     1.007825032230
         H            5.319810989334    -0.016352704824    -0.565027522356     1.007825032230

  Basis Set: AUG-CC-PVTZ
    Blend: AUG-CC-PVTZ
  Basis Set: (AUG-CC-PVTZ AUX)
    Blend: AUG-CC-PVTZ-JKFIT
	 Reference Energy          =    -886.3646602342803362 [Eh]
	 Singles Energy            =      -0.0000000000000000 [Eh]
	 Same-Spin Energy          =      -0.9013182331775307 [Eh]
	 Opposite-Spin Energy      =      -2.7154192845881213 [Eh]
	 Correlation Energy        =      -3.6167375177656522 [Eh]
	 Total Energy              =    -889.9813977520459503 [Eh]

	 ================> DF-SCS-MP2 Energies <==================
	-----------------------------------------------------------
	 SCS Same-Spin Scale       =       0.3333333333333333 [-]
	 SCS Opposite-Spin Scale   =       1.2000000000000000 [-]
	 SCS Same-Spin Energy      =      -0.3004394110591769 [Eh]
	 SCS Opposite-Spin Energy  =      -3.2585031415057455 [Eh]
	 SCS Correlation Energy    =      -3.5589425525649223 [Eh]
	 SCS Total Energy          =    -889.9236027868452084 [Eh]
	-----------------------------------------------------------

  Dipole Moment: [D]
     X:     1.7207      Y:    -6.1008      Z:    -1.8000     Total:     6.5895

*** Psi4 exiting successfully. Buy a developer a beer!
