                               Psi4 1.3.2 release

  ==> Input File <==

--------------------------------------------------------------------------
#psi4
#
memory 32 gb

molecule  {
0 1
  O       -1.2481010    -0.6526680     1.0325150
  O       -1.2449750     2.4828510    -0.6861630
  O       -3.2165300     1.5210990     0.7448870
  O       -2.3570290    -3.0668370     0.0949400
  O        1.3605300     2.2470340    -0.0765420
  N        0.8434040     0.0452230     0.2559430
  N        3.0572260     0.7205030    -0.2937270
  N        4.7164630    -0.8366550    -0.5722980
  C       -1.2894840     1.0784300    -0.5920770
  C       -2.7151710     0.6552070    -0.2573930
  C       -0.5376386     0.4323895     0.6098703
  C       -2.5292560    -0.7168860     0.3610560
  C       -2.5283440    -1.8503930    -0.6392900
  C        1.1758555    -1.2725931     0.3254989
  C        1.7555940     1.0674350    -0.0594030
  C        2.5111010    -1.6091400     0.0469950
  C        3.4119830    -0.5506530    -0.2589250
  H       -0.9376060     0.5914040    -1.5148910
  H       -3.3625820     0.6426650    -1.1464650
  H       -0.4402900     1.2218800     1.4039980
  H       -3.2819570    -0.9087340     1.1307830
  H       -1.7133080    -1.7003050    -1.3694640
  H       -3.4855610    -1.8340040    -1.1841350
  H       -0.2975250     2.7131790    -0.5250000
  H       -2.8475560     2.3997430     0.5086630
  H        0.4343110    -1.9634370     0.5690680
  H       -2.4338740    -3.7984320    -0.5432330
  H        2.8291120    -2.6453980     0.0739220
  H        5.1251800    -1.6708610    -0.1624140
  H        5.3198140    -0.0200540    -0.5682940
units angstrom
no_reorient  #important for SAPT in psi4, default
symmetry c1  #important for SAPT in psi4, default
}

set PROPERTIES_ORIGIN ["COM"]
properties('MP2/aug-cc-pvtz', properties = ['dipole'])
--------------------------------------------------------------------------

    Molecular point group: c1
  Charge       = 0
  Multiplicity = 1
  Basis Set: AUG-CC-PVTZ
    Blend: AUG-CC-PVTZ
  Basis Set: (AUG-CC-PVTZ AUX)
    Blend: AUG-CC-PVTZ-JKFIT

    Orbital Energies [Eh]
    ---------------------

    Doubly Occupied:

       1A    -20.587147     2A    -20.584538     3A    -20.558136
       4A    -20.557736     5A    -20.521493     6A    -15.638892
       7A    -15.597922     8A    -15.552835     9A    -11.389383
      10A    -11.356089    11A    -11.341426    12A    -11.332431
      13A    -11.303865    14A    -11.300984    15A    -11.296533
      16A    -11.293437    17A    -11.250891    18A     -1.443962
      19A     -1.397762    20A     -1.381202    21A     -1.376851
      22A     -1.346292    23A     -1.304739    24A     -1.274471
      25A     -1.181353    26A     -1.073830    27A     -1.071601
      28A     -1.018378    29A     -0.934909    30A     -0.916602
      31A     -0.876292    32A     -0.830074    33A     -0.815650
      34A     -0.765823    35A     -0.755440    36A     -0.735719
      37A     -0.722326    38A     -0.704949    39A     -0.700623
      40A     -0.690448    41A     -0.676559    42A     -0.656766
      43A     -0.650841    44A     -0.637759    45A     -0.623342
      46A     -0.618365    47A     -0.609083    48A     -0.589941
      49A     -0.579000    50A     -0.571473    51A     -0.555425
      52A     -0.546214    53A     -0.537670    54A     -0.530645
      55A     -0.496812    56A     -0.479398    57A     -0.475389
      58A     -0.464428    59A     -0.459472    60A     -0.453463
      61A     -0.436897    62A     -0.432304    63A     -0.393125
      64A     -0.343141

  @DF-RHF Final Energy:  -886.36620044292658

   => Energetics <=

    Nuclear Repulsion Energy =           1323.8195980003129080
    One-Electron Energy =               -3845.1705012532311230
    Two-Electron Energy =                1634.9847028099916315
    Total Energy =                       -886.3662004429265835
  Basis Set: (AUG-CC-PVTZ AUX)
    Blend: AUG-CC-PVTZ-RI
    Molecular point group: c1

    Geometry (in Angstrom), charge = 0, multiplicity = 1:

       Center              X                  Y                   Z               Mass
    ------------   -----------------  -----------------  -----------------  -----------------
         O           -1.245329165013    -0.649690489604     1.031330180020    15.994914619570
         O           -1.242203165013     2.485828510396    -0.687347819980    15.994914619570
         O           -3.213758165013     1.524076510396     0.743702180020    15.994914619570
         O           -2.354257165013    -3.063859489604     0.093755180020    15.994914619570
         O            1.363301834987     2.250011510396    -0.077726819980    15.994914619570
         N            0.846175834987     0.048200510396     0.254758180020    14.003074004430
         N            3.059997834987     0.723480510396    -0.294911819980    14.003074004430
         N            4.719234834987    -0.833677489604    -0.573482819980    14.003074004430
         C           -1.286712165013     1.081407510396    -0.593261819980    12.000000000000
         C           -2.712399165013     0.658184510396    -0.258577819980    12.000000000000
         C           -0.534866765013     0.435367010396     0.608685480020    12.000000000000
         C           -2.526484165013    -0.713908489604     0.359871180020    12.000000000000
         C           -2.525572165013    -1.847415489604    -0.640474819980    12.000000000000
         C            1.178627334987    -1.269615589604     0.324314080020    12.000000000000
         C            1.758365834987     1.070412510396    -0.060587819980    12.000000000000
         C            2.513872834987    -1.606162489604     0.045810180020    12.000000000000
         C            3.414754834987    -0.547675489604    -0.260109819980    12.000000000000
         H           -0.934834165013     0.594381510396    -1.516075819980     1.007825032230
         H           -3.359810165013     0.645642510396    -1.147649819980     1.007825032230
         H           -0.437518165013     1.224857510396     1.402813180020     1.007825032230
         H           -3.279185165013    -0.905756489604     1.129598180020     1.007825032230
         H           -1.710536165013    -1.697327489604    -1.370648819980     1.007825032230
         H           -3.482789165013    -1.831026489604    -1.185319819980     1.007825032230
         H           -0.294753165013     2.716156510396    -0.526184819980     1.007825032230
         H           -2.844784165013     2.402720510396     0.507478180020     1.007825032230
         H            0.437082834987    -1.960459489604     0.567883180020     1.007825032230
         H           -2.431102165013    -3.795454489604    -0.544417819980     1.007825032230
         H            2.831883834987    -2.642420489604     0.072737180020     1.007825032230
         H            5.127951834987    -1.667883489604    -0.163598819980     1.007825032230
         H            5.322585834987    -0.017076489604    -0.569478819980     1.007825032230

  Basis Set: AUG-CC-PVTZ
    Blend: AUG-CC-PVTZ
  Basis Set: (AUG-CC-PVTZ AUX)
    Blend: AUG-CC-PVTZ-JKFIT
	 Reference Energy          =    -886.3662004429265835 [Eh]
	 Singles Energy            =      -0.0000000000000000 [Eh]
	 Same-Spin Energy          =      -0.9019740035912048 [Eh]
	 Opposite-Spin Energy      =      -2.7156265152871510 [Eh]
	 Correlation Energy        =      -3.6176005188783558 [Eh]
	 Total Energy              =    -889.9838009618049455 [Eh]

	 ================> DF-SCS-MP2 Energies <==================
	-----------------------------------------------------------
	 SCS Same-Spin Scale       =       0.3333333333333333 [-]
	 SCS Opposite-Spin Scale   =       1.2000000000000000 [-]
	 SCS Same-Spin Energy      =      -0.3006580011970683 [Eh]
	 SCS Opposite-Spin Energy  =      -3.2587518183445812 [Eh]
	 SCS Correlation Energy    =      -3.5594098195416493 [Eh]
	 SCS Total Energy          =    -889.9256102624682399 [Eh]
	-----------------------------------------------------------

  Dipole Moment: [D]
     X:     1.4699      Y:    -6.0601      Z:    -1.7983     Total:     6.4899

*** Psi4 exiting successfully. Buy a developer a beer!
