                               Psi4 1.3.2 release

  ==> Input File <==

--------------------------------------------------------------------------
#psi4
#
memory 32 gb

molecule  {
0 1
  O       -1.2481010    -0.6526680     1.0325150
  O       -1.2449750     2.4828510    -0.6861630
  O       -3.2165300     1.5210990     0.7448870
  O       -2.3570290    -3.0668370     0.0949400
  O        1.3605300     2.2470340    -0.0765420
  N        0.8434040     0.0452230     0.2559430
  N        3.0572260     0.7205030    -0.2937270
  N        4.7164630    -0.8366550    -0.5722980
  C       -1.2894840     1.0784300    -0.5920770
  C       -2.7151710     0.6552070    -0.2573930
  C       -0.5254080     0.4815200     0.6000940
  C       -2.5292560    -0.7168860     0.3610560
  C       -2.5283440    -1.8503930    -0.6392900
  C        1.2197750    -1.2614080     0.3112740
  C        1.7555940     1.0674350    -0.0594030
  C        2.5111010    -1.6091400     0.0469950
  C        3.5070798    -0.5715026    -0.2817699
  H       -0.9376060     0.5914040    -1.5148910
  H       -3.3625820     0.6426650    -1.1464650
  H       -0.4402900     1.2218800     1.4039980
  H       -3.2819570    -0.9087340     1.1307830
  H       -1.7133080    -1.7003050    -1.3694640
  H       -3.4855610    -1.8340040    -1.1841350
  H       -0.2975250     2.7131790    -0.5250000
  H       -2.8475560     2.3997430     0.5086630
  H        0.4343110    -1.9634370     0.5690680
  H       -2.4338740    -3.7984320    -0.5432330
  H        2.8291120    -2.6453980     0.0739220
  H        5.1251800    -1.6708610    -0.1624140
  H        5.3198140    -0.0200540    -0.5682940
units angstrom
no_reorient  #important for SAPT in psi4, default
symmetry c1  #important for SAPT in psi4, default
}

set PROPERTIES_ORIGIN ["COM"]
properties('MP2/aug-cc-pvtz', properties = ['dipole'])
--------------------------------------------------------------------------

    Molecular point group: c1
  Charge       = 0
  Multiplicity = 1
  Basis Set: AUG-CC-PVTZ
    Blend: AUG-CC-PVTZ
  Basis Set: (AUG-CC-PVTZ AUX)
    Blend: AUG-CC-PVTZ-JKFIT

    Orbital Energies [Eh]
    ---------------------

    Doubly Occupied:

       1A    -20.579928     2A    -20.577681     3A    -20.554915
       4A    -20.553530     5A    -20.515215     6A    -15.628113
       7A    -15.619521     8A    -15.545085     9A    -11.382328
      10A    -11.363283    11A    -11.336472    12A    -11.322971
      13A    -11.298569    14A    -11.293854    15A    -11.292634
      16A    -11.289788    17A    -11.248982    18A     -1.424670
      19A     -1.389252    20A     -1.376862    21A     -1.369923
      22A     -1.343025    23A     -1.327194    24A     -1.280585
      25A     -1.177404    26A     -1.070908    27A     -1.064483
      28A     -1.015971    29A     -0.932070    30A     -0.901860
      31A     -0.877870    32A     -0.831681    33A     -0.809523
      34A     -0.776316    35A     -0.750965    36A     -0.741137
      37A     -0.731110    38A     -0.702081    39A     -0.695592
      40A     -0.688184    41A     -0.672779    42A     -0.651343
      43A     -0.644961    44A     -0.631717    45A     -0.615458
      46A     -0.610908    47A     -0.606915    48A     -0.588075
      49A     -0.575838    50A     -0.571169    51A     -0.556137
      52A     -0.546910    53A     -0.536511    54A     -0.531091
      55A     -0.493001    56A     -0.474655    57A     -0.470934
      58A     -0.458405    59A     -0.451077    60A     -0.449253
      61A     -0.436023    62A     -0.419145    63A     -0.386260
      64A     -0.344083

  @DF-RHF Final Energy:  -886.35838271319676

   => Energetics <=

    Nuclear Repulsion Energy =           1322.3379242441039878
    One-Electron Energy =               -3842.5842424625552667
    Two-Electron Energy =                1633.8879355052542905
    Total Energy =                       -886.3583827131967610
  Basis Set: (AUG-CC-PVTZ AUX)
    Blend: AUG-CC-PVTZ-RI
    Molecular point group: c1

    Geometry (in Angstrom), charge = 0, multiplicity = 1:

       Center              X                  Y                   Z               Mass
    ------------   -----------------  -----------------  -----------------  -----------------
         O           -1.252795520048    -0.651638742214     1.033642753796    15.994914619570
         O           -1.249669520048     2.483880257786    -0.685035246204    15.994914619570
         O           -3.221224520048     1.522128257786     0.746014753796    15.994914619570
         O           -2.361723520048    -3.065807742214     0.096067753796    15.994914619570
         O            1.355835479952     2.248063257786    -0.075414246204    15.994914619570
         N            0.838709479952     0.046252257786     0.257070753796    14.003074004430
         N            3.052531479952     0.721532257786    -0.292599246204    14.003074004430
         N            4.711768479952    -0.835625742214    -0.571170246204    14.003074004430
         C           -1.294178520048     1.079459257786    -0.590949246204    12.000000000000
         C           -2.719865520048     0.656236257786    -0.256265246204    12.000000000000
         C           -0.530102520048     0.482549257786     0.601221753796    12.000000000000
         C           -2.533950520048    -0.715856742214     0.362183753796    12.000000000000
         C           -2.533038520048    -1.849363742214    -0.638162246204    12.000000000000
         C            1.215080479952    -1.260378742214     0.312401753796    12.000000000000
         C            1.750899479952     1.068464257786    -0.058275246204    12.000000000000
         C            2.506406479952    -1.608110742214     0.048122753796    12.000000000000
         C            3.502385279952    -0.570473342214    -0.280642146204    12.000000000000
         H           -0.942300520048     0.592433257786    -1.513763246204     1.007825032230
         H           -3.367276520048     0.643694257786    -1.145337246204     1.007825032230
         H           -0.444984520048     1.222909257786     1.405125753796     1.007825032230
         H           -3.286651520048    -0.907704742214     1.131910753796     1.007825032230
         H           -1.718002520048    -1.699275742214    -1.368336246204     1.007825032230
         H           -3.490255520048    -1.832974742214    -1.183007246204     1.007825032230
         H           -0.302219520048     2.714208257786    -0.523872246204     1.007825032230
         H           -2.852250520048     2.400772257786     0.509790753796     1.007825032230
         H            0.429616479952    -1.962407742214     0.570195753796     1.007825032230
         H           -2.438568520048    -3.797402742214    -0.542105246204     1.007825032230
         H            2.824417479952    -2.644368742214     0.075049753796     1.007825032230
         H            5.120485479952    -1.669831742214    -0.161286246204     1.007825032230
         H            5.315119479952    -0.019024742214    -0.567166246204     1.007825032230

  Basis Set: AUG-CC-PVTZ
    Blend: AUG-CC-PVTZ
  Basis Set: (AUG-CC-PVTZ AUX)
    Blend: AUG-CC-PVTZ-JKFIT
	 Reference Energy          =    -886.3583827131967610 [Eh]
	 Singles Energy            =      -0.0000000000000000 [Eh]
	 Same-Spin Energy          =      -0.9013779400058237 [Eh]
	 Opposite-Spin Energy      =      -2.7150917461158643 [Eh]
	 Correlation Energy        =      -3.6164696861216878 [Eh]
	 Total Energy              =    -889.9748523993184790 [Eh]

	 ================> DF-SCS-MP2 Energies <==================
	-----------------------------------------------------------
	 SCS Same-Spin Scale       =       0.3333333333333333 [-]
	 SCS Opposite-Spin Scale   =       1.2000000000000000 [-]
	 SCS Same-Spin Energy      =      -0.3004593133352745 [Eh]
	 SCS Opposite-Spin Energy  =      -3.2581100953390369 [Eh]
	 SCS Correlation Energy    =      -3.5585694086743116 [Eh]
	 SCS Total Energy          =    -889.9169521218710770 [Eh]
	-----------------------------------------------------------

  Dipole Moment: [D]
     X:     2.7641      Y:    -6.2447      Z:    -2.0226     Total:     7.1223

*** Psi4 exiting successfully. Buy a developer a beer!
