                               Psi4 1.3.2 release

  ==> Input File <==

--------------------------------------------------------------------------
#psi4
#
memory 32 gb

molecule  {
0 1
  O       -1.2481010    -0.6526680     1.0325150
  O       -1.2449750     2.4828510    -0.6861630
  O       -3.2165300     1.5210990     0.7448870
  O       -2.3570290    -3.0668370     0.0949400
  O        1.3605300     2.2470340    -0.0765420
  N        0.8879860     0.0567057     0.2442396
  N        3.0572260     0.7205030    -0.2937270
  N        4.7164630    -0.8366550    -0.5722980
  C       -1.2894840     1.0784300    -0.5920770
  C       -2.7151710     0.6552070    -0.2573930
  C       -0.5254080     0.4815200     0.6000940
  C       -2.5292560    -0.7168860     0.3610560
  C       -2.5283440    -1.8503930    -0.6392900
  C        1.2197750    -1.2614080     0.3112740
  C        1.7555940     1.0674350    -0.0594030
  C        2.5210827    -1.5632063     0.0396128
  C        3.4119830    -0.5506530    -0.2589250
  H       -0.9376060     0.5914040    -1.5148910
  H       -3.3625820     0.6426650    -1.1464650
  H       -0.4402900     1.2218800     1.4039980
  H       -3.2819570    -0.9087340     1.1307830
  H       -1.7133080    -1.7003050    -1.3694640
  H       -3.4855610    -1.8340040    -1.1841350
  H       -0.2975250     2.7131790    -0.5250000
  H       -2.8475560     2.3997430     0.5086630
  H        0.4343110    -1.9634370     0.5690680
  H       -2.4338740    -3.7984320    -0.5432330
  H        2.8291120    -2.6453980     0.0739220
  H        5.1251800    -1.6708610    -0.1624140
  H        5.3198140    -0.0200540    -0.5682940
units angstrom
no_reorient  #important for SAPT in psi4, default
symmetry c1  #important for SAPT in psi4, default
}

set PROPERTIES_ORIGIN ["COM"]
properties('MP2/aug-cc-pvtz', properties = ['dipole'])
--------------------------------------------------------------------------

    Molecular point group: c1
  Charge       = 0
  Multiplicity = 1
  Basis Set: AUG-CC-PVTZ
    Blend: AUG-CC-PVTZ
  Basis Set: (AUG-CC-PVTZ AUX)
    Blend: AUG-CC-PVTZ-JKFIT

    Orbital Energies [Eh]
    ---------------------

    Doubly Occupied:

       1A    -20.585021     2A    -20.583764     3A    -20.558797
       4A    -20.557438     5A    -20.516421     6A    -15.638179
       7A    -15.596966     8A    -15.549762     9A    -11.381886
      10A    -11.351152    11A    -11.345547    12A    -11.331255
      13A    -11.302753    14A    -11.298908    15A    -11.298220
      16A    -11.294311    17A    -11.248939    18A     -1.430312
      19A     -1.398183    20A     -1.381128    21A     -1.374010
      22A     -1.347012    23A     -1.307721    24A     -1.273245
      25A     -1.179005    26A     -1.083946    27A     -1.069329
      28A     -1.024642    29A     -0.935605    30A     -0.919954
      31A     -0.875844    32A     -0.831149    33A     -0.813279
      34A     -0.769228    35A     -0.752749    36A     -0.736272
      37A     -0.720119    38A     -0.703662    39A     -0.699028
      40A     -0.685503    41A     -0.672284    42A     -0.655732
      43A     -0.647946    44A     -0.638735    45A     -0.627529
      46A     -0.616611    47A     -0.610078    48A     -0.583485
      49A     -0.576561    50A     -0.571313    51A     -0.553921
      52A     -0.545123    53A     -0.537490    54A     -0.532977
      55A     -0.496283    56A     -0.478751    57A     -0.475343
      58A     -0.463166    59A     -0.457458    60A     -0.453790
      61A     -0.441315    62A     -0.431929    63A     -0.393959
      64A     -0.351206

  @DF-RHF Final Energy:  -886.36675394550650

   => Energetics <=

    Nuclear Repulsion Energy =           1324.5112549204757215
    One-Electron Energy =               -3846.6295547108929895
    Two-Electron Energy =                1635.7515458449104244
    Total Energy =                       -886.3667539455066162
  Basis Set: (AUG-CC-PVTZ AUX)
    Blend: AUG-CC-PVTZ-RI
    Molecular point group: c1

    Geometry (in Angstrom), charge = 0, multiplicity = 1:

       Center              X                  Y                   Z               Mass
    ------------   -----------------  -----------------  -----------------  -----------------
         O           -1.251161954404    -0.655596989895     1.033553613054    15.994914619570
         O           -1.248035954404     2.479922010105    -0.685124386946    15.994914619570
         O           -3.219590954404     1.518170010105     0.745925613054    15.994914619570
         O           -2.360089954404    -3.069765989895     0.095978613054    15.994914619570
         O            1.357469045596     2.244105010105    -0.075503386946    15.994914619570
         N            0.884925045596     0.053776710105     0.245278213054    14.003074004430
         N            3.054165045596     0.717574010105    -0.292688386946    14.003074004430
         N            4.713402045596    -0.839583989895    -0.571259386946    14.003074004430
         C           -1.292544954404     1.075501010105    -0.591038386946    12.000000000000
         C           -2.718231954404     0.652278010105    -0.256354386946    12.000000000000
         C           -0.528468954404     0.478591010105     0.601132613054    12.000000000000
         C           -2.532316954404    -0.719814989895     0.362094613054    12.000000000000
         C           -2.531404954404    -1.853321989895    -0.638251386946    12.000000000000
         C            1.216714045596    -1.264336989895     0.312312613054    12.000000000000
         C            1.752533045596     1.064506010105    -0.058364386946    12.000000000000
         C            2.518021745596    -1.566135289895     0.040651413054    12.000000000000
         C            3.408922045596    -0.553581989895    -0.257886386946    12.000000000000
         H           -0.940666954404     0.588475010105    -1.513852386946     1.007825032230
         H           -3.365642954404     0.639736010105    -1.145426386946     1.007825032230
         H           -0.443350954404     1.218951010105     1.405036613054     1.007825032230
         H           -3.285017954404    -0.911662989895     1.131821613054     1.007825032230
         H           -1.716368954404    -1.703233989895    -1.368425386946     1.007825032230
         H           -3.488621954404    -1.836932989895    -1.183096386946     1.007825032230
         H           -0.300585954404     2.710250010105    -0.523961386946     1.007825032230
         H           -2.850616954404     2.396814010105     0.509701613054     1.007825032230
         H            0.431250045596    -1.966365989895     0.570106613054     1.007825032230
         H           -2.436934954404    -3.801360989895    -0.542194386946     1.007825032230
         H            2.826051045596    -2.648326989895     0.074960613054     1.007825032230
         H            5.122119045596    -1.673789989895    -0.161375386946     1.007825032230
         H            5.316753045596    -0.022982989895    -0.567255386946     1.007825032230

  Basis Set: AUG-CC-PVTZ
    Blend: AUG-CC-PVTZ
  Basis Set: (AUG-CC-PVTZ AUX)
    Blend: AUG-CC-PVTZ-JKFIT
	 Reference Energy          =    -886.3667539455065025 [Eh]
	 Singles Energy            =      -0.0000000000000000 [Eh]
	 Same-Spin Energy          =      -0.9021042876294860 [Eh]
	 Opposite-Spin Energy      =      -2.7157164854541085 [Eh]
	 Correlation Energy        =      -3.6178207730835945 [Eh]
	 Total Energy              =    -889.9845747185901246 [Eh]

	 ================> DF-SCS-MP2 Energies <==================
	-----------------------------------------------------------
	 SCS Same-Spin Scale       =       0.3333333333333333 [-]
	 SCS Opposite-Spin Scale   =       1.2000000000000000 [-]
	 SCS Same-Spin Energy      =      -0.3007014292098287 [Eh]
	 SCS Opposite-Spin Energy  =      -3.2588597825449299 [Eh]
	 SCS Correlation Energy    =      -3.5595612117547586 [Eh]
	 SCS Total Energy          =    -889.9263151572612287 [Eh]
	-----------------------------------------------------------

  Dipole Moment: [D]
     X:     1.4512      Y:    -6.1120      Z:    -1.7618     Total:     6.5243

*** Psi4 exiting successfully. Buy a developer a beer!
