                               Psi4 1.3.2 release

  ==> Input File <==

--------------------------------------------------------------------------
#psi4
#
memory 32 gb

molecule  {
0 1
  O       -1.2481010    -0.6526680     1.0325150
  O       -1.2449750     2.4828510    -0.6861630
  O       -3.2165300     1.5210990     0.7448870
  O       -2.3570290    -3.0668370     0.0949400
  O        1.3605300     2.2470340    -0.0765420
  N        0.8434040     0.0452230     0.2559430
  N        3.0572260     0.7205030    -0.2937270
  N        4.7164630    -0.8366550    -0.5722980
  C       -1.2894840     1.0784300    -0.5920770
  C       -2.7151710     0.6552070    -0.2573930
  C       -0.5254080     0.4815200     0.6000940
  C       -2.5292560    -0.7168860     0.3610560
  C       -2.5283440    -1.8503930    -0.6392900
  C        1.2197750    -1.2614080     0.3112740
  C        1.7584334     1.0789217    -0.0609409
  C        2.5111010    -1.6091400     0.0469950
  C        3.4228302    -0.5476405    -0.2613728
  H       -0.9376060     0.5914040    -1.5148910
  H       -3.3625820     0.6426650    -1.1464650
  H       -0.4402900     1.2218800     1.4039980
  H       -3.2819570    -0.9087340     1.1307830
  H       -1.7133080    -1.7003050    -1.3694640
  H       -3.4855610    -1.8340040    -1.1841350
  H       -0.2975250     2.7131790    -0.5250000
  H       -2.8475560     2.3997430     0.5086630
  H        0.4343110    -1.9634370     0.5690680
  H       -2.4338740    -3.7984320    -0.5432330
  H        2.8291120    -2.6453980     0.0739220
  H        5.1251800    -1.6708610    -0.1624140
  H        5.3198140    -0.0200540    -0.5682940
units angstrom
no_reorient  #important for SAPT in psi4, default
symmetry c1  #important for SAPT in psi4, default
}

set PROPERTIES_ORIGIN ["COM"]
properties('MP2/aug-cc-pvtz', properties = ['dipole'])
--------------------------------------------------------------------------

    Molecular point group: c1
  Charge       = 0
  Multiplicity = 1
  Basis Set: AUG-CC-PVTZ
    Blend: AUG-CC-PVTZ
  Basis Set: (AUG-CC-PVTZ AUX)
    Blend: AUG-CC-PVTZ-JKFIT

    Orbital Energies [Eh]
    ---------------------

    Doubly Occupied:

       1A    -20.581709     2A    -20.580713     3A    -20.557523
       4A    -20.557491     5A    -20.524546     6A    -15.634169
       7A    -15.601304     8A    -15.551720     9A    -11.388819
      10A    -11.358136    11A    -11.340386    12A    -11.326543
      13A    -11.300633    14A    -11.296334    15A    -11.296132
      16A    -11.292536    17A    -11.247348    18A     -1.428853
      19A     -1.399677    20A     -1.379873    21A     -1.372411
      22A     -1.346328    23A     -1.307758    24A     -1.273937
      25A     -1.183071    26A     -1.079257    27A     -1.067157
      28A     -1.019842    29A     -0.934425    30A     -0.905824
      31A     -0.877677    32A     -0.831794    33A     -0.811247
      34A     -0.766607    35A     -0.751046    36A     -0.735794
      37A     -0.722178    38A     -0.702822    39A     -0.698093
      40A     -0.686269    41A     -0.672597    42A     -0.655111
      43A     -0.651535    44A     -0.637186    45A     -0.619531
      46A     -0.614540    47A     -0.606363    48A     -0.595074
      49A     -0.575308    50A     -0.569430    51A     -0.553785
      52A     -0.545835    53A     -0.538325    54A     -0.532450
      55A     -0.499086    56A     -0.477038    57A     -0.474126
      58A     -0.463373    59A     -0.460050    60A     -0.452584
      61A     -0.439947    62A     -0.430572    63A     -0.395075
      64A     -0.348233

  @DF-RHF Final Energy:  -886.37386993102962

   => Energetics <=

    Nuclear Repulsion Energy =           1323.4650777787819607
    One-Electron Energy =               -3844.6276297096101189
    Two-Electron Energy =                1634.7886819997984276
    Total Energy =                       -886.3738699310297307
  Basis Set: (AUG-CC-PVTZ AUX)
    Blend: AUG-CC-PVTZ-RI
    Molecular point group: c1

    Geometry (in Angstrom), charge = 0, multiplicity = 1:

       Center              X                  Y                   Z               Mass
    ------------   -----------------  -----------------  -----------------  -----------------
         O           -1.248776677634    -0.653383747837     1.032711762927    15.994914619570
         O           -1.245650677634     2.482135252163    -0.685966237073    15.994914619570
         O           -3.217205677634     1.520383252163     0.745083762927    15.994914619570
         O           -2.357704677634    -3.067552747837     0.095136762927    15.994914619570
         O            1.359854322366     2.246318252163    -0.076345237073    15.994914619570
         N            0.842728322366     0.044507252163     0.256139762927    14.003074004430
         N            3.056550322366     0.719787252163    -0.293530237073    14.003074004430
         N            4.715787322366    -0.837370747837    -0.572101237073    14.003074004430
         C           -1.290159677634     1.077714252163    -0.591880237073    12.000000000000
         C           -2.715846677634     0.654491252163    -0.257196237073    12.000000000000
         C           -0.526083677634     0.480804252163     0.600290762927    12.000000000000
         C           -2.529931677634    -0.717601747837     0.361252762927    12.000000000000
         C           -2.529019677634    -1.851108747837    -0.639093237073    12.000000000000
         C            1.219099322366    -1.262123747837     0.311470762927    12.000000000000
         C            1.757757722366     1.078205952163    -0.060744137073    12.000000000000
         C            2.510425322366    -1.609855747837     0.047191762927    12.000000000000
         C            3.422154522366    -0.548356247837    -0.261176037073    12.000000000000
         H           -0.938281677634     0.590688252163    -1.514694237073     1.007825032230
         H           -3.363257677634     0.641949252163    -1.146268237073     1.007825032230
         H           -0.440965677634     1.221164252163     1.404194762927     1.007825032230
         H           -3.282632677634    -0.909449747837     1.130979762927     1.007825032230
         H           -1.713983677634    -1.701020747837    -1.369267237073     1.007825032230
         H           -3.486236677634    -1.834719747837    -1.183938237073     1.007825032230
         H           -0.298200677634     2.712463252163    -0.524803237073     1.007825032230
         H           -2.848231677634     2.399027252163     0.508859762927     1.007825032230
         H            0.433635322366    -1.964152747837     0.569264762927     1.007825032230
         H           -2.434549677634    -3.799147747837    -0.543036237073     1.007825032230
         H            2.828436322366    -2.646113747837     0.074118762927     1.007825032230
         H            5.124504322366    -1.671576747837    -0.162217237073     1.007825032230
         H            5.319138322366    -0.020769747837    -0.568097237073     1.007825032230

  Basis Set: AUG-CC-PVTZ
    Blend: AUG-CC-PVTZ
  Basis Set: (AUG-CC-PVTZ AUX)
    Blend: AUG-CC-PVTZ-JKFIT
	 Reference Energy          =    -886.3738699310296170 [Eh]
	 Singles Energy            =      -0.0000000000000000 [Eh]
	 Same-Spin Energy          =      -0.9010118776205982 [Eh]
	 Opposite-Spin Energy      =      -2.7145571997580005 [Eh]
	 Correlation Energy        =      -3.6155690773785985 [Eh]
	 Total Energy              =    -889.9894390084082261 [Eh]

	 ================> DF-SCS-MP2 Energies <==================
	-----------------------------------------------------------
	 SCS Same-Spin Scale       =       0.3333333333333333 [-]
	 SCS Opposite-Spin Scale   =       1.2000000000000000 [-]
	 SCS Same-Spin Energy      =      -0.3003372925401994 [Eh]
	 SCS Opposite-Spin Energy  =      -3.2574686397096007 [Eh]
	 SCS Correlation Energy    =      -3.5578059322498001 [Eh]
	 SCS Total Energy          =    -889.9316758632794517 [Eh]
	-----------------------------------------------------------

  Dipole Moment: [D]
     X:     1.8107      Y:    -5.8526      Z:    -1.8535     Total:     6.4005

*** Psi4 exiting successfully. Buy a developer a beer!
