                               Psi4 1.3.2 release

  ==> Input File <==

--------------------------------------------------------------------------
#psi4
#
memory 32 gb

molecule  {
0 1
  O       -1.2741132    -0.5935651     1.0722155
  O       -1.2449750     2.4828510    -0.6861630
  O       -3.2165300     1.5210990     0.7448870
  O       -2.3570290    -3.0668370     0.0949400
  O        1.3605300     2.2470340    -0.0765420
  N        0.8434040     0.0452230     0.2559430
  N        3.0572260     0.7205030    -0.2937270
  N        4.7164630    -0.8366550    -0.5722980
  C       -1.2894840     1.0784300    -0.5920770
  C       -2.7151710     0.6552070    -0.2573930
  C       -0.5254080     0.4815200     0.6000940
  C       -2.5292560    -0.7168860     0.3610560
  C       -2.6027964    -1.8311526    -0.6580283
  C        1.2197750    -1.2614080     0.3112740
  C        1.7555940     1.0674350    -0.0594030
  C        2.5111010    -1.6091400     0.0469950
  C        3.4119830    -0.5506530    -0.2589250
  H       -0.9376060     0.5914040    -1.5148910
  H       -3.3625820     0.6426650    -1.1464650
  H       -0.4402900     1.2218800     1.4039980
  H       -3.2819570    -0.9087340     1.1307830
  H       -1.7133080    -1.7003050    -1.3694640
  H       -3.4855610    -1.8340040    -1.1841350
  H       -0.2975250     2.7131790    -0.5250000
  H       -2.8475560     2.3997430     0.5086630
  H        0.4343110    -1.9634370     0.5690680
  H       -2.4338740    -3.7984320    -0.5432330
  H        2.8291120    -2.6453980     0.0739220
  H        5.1251800    -1.6708610    -0.1624140
  H        5.3198140    -0.0200540    -0.5682940
units angstrom
no_reorient  #important for SAPT in psi4, default
symmetry c1  #important for SAPT in psi4, default
}

set PROPERTIES_ORIGIN ["COM"]
properties('MP2/aug-cc-pvtz', properties = ['dipole'])
--------------------------------------------------------------------------

    Molecular point group: c1
  Charge       = 0
  Multiplicity = 1
  Basis Set: AUG-CC-PVTZ
    Blend: AUG-CC-PVTZ
  Basis Set: (AUG-CC-PVTZ AUX)
    Blend: AUG-CC-PVTZ-JKFIT

    Orbital Energies [Eh]
    ---------------------

    Doubly Occupied:

       1A    -20.583421     2A    -20.580850     3A    -20.556556
       4A    -20.556346     5A    -20.521751     6A    -15.637144
       7A    -15.600050     8A    -15.553638     9A    -11.388450
      10A    -11.358150    11A    -11.339301    12A    -11.329585
      13A    -11.303429    14A    -11.298874    15A    -11.295715
      16A    -11.291809    17A    -11.249133    18A     -1.433100
      19A     -1.396923    20A     -1.378058    21A     -1.363607
      22A     -1.345282    23A     -1.306375    24A     -1.274306
      25A     -1.182445    26A     -1.082209    27A     -1.071028
      28A     -1.021270    29A     -0.939271    30A     -0.910631
      31A     -0.878117    32A     -0.830231    33A     -0.815132
      34A     -0.768569    35A     -0.753190    36A     -0.733951
      37A     -0.720039    38A     -0.704461    39A     -0.697398
      40A     -0.685030    41A     -0.672738    42A     -0.654150
      43A     -0.653127    44A     -0.637815    45A     -0.622871
      46A     -0.614804    47A     -0.605454    48A     -0.593652
      49A     -0.574335    50A     -0.569329    51A     -0.551736
      52A     -0.546266    53A     -0.536657    54A     -0.531703
      55A     -0.498928    56A     -0.480217    57A     -0.473457
      58A     -0.461538    59A     -0.459321    60A     -0.450393
      61A     -0.442553    62A     -0.433154    63A     -0.395219
      64A     -0.350125

  @DF-RHF Final Energy:  -886.36467153773083

   => Energetics <=

    Nuclear Repulsion Energy =           1322.6526816716029771
    One-Electron Energy =               -3842.9459772740060544
    Two-Electron Energy =                1633.9286240646724764
    Total Energy =                       -886.3646715377308283
  Basis Set: (AUG-CC-PVTZ AUX)
    Blend: AUG-CC-PVTZ-RI
    Molecular point group: c1

    Geometry (in Angstrom), charge = 0, multiplicity = 1:

       Center              X                  Y                   Z               Mass
    ------------   -----------------  -----------------  -----------------  -----------------
         O           -1.268726274996    -0.598403842234     1.070528255575    15.994914619570
         O           -1.239588074996     2.478012257766    -0.687850244425    15.994914619570
         O           -3.211143074996     1.516260257766     0.743199755575    15.994914619570
         O           -2.351642074996    -3.071675742234     0.093252755575    15.994914619570
         O            1.365916925004     2.242195257766    -0.078229244425    15.994914619570
         N            0.848790925004     0.040384257766     0.254255755575    14.003074004430
         N            3.062612925004     0.715664257766    -0.295414244425    14.003074004430
         N            4.721849925004    -0.841493742234    -0.573985244425    14.003074004430
         C           -1.284097074996     1.073591257766    -0.593764244425    12.000000000000
         C           -2.709784074996     0.650368257766    -0.259080244425    12.000000000000
         C           -0.520021074996     0.476681257766     0.598406755575    12.000000000000
         C           -2.523869074996    -0.721724742234     0.359368755575    12.000000000000
         C           -2.597409474996    -1.835991342234    -0.659715544425    12.000000000000
         C            1.225161925004    -1.266246742234     0.309586755575    12.000000000000
         C            1.760980925004     1.062596257766    -0.061090244425    12.000000000000
         C            2.516487925004    -1.613978742234     0.045307755575    12.000000000000
         C            3.417369925004    -0.555491742234    -0.260612244425    12.000000000000
         H           -0.932219074996     0.586565257766    -1.516578244425     1.007825032230
         H           -3.357195074996     0.637826257766    -1.148152244425     1.007825032230
         H           -0.434903074996     1.217041257766     1.402310755575     1.007825032230
         H           -3.276570074996    -0.913572742234     1.129095755575     1.007825032230
         H           -1.707921074996    -1.705143742234    -1.371151244425     1.007825032230
         H           -3.480174074996    -1.838842742234    -1.185822244425     1.007825032230
         H           -0.292138074996     2.708340257766    -0.526687244425     1.007825032230
         H           -2.842169074996     2.394904257766     0.506975755575     1.007825032230
         H            0.439697925004    -1.968275742234     0.567380755575     1.007825032230
         H           -2.428487074996    -3.803270742234    -0.544920244425     1.007825032230
         H            2.834498925004    -2.650236742234     0.072234755575     1.007825032230
         H            5.130566925004    -1.675699742234    -0.164101244425     1.007825032230
         H            5.325200925004    -0.024892742234    -0.569981244425     1.007825032230

  Basis Set: AUG-CC-PVTZ
    Blend: AUG-CC-PVTZ
  Basis Set: (AUG-CC-PVTZ AUX)
    Blend: AUG-CC-PVTZ-JKFIT
	 Reference Energy          =    -886.3646715377308283 [Eh]
	 Singles Energy            =      -0.0000000000000000 [Eh]
	 Same-Spin Energy          =      -0.9013118620163660 [Eh]
	 Opposite-Spin Energy      =      -2.7154135523505483 [Eh]
	 Correlation Energy        =      -3.6167254143669143 [Eh]
	 Total Energy              =    -889.9813969520977253 [Eh]

	 ================> DF-SCS-MP2 Energies <==================
	-----------------------------------------------------------
	 SCS Same-Spin Scale       =       0.3333333333333333 [-]
	 SCS Opposite-Spin Scale   =       1.2000000000000000 [-]
	 SCS Same-Spin Energy      =      -0.3004372873387887 [Eh]
	 SCS Opposite-Spin Energy  =      -3.2584962628206577 [Eh]
	 SCS Correlation Energy    =      -3.5589335501594466 [Eh]
	 SCS Total Energy          =    -889.9236050878902233 [Eh]
	-----------------------------------------------------------

  Dipole Moment: [D]
     X:     1.6493      Y:    -5.9911      Z:    -1.9151     Total:     6.5024

*** Psi4 exiting successfully. Buy a developer a beer!
