                               Psi4 1.4a3.dev225

  ==> Input File <==

--------------------------------------------------------------------------
#psi4
#
memory 32 gb

molecule  {
0 1
  O       -1.3191770     0.6538360    -1.0992360
  O       -1.5735610    -2.4640850     0.5135810
  O       -3.5606630    -1.0699430    -0.4600060
  O       -1.4399290     3.1254620     0.1265180
  O        1.1065530    -2.3833650     0.0076020
  N        0.7686360    -0.1579440    -0.3706350
  N        2.9363770    -0.9938720     0.1460080
  N        4.7058880     0.4431110     0.3611260
  C       -1.3768610    -1.0680440     0.5552780
  C       -2.7379840    -0.3746360     0.4578480
  C       -0.6377490    -0.5042940    -0.6790150
  C       -2.3707440     0.9655450    -0.1585060
  C       -1.8992030     1.9895750     0.8571380
  C        1.2309690     1.1190800    -0.4442230
  C        1.6306883    -1.2014162    -0.0612342
  C        2.5474650     1.3753690    -0.1998620
  C        3.3802090     0.2523040     0.0808410
  H       -0.8441360    -0.7686950     1.4698480
  H       -3.2257400    -0.2778790     1.4400230
  H       -0.6227070    -1.2428120    -1.4883720
  H       -3.1941750     1.3785730    -0.7472070
  H       -1.0952130     1.5703990     1.4802000
  H       -2.7410530     2.2466610     1.5166010
  H       -0.6710550    -2.8260740     0.3542250
  H       -3.3063470    -2.0105220    -0.3629290
  H        0.4929290     1.8778260    -0.6840360
  H       -1.2098800     3.8154810     0.7720340
  H        2.9334840     2.3875570    -0.2389120
  H        5.1589650     1.2712730    -0.0008400
  H        5.2635310    -0.4031270     0.3606700
units angstrom
no_reorient  #important for SAPT in psi4, default
symmetry c1  #important for SAPT in psi4, default
}

set PROPERTIES_ORIGIN ["COM"]
properties('MP2/aug-cc-pvtz', properties = ['dipole'])
--------------------------------------------------------------------------

    Molecular point group: c1
  Charge       = 0
  Multiplicity = 1
  Basis Set: AUG-CC-PVTZ
    Blend: AUG-CC-PVTZ
  Basis Set: (AUG-CC-PVTZ AUX)
    Blend: AUG-CC-PVTZ-JKFIT

    Orbital Energies [Eh]
    ---------------------

    Doubly Occupied:

       1A    -20.587496     2A    -20.582419     3A    -20.556059
       4A    -20.555665     5A    -20.505723     6A    -15.638113
       7A    -15.603676     8A    -15.556601     9A    -11.383066
      10A    -11.362637    11A    -11.340948    12A    -11.328424
      13A    -11.304115    14A    -11.298229    15A    -11.296098
      16A    -11.292957    17A    -11.251336    18A     -1.429346
      19A     -1.386027    20A     -1.379320    21A     -1.373384
      22A     -1.344604    23A     -1.295281    24A     -1.272050
      25A     -1.190525    26A     -1.082425    27A     -1.068115
      28A     -1.018945    29A     -0.938468    30A     -0.912475
      31A     -0.880631    32A     -0.831867    33A     -0.812689
      34A     -0.771805    35A     -0.752186    36A     -0.734340
      37A     -0.722705    38A     -0.708542    39A     -0.703211
      40A     -0.686888    41A     -0.675808    42A     -0.654983
      43A     -0.644028    44A     -0.635175    45A     -0.620510
      46A     -0.615606    47A     -0.608301    48A     -0.583436
      49A     -0.576423    50A     -0.566165    51A     -0.555123
      52A     -0.547725    53A     -0.535239    54A     -0.528385
      55A     -0.487461    56A     -0.480831    57A     -0.473168
      58A     -0.463472    59A     -0.452347    60A     -0.449186
      61A     -0.442108    62A     -0.433024    63A     -0.394442
      64A     -0.350826

  @DF-RHF Final Energy:  -886.36829632049330

   => Energetics <=

    Nuclear Repulsion Energy =           1334.7780102216936484
    One-Electron Energy =               -3867.2662902828192273
    Two-Electron Energy =                1646.1199837406325059
    Total Energy =                       -886.3682963204933003
  Basis Set: (AUG-CC-PVTZ AUX)
    Blend: AUG-CC-PVTZ-RI
    Molecular point group: c1

    Geometry (in Angstrom), charge = 0, multiplicity = 1:

       Center              X                  Y                   Z               Mass
    ------------   -----------------  -----------------  -----------------  -----------------
         O           -1.332919824140     0.680194294288    -1.083324566140    15.994914619570
         O           -1.587303824140    -2.437726705712     0.529492433860    15.994914619570
         O           -3.574405824140    -1.043584705712    -0.444094566140    15.994914619570
         O           -1.453671824140     3.151820294288     0.142429433860    15.994914619570
         O            1.092810175860    -2.357006705712     0.023513433860    15.994914619570
         N            0.754893175860    -0.131585705712    -0.354723566140    14.003074004430
         N            2.922634175860    -0.967513705712     0.161919433860    14.003074004430
         N            4.692145175860     0.469469294288     0.377037433860    14.003074004430
         C           -1.390603824140    -1.041685705712     0.571189433860    12.000000000000
         C           -2.751726824140    -0.348277705712     0.473759433860    12.000000000000
         C           -0.651491824140    -0.477935705712    -0.663103566140    12.000000000000
         C           -2.384486824140     0.991903294288    -0.142594566140    12.000000000000
         C           -1.912945824140     2.015933294288     0.873049433860    12.000000000000
         C            1.217226175860     1.145438294288    -0.428311566140    12.000000000000
         C            1.616945475860    -1.175057905712    -0.045322766140    12.000000000000
         C            2.533722175860     1.401727294288    -0.183950566140    12.000000000000
         C            3.366466175860     0.278662294288     0.096752433860    12.000000000000
         H           -0.857878824140    -0.742336705712     1.485759433860     1.007825032230
         H           -3.239482824140    -0.251520705712     1.455934433860     1.007825032230
         H           -0.636449824140    -1.216453705712    -1.472460566140     1.007825032230
         H           -3.207917824140     1.404931294288    -0.731295566140     1.007825032230
         H           -1.108955824140     1.596757294288     1.496111433860     1.007825032230
         H           -2.754795824140     2.273019294288     1.532512433860     1.007825032230
         H           -0.684797824140    -2.799715705712     0.370136433860     1.007825032230
         H           -3.320089824140    -1.984163705712    -0.347017566140     1.007825032230
         H            0.479186175860     1.904184294288    -0.668124566140     1.007825032230
         H           -1.223622824140     3.841839294288     0.787945433860     1.007825032230
         H            2.919741175860     2.413915294288    -0.223000566140     1.007825032230
         H            5.145222175860     1.297631294288     0.015071433860     1.007825032230
         H            5.249788175860    -0.376768705712     0.376581433860     1.007825032230

  Basis Set: AUG-CC-PVTZ
    Blend: AUG-CC-PVTZ
  Basis Set: (AUG-CC-PVTZ AUX)
    Blend: AUG-CC-PVTZ-JKFIT
	 Reference Energy          =    -886.3682963204933003 [Eh]
	 Singles Energy            =      -0.0000000000000000 [Eh]
	 Same-Spin Energy          =      -0.9025483819136851 [Eh]
	 Opposite-Spin Energy      =      -2.7169557240990345 [Eh]
	 Correlation Energy        =      -3.6195041060127195 [Eh]
	 Total Energy              =    -889.9878004265060554 [Eh]

	 ================> DF-SCS-MP2 Energies <==================
	-----------------------------------------------------------
	 SCS Same-Spin Scale       =       0.3333333333333333 [-]
	 SCS Opposite-Spin Scale   =       1.2000000000000000 [-]
	 SCS Same-Spin Energy      =      -0.3008494606378950 [Eh]
	 SCS Opposite-Spin Energy  =      -3.2603468689188415 [Eh]
	 SCS Correlation Energy    =      -3.5611963295567364 [Eh]
	 SCS Total Energy          =    -889.9294926500500651 [Eh]
	-----------------------------------------------------------

  Dipole Moment: [D]
     X:     2.9932      Y:     6.2647      Z:     1.9272     Total:     7.2056

*** Psi4 exiting successfully. Buy a developer a beer!
