                               Psi4 1.4a3.dev225

  ==> Input File <==

--------------------------------------------------------------------------
#psi4
#
memory 32 gb

molecule  {
0 1
  O       -1.3191770     0.6538360    -1.0992360
  O       -1.5735610    -2.4640850     0.5135810
  O       -3.5606630    -1.0699430    -0.4600060
  O       -1.4399290     3.1254620     0.1265180
  O        1.1065530    -2.3833650     0.0076020
  N        0.7686360    -0.1579440    -0.3706350
  N        2.9363770    -0.9938720     0.1460080
  N        4.7058880     0.4431110     0.3611260
  C       -1.3768610    -1.0680440     0.5552780
  C       -2.7379840    -0.3746360     0.4578480
  C       -0.6377490    -0.5042940    -0.6790150
  C       -2.3707440     0.9655450    -0.1585060
  C       -1.8992030     1.9895750     0.8571380
  C        1.2309690     1.1190800    -0.4442230
  C        1.6104480    -1.2470590    -0.0585760
  C        2.5474650     1.3753690    -0.1998620
  C        3.3802090     0.2523040     0.0808410
  H       -0.8441360    -0.7686950     1.4698480
  H       -3.2257400    -0.2778790     1.4400230
  H       -0.6227070    -1.2428120    -1.4883720
  H       -3.1941750     1.3785730    -0.7472070
  H       -1.0952130     1.5703990     1.4802000
  H       -2.7410530     2.2466610     1.5166010
  H       -0.6710550    -2.8260740     0.3542250
  H       -3.3063470    -2.0105220    -0.3629290
  H        0.4929290     1.8778260    -0.6840360
  H       -1.1980522     3.8509579     0.8052228
  H        2.9334840     2.3875570    -0.2389120
  H        5.1589650     1.2712730    -0.0008400
  H        5.2635310    -0.4031270     0.3606700
units angstrom
no_reorient  #important for SAPT in psi4, default
symmetry c1  #important for SAPT in psi4, default
}

set PROPERTIES_ORIGIN ["COM"]
properties('MP2/aug-cc-pvtz', properties = ['dipole'])
--------------------------------------------------------------------------

    Molecular point group: c1
  Charge       = 0
  Multiplicity = 1
  Basis Set: AUG-CC-PVTZ
    Blend: AUG-CC-PVTZ
  Basis Set: (AUG-CC-PVTZ AUX)
    Blend: AUG-CC-PVTZ-JKFIT

    Orbital Energies [Eh]
    ---------------------

    Doubly Occupied:

       1A    -20.590960     2A    -20.581218     3A    -20.559218
       4A    -20.556299     5A    -20.519593     6A    -15.632823
       7A    -15.599574     8A    -15.551635     9A    -11.385832
      10A    -11.357945    11A    -11.339433    12A    -11.324958
      13A    -11.302974    14A    -11.297695    15A    -11.296818
      16A    -11.293368    17A    -11.246410    18A     -1.428856
      19A     -1.393309    20A     -1.379213    21A     -1.369937
      22A     -1.346403    23A     -1.303525    24A     -1.271183
      25A     -1.181075    26A     -1.079127    27A     -1.067017
      28A     -1.016403    29A     -0.934668    30A     -0.906248
      31A     -0.876293    32A     -0.829710    33A     -0.812116
      34A     -0.766313    35A     -0.749771    36A     -0.733815
      37A     -0.720372    38A     -0.703217    39A     -0.700790
      40A     -0.684654    41A     -0.674806    42A     -0.652768
      43A     -0.648861    44A     -0.633095    45A     -0.619898
      46A     -0.614715    47A     -0.607292    48A     -0.592943
      49A     -0.576406    50A     -0.564584    51A     -0.554741
      52A     -0.547588    53A     -0.536121    54A     -0.530034
      55A     -0.495419    56A     -0.479748    57A     -0.473405
      58A     -0.463016    59A     -0.457824    60A     -0.452686
      61A     -0.441796    62A     -0.430098    63A     -0.392143
      64A     -0.348095

  @DF-RHF Final Energy:  -886.36905128530987

   => Energetics <=

    Nuclear Repulsion Energy =           1334.2401778221308177
    One-Electron Energy =               -3866.2607580185372171
    Two-Electron Energy =                1645.6515289110968752
    Total Energy =                       -886.3690512853097516
  Basis Set: (AUG-CC-PVTZ AUX)
    Blend: AUG-CC-PVTZ-RI
    Molecular point group: c1

    Geometry (in Angstrom), charge = 0, multiplicity = 1:

       Center              X                  Y                   Z               Mass
    ------------   -----------------  -----------------  -----------------  -----------------
         O           -1.331969692489     0.682300380619    -1.083593388829    15.994914619570
         O           -1.586353692489    -2.435620619381     0.529223611171    15.994914619570
         O           -3.573455692489    -1.041478619381    -0.444363388829    15.994914619570
         O           -1.452721692489     3.153926380619     0.142160611171    15.994914619570
         O            1.093760307511    -2.354900619381     0.023244611171    15.994914619570
         N            0.755843307511    -0.129479619381    -0.354992388829    14.003074004430
         N            2.923584307511    -0.965407619381     0.161650611171    14.003074004430
         N            4.693095307511     0.471575380619     0.376768611171    14.003074004430
         C           -1.389653692489    -1.039579619381     0.570920611171    12.000000000000
         C           -2.750776692489    -0.346171619381     0.473490611171    12.000000000000
         C           -0.650541692489    -0.475829619381    -0.663372388829    12.000000000000
         C           -2.383536692489     0.994009380619    -0.142863388829    12.000000000000
         C           -1.911995692489     2.018039380619     0.872780611171    12.000000000000
         C            1.218176307511     1.147544380619    -0.428580388829    12.000000000000
         C            1.597655307511    -1.218594619381    -0.042933388829    12.000000000000
         C            2.534672307511     1.403833380619    -0.184219388829    12.000000000000
         C            3.367416307511     0.280768380619     0.096483611171    12.000000000000
         H           -0.856928692489    -0.740230619381     1.485490611171     1.007825032230
         H           -3.238532692489    -0.249414619381     1.455665611171     1.007825032230
         H           -0.635499692489    -1.214347619381    -1.472729388829     1.007825032230
         H           -3.206967692489     1.407037380619    -0.731564388829     1.007825032230
         H           -1.108005692489     1.598863380619     1.495842611171     1.007825032230
         H           -2.753845692489     2.275125380619     1.532243611171     1.007825032230
         H           -0.683847692489    -2.797609619381     0.369867611171     1.007825032230
         H           -3.319139692489    -1.982057619381    -0.347286388829     1.007825032230
         H            0.480136307511     1.906290380619    -0.668393388829     1.007825032230
         H           -1.210844892489     3.879422280619     0.820865411171     1.007825032230
         H            2.920691307511     2.416021380619    -0.223269388829     1.007825032230
         H            5.146172307511     1.299737380619     0.014802611171     1.007825032230
         H            5.250738307511    -0.374662619381     0.376312611171     1.007825032230

  Basis Set: AUG-CC-PVTZ
    Blend: AUG-CC-PVTZ
  Basis Set: (AUG-CC-PVTZ AUX)
    Blend: AUG-CC-PVTZ-JKFIT
	 Reference Energy          =    -886.3690512853098653 [Eh]
	 Singles Energy            =      -0.0000000000000000 [Eh]
	 Same-Spin Energy          =      -0.9023809548525292 [Eh]
	 Opposite-Spin Energy      =      -2.7175174610411577 [Eh]
	 Correlation Energy        =      -3.6198984158936867 [Eh]
	 Total Energy              =    -889.9889497012035235 [Eh]

	 ================> DF-SCS-MP2 Energies <==================
	-----------------------------------------------------------
	 SCS Same-Spin Scale       =       0.3333333333333333 [-]
	 SCS Opposite-Spin Scale   =       1.2000000000000000 [-]
	 SCS Same-Spin Energy      =      -0.3007936516175097 [Eh]
	 SCS Opposite-Spin Energy  =      -3.2610209532493890 [Eh]
	 SCS Correlation Energy    =      -3.5618146048668988 [Eh]
	 SCS Total Energy          =    -889.9308658901767330 [Eh]
	-----------------------------------------------------------

  Dipole Moment: [D]
     X:     2.7430      Y:     5.8393      Z:     1.9688     Total:     6.7452

*** Psi4 exiting successfully. Buy a developer a beer!
