                               Psi4 1.3.2 release

  ==> Input File <==

--------------------------------------------------------------------------
#psi4
#
memory 32 gb

molecule  {
0 1
  O       -1.2554415    -0.6203677     1.0986419
  O       -1.2449750     2.4828510    -0.6861630
  O       -3.2165300     1.5210990     0.7448870
  O       -2.3570290    -3.0668370     0.0949400
  O        1.3605300     2.2470340    -0.0765420
  N        0.8434040     0.0452230     0.2559430
  N        3.0572260     0.7205030    -0.2937270
  N        4.7164630    -0.8366550    -0.5722980
  C       -1.2894840     1.0784300    -0.5920770
  C       -2.7151710     0.6552070    -0.2573930
  C       -0.5254080     0.4815200     0.6000940
  C       -2.5292560    -0.7168860     0.3610560
  C       -2.5283440    -1.8503930    -0.6392900
  C        1.2197750    -1.2614080     0.3112740
  C        1.7555940     1.0674350    -0.0594030
  C        2.5111010    -1.6091400     0.0469950
  C        3.4119830    -0.5506530    -0.2589250
  H       -0.9376060     0.5914040    -1.5148910
  H       -3.3625820     0.6426650    -1.1464650
  H       -0.4701275     1.1863775     1.4378049
  H       -3.2819570    -0.9087340     1.1307830
  H       -1.7133080    -1.7003050    -1.3694640
  H       -3.4855610    -1.8340040    -1.1841350
  H       -0.2975250     2.7131790    -0.5250000
  H       -2.8475560     2.3997430     0.5086630
  H        0.4343110    -1.9634370     0.5690680
  H       -2.4338740    -3.7984320    -0.5432330
  H        2.8291120    -2.6453980     0.0739220
  H        5.1251800    -1.6708610    -0.1624140
  H        5.3198140    -0.0200540    -0.5682940
units angstrom
no_reorient  #important for SAPT in psi4, default
symmetry c1  #important for SAPT in psi4, default
}

set PROPERTIES_ORIGIN ["COM"]
properties('MP2/aug-cc-pvtz', properties = ['dipole'])
--------------------------------------------------------------------------

    Molecular point group: c1
  Charge       = 0
  Multiplicity = 1
  Basis Set: AUG-CC-PVTZ
    Blend: AUG-CC-PVTZ
  Basis Set: (AUG-CC-PVTZ AUX)
    Blend: AUG-CC-PVTZ-JKFIT

    Orbital Energies [Eh]
    ---------------------

    Doubly Occupied:

       1A    -20.583442     2A    -20.580543     3A    -20.557539
       4A    -20.557323     5A    -20.521504     6A    -15.637035
       7A    -15.599966     8A    -15.553391     9A    -11.388135
      10A    -11.358010    11A    -11.339003    12A    -11.329200
      13A    -11.303848    14A    -11.298748    15A    -11.297611
      16A    -11.293633    17A    -11.248920    18A     -1.424016
      19A     -1.394668    20A     -1.379885    21A     -1.372596
      22A     -1.346068    23A     -1.305828    24A     -1.273346
      25A     -1.182095    26A     -1.081407    27A     -1.069867
      28A     -1.019373    29A     -0.935689    30A     -0.909100
      31A     -0.877570    32A     -0.830844    33A     -0.811286
      34A     -0.767633    35A     -0.751746    36A     -0.735250
      37A     -0.720298    38A     -0.703481    39A     -0.698306
      40A     -0.684356    41A     -0.673646    42A     -0.652902
      43A     -0.650673    44A     -0.636903    45A     -0.621395
      46A     -0.613769    47A     -0.605970    48A     -0.594082
      49A     -0.575900    50A     -0.563292    51A     -0.554308
      52A     -0.547187    53A     -0.536383    54A     -0.530871
      55A     -0.498375    56A     -0.478332    57A     -0.475849
      58A     -0.461791    59A     -0.459797    60A     -0.452865
      61A     -0.441458    62A     -0.433313    63A     -0.395285
      64A     -0.350079

  @DF-RHF Final Energy:  -886.37048412043350

   => Energetics <=

    Nuclear Repulsion Energy =           1322.3239460631132260
    One-Electron Energy =               -3842.3348887827646649
    Two-Electron Energy =                1633.6404585992177090
    Total Energy =                       -886.3704841204335025
  Basis Set: (AUG-CC-PVTZ AUX)
    Blend: AUG-CC-PVTZ-RI
    Molecular point group: c1

    Geometry (in Angstrom), charge = 0, multiplicity = 1:

       Center              X                  Y                   Z               Mass
    ------------   -----------------  -----------------  -----------------  -----------------
         O           -1.254834827087    -0.622345842371     1.094150625741    15.994914619570
         O           -1.244368327087     2.480872857629    -0.690654274259    15.994914619570
         O           -3.215923327087     1.519120857629     0.740395725741    15.994914619570
         O           -2.356422327087    -3.068815142371     0.090448725741    15.994914619570
         O            1.361136672913     2.245055857629    -0.081033274259    15.994914619570
         N            0.844010672913     0.043244857629     0.251451725741    14.003074004430
         N            3.057832672913     0.718524857629    -0.298218274259    14.003074004430
         N            4.717069672913    -0.838633142371    -0.576789274259    14.003074004430
         C           -1.288877327087     1.076451857629    -0.596568274259    12.000000000000
         C           -2.714564327087     0.653228857629    -0.261884274259    12.000000000000
         C           -0.524801327087     0.479541857629     0.595602725741    12.000000000000
         C           -2.528649327087    -0.718864142371     0.356564725741    12.000000000000
         C           -2.527737327087    -1.852371142371    -0.643781274259    12.000000000000
         C            1.220381672913    -1.263386142371     0.306782725741    12.000000000000
         C            1.756200672913     1.065456857629    -0.063894274259    12.000000000000
         C            2.511707672913    -1.611118142371     0.042503725741    12.000000000000
         C            3.412589672913    -0.552631142371    -0.263416274259    12.000000000000
         H           -0.936999327087     0.589425857629    -1.519382274259     1.007825032230
         H           -3.361975327087     0.640686857629    -1.150956274259     1.007825032230
         H           -0.469520827087     1.184399357629     1.433313625741     1.007825032230
         H           -3.281350327087    -0.910712142371     1.126291725741     1.007825032230
         H           -1.712701327087    -1.702283142371    -1.373955274259     1.007825032230
         H           -3.484954327087    -1.835982142371    -1.188626274259     1.007825032230
         H           -0.296918327087     2.711200857629    -0.529491274259     1.007825032230
         H           -2.846949327087     2.397764857629     0.504171725741     1.007825032230
         H            0.434917672913    -1.965415142371     0.564576725741     1.007825032230
         H           -2.433267327087    -3.800410142371    -0.547724274259     1.007825032230
         H            2.829718672913    -2.647376142371     0.069430725741     1.007825032230
         H            5.125786672913    -1.672839142371    -0.166905274259     1.007825032230
         H            5.320420672913    -0.022032142371    -0.572785274259     1.007825032230

  Basis Set: AUG-CC-PVTZ
    Blend: AUG-CC-PVTZ
  Basis Set: (AUG-CC-PVTZ AUX)
    Blend: AUG-CC-PVTZ-JKFIT
	 Reference Energy          =    -886.3704841204335025 [Eh]
	 Singles Energy            =      -0.0000000000000000 [Eh]
	 Same-Spin Energy          =      -0.9013281153333788 [Eh]
	 Opposite-Spin Energy      =      -2.7157460199802355 [Eh]
	 Correlation Energy        =      -3.6170741353136142 [Eh]
	 Total Energy              =    -889.9875582557471034 [Eh]

	 ================> DF-SCS-MP2 Energies <==================
	-----------------------------------------------------------
	 SCS Same-Spin Scale       =       0.3333333333333333 [-]
	 SCS Opposite-Spin Scale   =       1.2000000000000000 [-]
	 SCS Same-Spin Energy      =      -0.3004427051111263 [Eh]
	 SCS Opposite-Spin Energy  =      -3.2588952239762823 [Eh]
	 SCS Correlation Energy    =      -3.5593379290874085 [Eh]
	 SCS Total Energy          =    -889.9298220495209080 [Eh]
	-----------------------------------------------------------

  Dipole Moment: [D]
     X:     1.6775      Y:    -6.0231      Z:    -1.9371     Total:     6.5456

*** Psi4 exiting successfully. Buy a developer a beer!
