                               Psi4 1.3.2 release

  ==> Input File <==

--------------------------------------------------------------------------
#psi4
#
memory 32 gb

molecule  {
0 1
  O       -1.2481010    -0.6526680     1.0325150
  O       -1.2449750     2.4828510    -0.6861630
  O       -3.2165300     1.5210990     0.7448870
  O       -2.3570290    -3.0668370     0.0949400
  O        1.3605300     2.2470340    -0.0765420
  N        0.8434040     0.0452230     0.2559430
  N        3.0572260     0.7205030    -0.2937270
  N        4.7164630    -0.8366550    -0.5722980
  C       -1.2894840     1.0784300    -0.5920770
  C       -2.7151710     0.6552070    -0.2573930
  C       -0.5254080     0.4815200     0.6000940
  C       -2.5292560    -0.7168860     0.3610560
  C       -2.5283440    -1.8503930    -0.6392900
  C        1.2197750    -1.2614080     0.3112740
  C        1.7555940     1.0674350    -0.0594030
  C        2.5111010    -1.6091400     0.0469950
  C        3.4119830    -0.5506530    -0.2589250
  H       -0.9376060     0.5914040    -1.5148910
  H       -3.3625820     0.6426650    -1.1464650
  H       -0.4402900     1.2218800     1.4039980
  H       -3.2819570    -0.9087340     1.1307830
  H       -1.7133080    -1.7003050    -1.3694640
  H       -3.4855610    -1.8340040    -1.1841350
  H       -0.2975250     2.7131790    -0.5250000
  H       -2.8475560     2.3997430     0.5086630
  H        0.2894654    -2.0928966     0.6166072
  H       -2.4338740    -3.7984320    -0.5432330
  H        2.8291120    -2.6453980     0.0739220
  H        5.1251800    -1.6708610    -0.1624140
  H        5.3198140    -0.0200540    -0.5682940
units angstrom
no_reorient  #important for SAPT in psi4, default
symmetry c1  #important for SAPT in psi4, default
}

set PROPERTIES_ORIGIN ["COM"]
properties('MP2/aug-cc-pvtz', properties = ['dipole'])
--------------------------------------------------------------------------

    Molecular point group: c1
  Charge       = 0
  Multiplicity = 1
  Basis Set: AUG-CC-PVTZ
    Blend: AUG-CC-PVTZ
  Basis Set: (AUG-CC-PVTZ AUX)
    Blend: AUG-CC-PVTZ-JKFIT

    Orbital Energies [Eh]
    ---------------------

    Doubly Occupied:

       1A    -20.583917     2A    -20.581907     3A    -20.558024
       4A    -20.557352     5A    -20.522040     6A    -15.637513
       7A    -15.599317     8A    -15.552581     9A    -11.388447
      10A    -11.357338    11A    -11.343209    12A    -11.341740
      13A    -11.301926    14A    -11.297457    15A    -11.296786
      16A    -11.293273    17A    -11.247532    18A     -1.429627
      19A     -1.396528    20A     -1.380715    21A     -1.373952
      22A     -1.346475    23A     -1.305451    24A     -1.272929
      25A     -1.181584    26A     -1.078339    27A     -1.068180
      28A     -1.021518    29A     -0.935051    30A     -0.898508
      31A     -0.877030    32A     -0.831652    33A     -0.811615
      34A     -0.766437    35A     -0.747369    36A     -0.736450
      37A     -0.715690    38A     -0.702903    39A     -0.698779
      40A     -0.677864    41A     -0.669714    42A     -0.653720
      43A     -0.650928    44A     -0.638355    45A     -0.617943
      46A     -0.612736    47A     -0.596494    48A     -0.590986
      49A     -0.572567    50A     -0.565477    51A     -0.551558
      52A     -0.545959    53A     -0.536091    54A     -0.531867
      55A     -0.497827    56A     -0.478432    57A     -0.474789
      58A     -0.461040    59A     -0.459933    60A     -0.452914
      61A     -0.439892    62A     -0.432320    63A     -0.394853
      64A     -0.349315

  @DF-RHF Final Energy:  -886.34971916409756

   => Energetics <=

    Nuclear Repulsion Energy =           1322.9120587153158795
    One-Electron Energy =               -3843.5421085356224467
    Two-Electron Energy =                1634.2803306562088892
    Total Energy =                       -886.3497191640974506
  Basis Set: (AUG-CC-PVTZ AUX)
    Blend: AUG-CC-PVTZ-RI
    Molecular point group: c1

    Geometry (in Angstrom), charge = 0, multiplicity = 1:

       Center              X                  Y                   Z               Mass
    ------------   -----------------  -----------------  -----------------  -----------------
         O           -1.247500508569    -0.652131254373     1.032317911431    15.994914619570
         O           -1.244374508569     2.483387745627    -0.686360088569    15.994914619570
         O           -3.215929508569     1.521635745627     0.744689911431    15.994914619570
         O           -2.356428508569    -3.066300254373     0.094742911431    15.994914619570
         O            1.361130491431     2.247570745627    -0.076739088569    15.994914619570
         N            0.844004491431     0.045759745627     0.255745911431    14.003074004430
         N            3.057826491431     0.721039745627    -0.293924088569    14.003074004430
         N            4.717063491431    -0.836118254373    -0.572495088569    14.003074004430
         C           -1.288883508569     1.078966745627    -0.592274088569    12.000000000000
         C           -2.714570508569     0.655743745627    -0.257590088569    12.000000000000
         C           -0.524807508569     0.482056745627     0.599896911431    12.000000000000
         C           -2.528655508569    -0.716349254373     0.360858911431    12.000000000000
         C           -2.527743508569    -1.849856254373    -0.639487088569    12.000000000000
         C            1.220375491431    -1.260871254373     0.311076911431    12.000000000000
         C            1.756194491431     1.067971745627    -0.059600088569    12.000000000000
         C            2.511701491431    -1.608603254373     0.046797911431    12.000000000000
         C            3.412583491431    -0.550116254373    -0.259122088569    12.000000000000
         H           -0.937005508569     0.591940745627    -1.515088088569     1.007825032230
         H           -3.361981508569     0.643201745627    -1.146662088569     1.007825032230
         H           -0.439689508569     1.222416745627     1.403800911431     1.007825032230
         H           -3.281356508569    -0.908197254373     1.130585911431     1.007825032230
         H           -1.712707508569    -1.699768254373    -1.369661088569     1.007825032230
         H           -3.484960508569    -1.833467254373    -1.184332088569     1.007825032230
         H           -0.296924508569     2.713715745627    -0.525197088569     1.007825032230
         H           -2.846955508569     2.400279745627     0.508465911431     1.007825032230
         H            0.290065891431    -2.092359854373     0.616410111431     1.007825032230
         H           -2.433273508569    -3.797895254373    -0.543430088569     1.007825032230
         H            2.829712491431    -2.644861254373     0.073724911431     1.007825032230
         H            5.125780491431    -1.670324254373    -0.162611088569     1.007825032230
         H            5.320414491431    -0.019517254373    -0.568491088569     1.007825032230

  Basis Set: AUG-CC-PVTZ
    Blend: AUG-CC-PVTZ
  Basis Set: (AUG-CC-PVTZ AUX)
    Blend: AUG-CC-PVTZ-JKFIT
	 Reference Energy          =    -886.3497191640975643 [Eh]
	 Singles Energy            =      -0.0000000000000000 [Eh]
	 Same-Spin Energy          =      -0.9025226695829288 [Eh]
	 Opposite-Spin Energy      =      -2.7176915022667130 [Eh]
	 Correlation Energy        =      -3.6202141718496419 [Eh]
	 Total Energy              =    -889.9699333359471893 [Eh]

	 ================> DF-SCS-MP2 Energies <==================
	-----------------------------------------------------------
	 SCS Same-Spin Scale       =       0.3333333333333333 [-]
	 SCS Opposite-Spin Scale   =       1.2000000000000000 [-]
	 SCS Same-Spin Energy      =      -0.3008408898609762 [Eh]
	 SCS Opposite-Spin Energy  =      -3.2612298027200555 [Eh]
	 SCS Correlation Energy    =      -3.5620706925810319 [Eh]
	 SCS Total Energy          =    -889.9117898566786380 [Eh]
	-----------------------------------------------------------

  Dipole Moment: [D]
     X:     1.5727      Y:    -5.9723      Z:    -1.8032     Total:     6.4338

*** Psi4 exiting successfully. Buy a developer a beer!
