                               Psi4 1.3.2 release

  ==> Input File <==

--------------------------------------------------------------------------
#psi4
#
memory 32 gb

molecule  {
0 1
  O       -1.2481010    -0.6526680     1.0325150
  O       -1.2449750     2.4828510    -0.6861630
  O       -3.2165300     1.5210990     0.7448870
  O       -2.3570290    -3.0668370     0.0949400
  O        1.3605300     2.2470340    -0.0765420
  N        0.8434040     0.0452230     0.2559430
  N        3.0572260     0.7205030    -0.2937270
  N        4.7164630    -0.8366550    -0.5722980
  C       -1.2894840     1.0784300    -0.5920770
  C       -2.7151710     0.6552070    -0.2573930
  C       -0.5186672     0.4735278     0.5916967
  C       -2.5292560    -0.7168860     0.3610560
  C       -2.5283440    -1.8503930    -0.6392900
  C        1.2197750    -1.2614080     0.3112740
  C        1.7555940     1.0674350    -0.0594030
  C        2.5111010    -1.6091400     0.0469950
  C        3.4119830    -0.5506530    -0.2589250
  H       -0.9315419     0.5860506    -1.5097033
  H       -3.3625820     0.6426650    -1.1464650
  H       -0.4402900     1.2218800     1.4039980
  H       -3.2819570    -0.9087340     1.1307830
  H       -1.7133080    -1.7003050    -1.3694640
  H       -3.4855610    -1.8340040    -1.1841350
  H       -0.2975250     2.7131790    -0.5250000
  H       -2.8475560     2.3997430     0.5086630
  H        0.4343110    -1.9634370     0.5690680
  H       -2.4338740    -3.7984320    -0.5432330
  H        2.8291120    -2.6453980     0.0739220
  H        5.1251800    -1.6708610    -0.1624140
  H        5.3198140    -0.0200540    -0.5682940
units angstrom
no_reorient  #important for SAPT in psi4, default
symmetry c1  #important for SAPT in psi4, default
}

set PROPERTIES_ORIGIN ["COM"]
properties('MP2/aug-cc-pvtz', properties = ['dipole'])
--------------------------------------------------------------------------

    Molecular point group: c1
  Charge       = 0
  Multiplicity = 1
  Basis Set: AUG-CC-PVTZ
    Blend: AUG-CC-PVTZ
  Basis Set: (AUG-CC-PVTZ AUX)
    Blend: AUG-CC-PVTZ-JKFIT

    Orbital Energies [Eh]
    ---------------------

    Doubly Occupied:

       1A    -20.582186     2A    -20.581241     3A    -20.557465
       4A    -20.557397     5A    -20.522438     6A    -15.637695
       7A    -15.600220     8A    -15.553845     9A    -11.388896
      10A    -11.358315    11A    -11.341019    12A    -11.329014
      13A    -11.301082    14A    -11.296773    15A    -11.296403
      16A    -11.292832    17A    -11.249065    18A     -1.429582
      19A     -1.396818    20A     -1.379975    21A     -1.372752
      22A     -1.346102    23A     -1.306773    24A     -1.275193
      25A     -1.182967    26A     -1.082795    27A     -1.067562
      28A     -1.021115    29A     -0.935729    30A     -0.910324
      31A     -0.877839    32A     -0.831523    33A     -0.811981
      34A     -0.767785    35A     -0.753140    36A     -0.735766
      37A     -0.720513    38A     -0.703145    39A     -0.698252
      40A     -0.685880    41A     -0.673091    42A     -0.653855
      43A     -0.651751    44A     -0.638478    45A     -0.620658
      46A     -0.614972    47A     -0.606430    48A     -0.594508
      49A     -0.575717    50A     -0.569049    51A     -0.554267
      52A     -0.545948    53A     -0.537558    54A     -0.531149
      55A     -0.498272    56A     -0.477436    57A     -0.474567
      58A     -0.462065    59A     -0.460147    60A     -0.452403
      61A     -0.440150    62A     -0.433569    63A     -0.395204
      64A     -0.350297

  @DF-RHF Final Energy:  -886.37310457202511

   => Energetics <=

    Nuclear Repulsion Energy =           1323.8888494795753559
    One-Electron Energy =               -3845.4220341712079971
    Two-Electron Energy =                1635.1600801196073007
    Total Energy =                       -886.3731045720251132
  Basis Set: (AUG-CC-PVTZ AUX)
    Blend: AUG-CC-PVTZ-RI
    Molecular point group: c1

    Geometry (in Angstrom), charge = 0, multiplicity = 1:

       Center              X                  Y                   Z               Mass
    ------------   -----------------  -----------------  -----------------  -----------------
         O           -1.248458937408    -0.652251257140     1.032908035029    15.994914619570
         O           -1.245332937408     2.483267742860    -0.685769964971    15.994914619570
         O           -3.216887937408     1.521515742860     0.745280035029    15.994914619570
         O           -2.357386937408    -3.066420257140     0.095333035029    15.994914619570
         O            1.360172062592     2.247450742860    -0.076148964971    15.994914619570
         N            0.843046062592     0.045639742860     0.256336035029    14.003074004430
         N            3.056868062592     0.720919742860    -0.293333964971    14.003074004430
         N            4.716105062592    -0.836238257140    -0.571904964971    14.003074004430
         C           -1.289841937408     1.078846742860    -0.591683964971    12.000000000000
         C           -2.715528937408     0.655623742860    -0.256999964971    12.000000000000
         C           -0.519025137408     0.473944542860     0.592089735029    12.000000000000
         C           -2.529613937408    -0.716469257140     0.361449035029    12.000000000000
         C           -2.528701937408    -1.849976257140    -0.638896964971    12.000000000000
         C            1.219417062592    -1.260991257140     0.311667035029    12.000000000000
         C            1.755236062592     1.067851742860    -0.059009964971    12.000000000000
         C            2.510743062592    -1.608723257140     0.047388035029    12.000000000000
         C            3.411625062592    -0.550236257140    -0.258531964971    12.000000000000
         H           -0.931899837408     0.586467342860    -1.509310264971     1.007825032230
         H           -3.362939937408     0.643081742860    -1.146071964971     1.007825032230
         H           -0.440647937408     1.222296742860     1.404391035029     1.007825032230
         H           -3.282314937408    -0.908317257140     1.131176035029     1.007825032230
         H           -1.713665937408    -1.699888257140    -1.369070964971     1.007825032230
         H           -3.485918937408    -1.833587257140    -1.183741964971     1.007825032230
         H           -0.297882937408     2.713595742860    -0.524606964971     1.007825032230
         H           -2.847913937408     2.400159742860     0.509056035029     1.007825032230
         H            0.433953062592    -1.963020257140     0.569461035029     1.007825032230
         H           -2.434231937408    -3.798015257140    -0.542839964971     1.007825032230
         H            2.828754062592    -2.644981257140     0.074315035029     1.007825032230
         H            5.124822062592    -1.670444257140    -0.162020964971     1.007825032230
         H            5.319456062592    -0.019637257140    -0.567900964971     1.007825032230

  Basis Set: AUG-CC-PVTZ
    Blend: AUG-CC-PVTZ
  Basis Set: (AUG-CC-PVTZ AUX)
    Blend: AUG-CC-PVTZ-JKFIT
	 Reference Energy          =    -886.3731045720251132 [Eh]
	 Singles Energy            =      -0.0000000000000000 [Eh]
	 Same-Spin Energy          =      -0.9013374304179765 [Eh]
	 Opposite-Spin Energy      =      -2.7150345660632089 [Eh]
	 Correlation Energy        =      -3.6163719964811856 [Eh]
	 Total Energy              =    -889.9894765685063476 [Eh]

	 ================> DF-SCS-MP2 Energies <==================
	-----------------------------------------------------------
	 SCS Same-Spin Scale       =       0.3333333333333333 [-]
	 SCS Opposite-Spin Scale   =       1.2000000000000000 [-]
	 SCS Same-Spin Energy      =      -0.3004458101393255 [Eh]
	 SCS Opposite-Spin Energy  =      -3.2580414792758505 [Eh]
	 SCS Correlation Energy    =      -3.5584872894151758 [Eh]
	 SCS Total Energy          =    -889.9315918614403245 [Eh]
	-----------------------------------------------------------

  Dipole Moment: [D]
     X:     1.7550      Y:    -5.9646      Z:    -1.8374     Total:     6.4832

*** Psi4 exiting successfully. Buy a developer a beer!
