                               Psi4 1.3.2 release

  ==> Input File <==

--------------------------------------------------------------------------
#psi4
#
memory 32 gb

molecule  {
0 1
  O       -1.2481010    -0.6526680     1.0325150
  O       -1.2449750     2.4828510    -0.6861630
  O       -3.2165300     1.5210990     0.7448870
  O       -2.3570290    -3.0668370     0.0949400
  O        1.3605300     2.2470340    -0.0765420
  N        0.9104841     0.0618701     0.2386413
  N        3.0572260     0.7205030    -0.2937270
  N        4.7164630    -0.8366550    -0.5722980
  C       -1.2894840     1.0784300    -0.5920770
  C       -2.7151710     0.6552070    -0.2573930
  C       -0.5254080     0.4815200     0.6000940
  C       -2.5292560    -0.7168860     0.3610560
  C       -2.5283440    -1.8503930    -0.6392900
  C        1.2197750    -1.2614080     0.3112740
  C        1.7555940     1.0674350    -0.0594030
  C        2.5111010    -1.6091400     0.0469950
  C        3.4119830    -0.5506530    -0.2589250
  H       -0.9376060     0.5914040    -1.5148910
  H       -3.3625820     0.6426650    -1.1464650
  H       -0.4402900     1.2218800     1.4039980
  H       -3.2819570    -0.9087340     1.1307830
  H       -1.7133080    -1.7003050    -1.3694640
  H       -3.4855610    -1.8340040    -1.1841350
  H       -0.2975250     2.7131790    -0.5250000
  H       -2.8475560     2.3997430     0.5086630
  H        0.4724102    -2.0053241     0.5648303
  H       -2.4338740    -3.7984320    -0.5432330
  H        2.8291120    -2.6453980     0.0739220
  H        5.1251800    -1.6708610    -0.1624140
  H        5.3198140    -0.0200540    -0.5682940
units angstrom
no_reorient  #important for SAPT in psi4, default
symmetry c1  #important for SAPT in psi4, default
}

set PROPERTIES_ORIGIN ["COM"]
properties('MP2/aug-cc-pvtz', properties = ['dipole'])
--------------------------------------------------------------------------

    Molecular point group: c1
  Charge       = 0
  Multiplicity = 1
  Basis Set: AUG-CC-PVTZ
    Blend: AUG-CC-PVTZ
  Basis Set: (AUG-CC-PVTZ AUX)
    Blend: AUG-CC-PVTZ-JKFIT

    Orbital Energies [Eh]
    ---------------------

    Doubly Occupied:

       1A    -20.584624     2A    -20.583232     3A    -20.558571
       4A    -20.557228     5A    -20.515817     6A    -15.637273
       7A    -15.597752     8A    -15.550083     9A    -11.380478
      10A    -11.355014    11A    -11.346681    12A    -11.328780
      13A    -11.302234    14A    -11.298527    15A    -11.298156
      16A    -11.294070    17A    -11.249420    18A     -1.429306
      19A     -1.399253    20A     -1.380772    21A     -1.373388
      22A     -1.346818    23A     -1.306439    24A     -1.272150
      25A     -1.178177    26A     -1.082542    27A     -1.068860
      28A     -1.024480    29A     -0.932306    30A     -0.918179
      31A     -0.876340    32A     -0.831130    33A     -0.812440
      34A     -0.768588    35A     -0.752985    36A     -0.736010
      37A     -0.718623    38A     -0.703011    39A     -0.698609
      40A     -0.686123    41A     -0.673194    42A     -0.655766
      43A     -0.651180    44A     -0.641294    45A     -0.621713
      46A     -0.616860    47A     -0.607201    48A     -0.586583
      49A     -0.575990    50A     -0.570296    51A     -0.553070
      52A     -0.544657    53A     -0.537347    54A     -0.532640
      55A     -0.495143    56A     -0.478323    57A     -0.475029
      58A     -0.462828    59A     -0.457569    60A     -0.453472
      61A     -0.440859    62A     -0.430922    63A     -0.393189
      64A     -0.352324

  @DF-RHF Final Energy:  -886.36749547247098

   => Energetics <=

    Nuclear Repulsion Energy =           1323.4111517436101622
    One-Electron Energy =               -3844.4734559748389984
    Two-Electron Energy =                1634.6948087587581995
    Total Energy =                       -886.3674954724708641
  Basis Set: (AUG-CC-PVTZ AUX)
    Blend: AUG-CC-PVTZ-RI
    Molecular point group: c1

    Geometry (in Angstrom), charge = 0, multiplicity = 1:

       Center              X                  Y                   Z               Mass
    ------------   -----------------  -----------------  -----------------  -----------------
         O           -1.252123177789    -0.653453292519     1.033529250719    15.994914619570
         O           -1.248997177789     2.482065707481    -0.685148749281    15.994914619570
         O           -3.220552177789     1.520313707481     0.745901250719    15.994914619570
         O           -2.361051177789    -3.067622292519     0.095954250719    15.994914619570
         O            1.356507822211     2.246248707481    -0.075527749281    15.994914619570
         N            0.906461922211     0.061084807481     0.239655550719    14.003074004430
         N            3.053203822211     0.719717707481    -0.292712749281    14.003074004430
         N            4.712440822211    -0.837440292519    -0.571283749281    14.003074004430
         C           -1.293506177789     1.077644707481    -0.591062749281    12.000000000000
         C           -2.719193177789     0.654421707481    -0.256378749281    12.000000000000
         C           -0.529430177789     0.480734707481     0.601108250719    12.000000000000
         C           -2.533278177789    -0.717671292519     0.362070250719    12.000000000000
         C           -2.532366177789    -1.851178292519    -0.638275749281    12.000000000000
         C            1.215752822211    -1.262193292519     0.312288250719    12.000000000000
         C            1.751571822211     1.066649707481    -0.058388749281    12.000000000000
         C            2.507078822211    -1.609925292519     0.048009250719    12.000000000000
         C            3.407960822211    -0.551438292519    -0.257910749281    12.000000000000
         H           -0.941628177789     0.590618707481    -1.513876749281     1.007825032230
         H           -3.366604177789     0.641879707481    -1.145450749281     1.007825032230
         H           -0.444312177789     1.221094707481     1.405012250719     1.007825032230
         H           -3.285979177789    -0.909519292519     1.131797250719     1.007825032230
         H           -1.717330177789    -1.701090292519    -1.368449749281     1.007825032230
         H           -3.489583177789    -1.834789292519    -1.183120749281     1.007825032230
         H           -0.301547177789     2.712393707481    -0.523985749281     1.007825032230
         H           -2.851578177789     2.398957707481     0.509677250719     1.007825032230
         H            0.468388022211    -2.006109392519     0.565844550719     1.007825032230
         H           -2.437896177789    -3.799217292519    -0.542218749281     1.007825032230
         H            2.825089822211    -2.646183292519     0.074936250719     1.007825032230
         H            5.121157822211    -1.671646292519    -0.161399749281     1.007825032230
         H            5.315791822211    -0.020839292519    -0.567279749281     1.007825032230

  Basis Set: AUG-CC-PVTZ
    Blend: AUG-CC-PVTZ
  Basis Set: (AUG-CC-PVTZ AUX)
    Blend: AUG-CC-PVTZ-JKFIT
	 Reference Energy          =    -886.3674954724709778 [Eh]
	 Singles Energy            =      -0.0000000000000000 [Eh]
	 Same-Spin Energy          =      -0.9013444836275812 [Eh]
	 Opposite-Spin Energy      =      -2.7150948627483311 [Eh]
	 Correlation Energy        =      -3.6164393463759126 [Eh]
	 Total Energy              =    -889.9839348188469330 [Eh]

	 ================> DF-SCS-MP2 Energies <==================
	-----------------------------------------------------------
	 SCS Same-Spin Scale       =       0.3333333333333333 [-]
	 SCS Opposite-Spin Scale   =       1.2000000000000000 [-]
	 SCS Same-Spin Energy      =      -0.3004481612091937 [Eh]
	 SCS Opposite-Spin Energy  =      -3.2581138352979973 [Eh]
	 SCS Correlation Energy    =      -3.5585619965071911 [Eh]
	 SCS Total Energy          =    -889.9260574689781151 [Eh]
	-----------------------------------------------------------

  Dipole Moment: [D]
     X:     1.5363      Y:    -6.1604      Z:    -1.7739     Total:     6.5923

*** Psi4 exiting successfully. Buy a developer a beer!
