                               Psi4 1.3.2 release

  ==> Input File <==

--------------------------------------------------------------------------
#psi4
#
memory 32 gb

molecule  {
0 1
  O       -1.2481010    -0.6526680     1.0325150
  O       -1.2449750     2.4828510    -0.6861630
  O       -3.2165300     1.5210990     0.7448870
  O       -2.3570290    -3.0668370     0.0949400
  O        1.3605300     2.2470340    -0.0765420
  N        0.8434040     0.0452230     0.2559430
  N        3.0572260     0.7205030    -0.2937270
  N        4.7164630    -0.8366550    -0.5722980
  C       -1.2863235     1.1781565    -0.5987580
  C       -2.7151710     0.6552070    -0.2573930
  C       -0.5254080     0.4815200     0.6000940
  C       -2.5292560    -0.7168860     0.3610560
  C       -2.5283440    -1.8503930    -0.6392900
  C        1.2197750    -1.2614080     0.3112740
  C        1.7555940     1.0674350    -0.0594030
  C        2.5111010    -1.6091400     0.0469950
  C        3.4119830    -0.5506530    -0.2589250
  H       -0.9376060     0.5914040    -1.5148910
  H       -3.3625820     0.6426650    -1.1464650
  H       -0.4402900     1.2218800     1.4039980
  H       -3.2819570    -0.9087340     1.1307830
  H       -1.7133080    -1.7003050    -1.3694640
  H       -3.4855610    -1.8340040    -1.1841350
  H       -0.2975250     2.7131790    -0.5250000
  H       -2.8475560     2.3997430     0.5086630
  H        0.4343110    -1.9634370     0.5690680
  H       -2.4338740    -3.7984320    -0.5432330
  H        2.8291120    -2.6453980     0.0739220
  H        5.1251800    -1.6708610    -0.1624140
  H        5.3198140    -0.0200540    -0.5682940
units angstrom
no_reorient  #important for SAPT in psi4, default
symmetry c1  #important for SAPT in psi4, default
}

set PROPERTIES_ORIGIN ["COM"]
properties('MP2/aug-cc-pvtz', properties = ['dipole'])
--------------------------------------------------------------------------

    Molecular point group: c1
  Charge       = 0
  Multiplicity = 1
  Basis Set: AUG-CC-PVTZ
    Blend: AUG-CC-PVTZ
  Basis Set: (AUG-CC-PVTZ AUX)
    Blend: AUG-CC-PVTZ-JKFIT

    Orbital Energies [Eh]
    ---------------------

    Doubly Occupied:

       1A    -20.581265     2A    -20.581132     3A    -20.567525
       4A    -20.556558     5A    -20.523239     6A    -15.636129
       7A    -15.599330     8A    -15.553078     9A    -11.388434
      10A    -11.357272    11A    -11.339057    12A    -11.327441
      13A    -11.301209    14A    -11.299628    15A    -11.296334
      16A    -11.291292    17A    -11.247605    18A     -1.434788
      19A     -1.408110    20A     -1.396158    21A     -1.373237
      22A     -1.355901    23A     -1.305912    24A     -1.272793
      25A     -1.181723    26A     -1.079946    27A     -1.061025
      28A     -1.011598    29A     -0.932659    30A     -0.908274
      31A     -0.876648    32A     -0.833943    33A     -0.808746
      34A     -0.766058    35A     -0.754785    36A     -0.741656
      37A     -0.718749    38A     -0.705174    39A     -0.702666
      40A     -0.685164    41A     -0.674118    42A     -0.654685
      43A     -0.652490    44A     -0.638530    45A     -0.625296
      46A     -0.620583    47A     -0.607461    48A     -0.597958
      49A     -0.577766    50A     -0.570355    51A     -0.558210
      52A     -0.548066    53A     -0.543150    54A     -0.531548
      55A     -0.498930    56A     -0.475906    57A     -0.469017
      58A     -0.462280    59A     -0.459434    60A     -0.439746
      61A     -0.434069    62A     -0.429635    63A     -0.393053
      64A     -0.348221

  @DF-RHF Final Energy:  -886.36336568734600

   => Energetics <=

    Nuclear Repulsion Energy =           1323.2574558915266607
    One-Electron Energy =               -3844.0961487894933271
    Two-Electron Energy =                1634.4753272106206623
    Total Energy =                       -886.3633656873460041
  Basis Set: (AUG-CC-PVTZ AUX)
    Blend: AUG-CC-PVTZ-RI
    Molecular point group: c1

    Geometry (in Angstrom), charge = 0, multiplicity = 1:

       Center              X                  Y                   Z               Mass
    ------------   -----------------  -----------------  -----------------  -----------------
         O           -1.248257053102    -0.657591022699     1.032844817335    15.994914619570
         O           -1.245131053102     2.477927977301    -0.685833182665    15.994914619570
         O           -3.216686053102     1.516175977301     0.745216817335    15.994914619570
         O           -2.357185053102    -3.071760022699     0.095269817335    15.994914619570
         O            1.360373946898     2.242110977301    -0.076212182665    15.994914619570
         N            0.843247946898     0.040299977301     0.256272817335    14.003074004430
         N            3.057069946898     0.715579977301    -0.293397182665    14.003074004430
         N            4.716306946898    -0.841578022699    -0.571968182665    14.003074004430
         C           -1.286479553102     1.173233477301    -0.598428182665    12.000000000000
         C           -2.715327053102     0.650283977301    -0.257063182665    12.000000000000
         C           -0.525564053102     0.476596977301     0.600423817335    12.000000000000
         C           -2.529412053102    -0.721809022699     0.361385817335    12.000000000000
         C           -2.528500053102    -1.855316022699    -0.638960182665    12.000000000000
         C            1.219618946898    -1.266331022699     0.311603817335    12.000000000000
         C            1.755437946898     1.062511977301    -0.059073182665    12.000000000000
         C            2.510944946898    -1.614063022699     0.047324817335    12.000000000000
         C            3.411826946898    -0.555576022699    -0.258595182665    12.000000000000
         H           -0.937762053102     0.586480977301    -1.514561182665     1.007825032230
         H           -3.362738053102     0.637741977301    -1.146135182665     1.007825032230
         H           -0.440446053102     1.216956977301     1.404327817335     1.007825032230
         H           -3.282113053102    -0.913657022699     1.131112817335     1.007825032230
         H           -1.713464053102    -1.705228022699    -1.369134182665     1.007825032230
         H           -3.485717053102    -1.838927022699    -1.183805182665     1.007825032230
         H           -0.297681053102     2.708255977301    -0.524670182665     1.007825032230
         H           -2.847712053102     2.394819977301     0.508992817335     1.007825032230
         H            0.434154946898    -1.968360022699     0.569397817335     1.007825032230
         H           -2.434030053102    -3.803355022699    -0.542903182665     1.007825032230
         H            2.828955946898    -2.650321022699     0.074251817335     1.007825032230
         H            5.125023946898    -1.675784022699    -0.162084182665     1.007825032230
         H            5.319657946898    -0.024977022699    -0.567964182665     1.007825032230

  Basis Set: AUG-CC-PVTZ
    Blend: AUG-CC-PVTZ
  Basis Set: (AUG-CC-PVTZ AUX)
    Blend: AUG-CC-PVTZ-JKFIT
	 Reference Energy          =    -886.3633656873460041 [Eh]
	 Singles Energy            =      -0.0000000000000000 [Eh]
	 Same-Spin Energy          =      -0.9014657555685742 [Eh]
	 Opposite-Spin Energy      =      -2.7141230956867979 [Eh]
	 Correlation Energy        =      -3.6155888512553722 [Eh]
	 Total Energy              =    -889.9789545386013287 [Eh]

	 ================> DF-SCS-MP2 Energies <==================
	-----------------------------------------------------------
	 SCS Same-Spin Scale       =       0.3333333333333333 [-]
	 SCS Opposite-Spin Scale   =       1.2000000000000000 [-]
	 SCS Same-Spin Energy      =      -0.3004885851895247 [Eh]
	 SCS Opposite-Spin Energy  =      -3.2569477148241575 [Eh]
	 SCS Correlation Energy    =      -3.5574363000136824 [Eh]
	 SCS Total Energy          =    -889.9208019873597095 [Eh]
	-----------------------------------------------------------

  Dipole Moment: [D]
     X:     1.7027      Y:    -5.6142      Z:    -1.8382     Total:     6.1480

*** Psi4 exiting successfully. Buy a developer a beer!
