                               Psi4 1.3.2 release

  ==> Input File <==

--------------------------------------------------------------------------
#psi4
#
memory 32 gb

molecule  {
0 1
  O       -1.2481010    -0.6526680     1.0325150
  O       -1.2449750     2.4828510    -0.6861630
  O       -3.2272360     1.5149254     0.7447890
  O       -2.3570290    -3.0668370     0.0949400
  O        1.3605300     2.2470340    -0.0765420
  N        0.8434040     0.0452230     0.2559430
  N        3.0572260     0.7205030    -0.2937270
  N        4.7164630    -0.8366550    -0.5722980
  C       -1.2887278     1.0686059    -0.6010143
  C       -2.7151710     0.6552070    -0.2573930
  C       -0.5254080     0.4815200     0.6000940
  C       -2.5292560    -0.7168860     0.3610560
  C       -2.5283440    -1.8503930    -0.6392900
  C        1.2197750    -1.2614080     0.3112740
  C        1.7555940     1.0674350    -0.0594030
  C        2.5111010    -1.6091400     0.0469950
  C        3.4119830    -0.5506530    -0.2589250
  H       -0.9376060     0.5914040    -1.5148910
  H       -3.3625820     0.6426650    -1.1464650
  H       -0.4402900     1.2218800     1.4039980
  H       -3.2819570    -0.9087340     1.1307830
  H       -1.7133080    -1.7003050    -1.3694640
  H       -3.4855610    -1.8340040    -1.1841350
  H       -0.2975250     2.7131790    -0.5250000
  H       -2.8475560     2.3997430     0.5086630
  H        0.4343110    -1.9634370     0.5690680
  H       -2.4338740    -3.7984320    -0.5432330
  H        2.8291120    -2.6453980     0.0739220
  H        5.1251800    -1.6708610    -0.1624140
  H        5.3198140    -0.0200540    -0.5682940
units angstrom
no_reorient  #important for SAPT in psi4, default
symmetry c1  #important for SAPT in psi4, default
}

set PROPERTIES_ORIGIN ["COM"]
properties('MP2/aug-cc-pvtz', properties = ['dipole'])
--------------------------------------------------------------------------

    Molecular point group: c1
  Charge       = 0
  Multiplicity = 1
  Basis Set: AUG-CC-PVTZ
    Blend: AUG-CC-PVTZ
  Basis Set: (AUG-CC-PVTZ AUX)
    Blend: AUG-CC-PVTZ-JKFIT

    Orbital Energies [Eh]
    ---------------------

    Doubly Occupied:

       1A    -20.582233     2A    -20.581523     3A    -20.558945
       4A    -20.556765     5A    -20.521963     6A    -15.636964
       7A    -15.599924     8A    -15.553416     9A    -11.388290
      10A    -11.357935    11A    -11.341965    12A    -11.328604
      13A    -11.301169    14A    -11.296657    15A    -11.296576
      16A    -11.292939    17A    -11.248654    18A     -1.429088
      19A     -1.396354    20A     -1.378204    21A     -1.372060
      22A     -1.344047    23A     -1.306101    24A     -1.273884
      25A     -1.182318    26A     -1.082039    27A     -1.067785
      28A     -1.021445    29A     -0.935304    30A     -0.909565
      31A     -0.877198    32A     -0.832771    33A     -0.811573
      34A     -0.767099    35A     -0.752182    36A     -0.735852
      37A     -0.720416    38A     -0.702027    39A     -0.698318
      40A     -0.685659    41A     -0.671753    42A     -0.654703
      43A     -0.651446    44A     -0.638672    45A     -0.620429
      46A     -0.613911    47A     -0.606673    48A     -0.593464
      49A     -0.575372    50A     -0.569576    51A     -0.553331
      52A     -0.545720    53A     -0.536805    54A     -0.531540
      55A     -0.498173    56A     -0.477409    57A     -0.475024
      58A     -0.462183    59A     -0.459949    60A     -0.454168
      61A     -0.440764    62A     -0.433252    63A     -0.395285
      64A     -0.350074

  @DF-RHF Final Energy:  -886.37240028761641

   => Energetics <=

    Nuclear Repulsion Energy =           1323.4134491666884514
    One-Electron Energy =               -3844.5007265511071637
    Two-Electron Energy =                1634.7148770968019562
    Total Energy =                       -886.3724002876165287
  Basis Set: (AUG-CC-PVTZ AUX)
    Blend: AUG-CC-PVTZ-RI
    Molecular point group: c1

    Geometry (in Angstrom), charge = 0, multiplicity = 1:

       Center              X                  Y                   Z               Mass
    ------------   -----------------  -----------------  -----------------  -----------------
         O           -1.247433914169    -0.651776799780     1.032962648712    15.994914619570
         O           -1.244307914169     2.483742200220    -0.685715351288    15.994914619570
         O           -3.226568914169     1.515816600220     0.745236648712    15.994914619570
         O           -2.356361914169    -3.065945799780     0.095387648712    15.994914619570
         O            1.361197085831     2.247925200220    -0.076094351288    15.994914619570
         N            0.844071085831     0.046114200220     0.256390648712    14.003074004430
         N            3.057893085831     0.721394200220    -0.293279351288    14.003074004430
         N            4.717130085831    -0.835763799780    -0.571850351288    14.003074004430
         C           -1.288060714169     1.069497100220    -0.600566651288    12.000000000000
         C           -2.714503914169     0.656098200220    -0.256945351288    12.000000000000
         C           -0.524740914169     0.482411200220     0.600541648712    12.000000000000
         C           -2.528588914169    -0.715994799780     0.361503648712    12.000000000000
         C           -2.527676914169    -1.849501799780    -0.638842351288    12.000000000000
         C            1.220442085831    -1.260516799780     0.311721648712    12.000000000000
         C            1.756261085831     1.068326200220    -0.058955351288    12.000000000000
         C            2.511768085831    -1.608248799780     0.047442648712    12.000000000000
         C            3.412650085831    -0.549761799780    -0.258477351288    12.000000000000
         H           -0.936938914169     0.592295200220    -1.514443351288     1.007825032230
         H           -3.361914914169     0.643556200220    -1.146017351288     1.007825032230
         H           -0.439622914169     1.222771200220     1.404445648712     1.007825032230
         H           -3.281289914169    -0.907842799780     1.131230648712     1.007825032230
         H           -1.712640914169    -1.699413799780    -1.369016351288     1.007825032230
         H           -3.484893914169    -1.833112799780    -1.183687351288     1.007825032230
         H           -0.296857914169     2.714070200220    -0.524552351288     1.007825032230
         H           -2.846888914169     2.400634200220     0.509110648712     1.007825032230
         H            0.434978085831    -1.962545799780     0.569515648712     1.007825032230
         H           -2.433206914169    -3.797540799780    -0.542785351288     1.007825032230
         H            2.829779085831    -2.644506799780     0.074369648712     1.007825032230
         H            5.125847085831    -1.669969799780    -0.161966351288     1.007825032230
         H            5.320481085831    -0.019162799780    -0.567846351288     1.007825032230

  Basis Set: AUG-CC-PVTZ
    Blend: AUG-CC-PVTZ
  Basis Set: (AUG-CC-PVTZ AUX)
    Blend: AUG-CC-PVTZ-JKFIT
	 Reference Energy          =    -886.3724002876164150 [Eh]
	 Singles Energy            =      -0.0000000000000000 [Eh]
	 Same-Spin Energy          =      -0.9013806704360920 [Eh]
	 Opposite-Spin Energy      =      -2.7154227884518685 [Eh]
	 Correlation Energy        =      -3.6168034588879605 [Eh]
	 Total Energy              =    -889.9892037465043586 [Eh]

	 ================> DF-SCS-MP2 Energies <==================
	-----------------------------------------------------------
	 SCS Same-Spin Scale       =       0.3333333333333333 [-]
	 SCS Opposite-Spin Scale   =       1.2000000000000000 [-]
	 SCS Same-Spin Energy      =      -0.3004602234786973 [Eh]
	 SCS Opposite-Spin Energy  =      -3.2585073461422422 [Eh]
	 SCS Correlation Energy    =      -3.5589675696209397 [Eh]
	 SCS Total Energy          =    -889.9313678572373192 [Eh]
	-----------------------------------------------------------

  Dipole Moment: [D]
     X:     1.7360      Y:    -5.9648      Z:    -1.8275     Total:     6.4755

*** Psi4 exiting successfully. Buy a developer a beer!
