                               Psi4 1.3.2 release

  ==> Input File <==

--------------------------------------------------------------------------
#psi4
#
memory 32 gb

molecule  {
0 1
  O       -1.2481010    -0.6526680     1.0325150
  O       -1.2449750     2.4828510    -0.6861630
  O       -3.2165300     1.5210990     0.7448870
  O       -2.3570290    -3.0668370     0.0949400
  O        1.3605300     2.2470340    -0.0765420
  N        0.8434040     0.0452230     0.2559430
  N        3.0572260     0.7205030    -0.2937270
  N        4.7164630    -0.8366550    -0.5722980
  C       -1.2894840     1.0784300    -0.5920770
  C       -2.7151710     0.6552070    -0.2573930
  C       -0.5254080     0.4815200     0.6000940
  C       -2.5292560    -0.7168860     0.3610560
  C       -2.5283440    -1.8503930    -0.6392900
  C        1.2197750    -1.2614080     0.3112740
  C        1.7555940     1.0674350    -0.0594030
  C        2.5111010    -1.6091400     0.0469950
  C        3.4111913    -0.5702733    -0.2452286
  H       -0.9376060     0.5914040    -1.5148910
  H       -3.3625820     0.6426650    -1.1464650
  H       -0.4402900     1.2218800     1.4039980
  H       -3.2819570    -0.9087340     1.1307830
  H       -1.7133080    -1.7003050    -1.3694640
  H       -3.4855610    -1.8340040    -1.1841350
  H       -0.2975250     2.7131790    -0.5250000
  H       -2.8475560     2.3997430     0.5086630
  H        0.4343110    -1.9634370     0.5690680
  H       -2.4338740    -3.7984320    -0.5432330
  H        2.8291120    -2.6453980     0.0739220
  H        5.1098327    -1.6741499    -0.1541871
  H        5.3198140    -0.0200540    -0.5682940
units angstrom
no_reorient  #important for SAPT in psi4, default
symmetry c1  #important for SAPT in psi4, default
}

set PROPERTIES_ORIGIN ["COM"]
properties('MP2/aug-cc-pvtz', properties = ['dipole'])
--------------------------------------------------------------------------

    Molecular point group: c1
  Charge       = 0
  Multiplicity = 1
  Basis Set: AUG-CC-PVTZ
    Blend: AUG-CC-PVTZ
  Basis Set: (AUG-CC-PVTZ AUX)
    Blend: AUG-CC-PVTZ-JKFIT

    Orbital Energies [Eh]
    ---------------------

    Doubly Occupied:

       1A    -20.582617     2A    -20.582017     3A    -20.557904
       4A    -20.557072     5A    -20.520091     6A    -15.638195
       7A    -15.600516     8A    -15.552732     9A    -11.386168
      10A    -11.357686    11A    -11.341905    12A    -11.331320
      13A    -11.301515    14A    -11.297217    15A    -11.296828
      16A    -11.293148    17A    -11.248280    18A     -1.429543
      19A     -1.395198    20A     -1.380207    21A     -1.373088
      22A     -1.346237    23A     -1.304689    24A     -1.273410
      25A     -1.178247    26A     -1.084727    27A     -1.067977
      28A     -1.022360    29A     -0.936378    30A     -0.911070
      31A     -0.874892    32A     -0.832306    33A     -0.812201
      34A     -0.767748    35A     -0.752931    36A     -0.736326
      37A     -0.719343    38A     -0.703190    39A     -0.698646
      40A     -0.685205    41A     -0.673228    42A     -0.653409
      43A     -0.651940    44A     -0.638342    45A     -0.622471
      46A     -0.614407    47A     -0.607492    48A     -0.592561
      49A     -0.575965    50A     -0.569858    51A     -0.554079
      52A     -0.545575    53A     -0.537629    54A     -0.532021
      55A     -0.497959    56A     -0.477769    57A     -0.474551
      58A     -0.462241    59A     -0.458809    60A     -0.452908
      61A     -0.441111    62A     -0.432501    63A     -0.392871
      64A     -0.351078

  @DF-RHF Final Energy:  -886.37188339712861

   => Energetics <=

    Nuclear Repulsion Energy =           1323.6470998758527458
    One-Electron Energy =               -3844.9541546168675268
    Two-Electron Energy =                1634.9351713438861680
    Total Energy =                       -886.3718833971286131
  Basis Set: (AUG-CC-PVTZ AUX)
    Blend: AUG-CC-PVTZ-RI
    Molecular point group: c1

    Geometry (in Angstrom), charge = 0, multiplicity = 1:

       Center              X                  Y                   Z               Mass
    ------------   -----------------  -----------------  -----------------  -----------------
         O           -1.247998321965    -0.651685791353     1.031804771530    15.994914619570
         O           -1.244872321965     2.483833208647    -0.686873228470    15.994914619570
         O           -3.216427321965     1.522081208647     0.744176771530    15.994914619570
         O           -2.356926321965    -3.065854791353     0.094229771530    15.994914619570
         O            1.360632678035     2.248016208647    -0.077252228470    15.994914619570
         N            0.843506678035     0.046205208647     0.255232771530    14.003074004430
         N            3.057328678035     0.721485208647    -0.294437228470    14.003074004430
         N            4.716565678035    -0.835672791353    -0.573008228470    14.003074004430
         C           -1.289381321965     1.079412208647    -0.592787228470    12.000000000000
         C           -2.715068321965     0.656189208647    -0.258103228470    12.000000000000
         C           -0.525305321965     0.482502208647     0.599383771530    12.000000000000
         C           -2.529153321965    -0.715903791353     0.360345771530    12.000000000000
         C           -2.528241321965    -1.849410791353    -0.640000228470    12.000000000000
         C            1.219877678035    -1.260425791353     0.310563771530    12.000000000000
         C            1.755696678035     1.068417208647    -0.060113228470    12.000000000000
         C            2.511203678035    -1.608157791353     0.046284771530    12.000000000000
         C            3.411293978035    -0.569291091353    -0.245938828470    12.000000000000
         H           -0.937503321965     0.592386208647    -1.515601228470     1.007825032230
         H           -3.362479321965     0.643647208647    -1.147175228470     1.007825032230
         H           -0.440187321965     1.222862208647     1.403287771530     1.007825032230
         H           -3.281854321965    -0.907751791353     1.130072771530     1.007825032230
         H           -1.713205321965    -1.699322791353    -1.370174228470     1.007825032230
         H           -3.485458321965    -1.833021791353    -1.184845228470     1.007825032230
         H           -0.297422321965     2.714161208647    -0.525710228470     1.007825032230
         H           -2.847453321965     2.400725208647     0.507952771530     1.007825032230
         H            0.434413678035    -1.962454791353     0.568357771530     1.007825032230
         H           -2.433771321965    -3.797449791353    -0.543943228470     1.007825032230
         H            2.829214678035    -2.644415791353     0.073211771530     1.007825032230
         H            5.109935378035    -1.673167691353    -0.154897328470     1.007825032230
         H            5.319916678035    -0.019071791353    -0.569004228470     1.007825032230

  Basis Set: AUG-CC-PVTZ
    Blend: AUG-CC-PVTZ
  Basis Set: (AUG-CC-PVTZ AUX)
    Blend: AUG-CC-PVTZ-JKFIT
	 Reference Energy          =    -886.3718833971286131 [Eh]
	 Singles Energy            =      -0.0000000000000000 [Eh]
	 Same-Spin Energy          =      -0.9016422177579533 [Eh]
	 Opposite-Spin Energy      =      -2.7154482134728855 [Eh]
	 Correlation Energy        =      -3.6170904312308387 [Eh]
	 Total Energy              =    -889.9889738283594625 [Eh]

	 ================> DF-SCS-MP2 Energies <==================
	-----------------------------------------------------------
	 SCS Same-Spin Scale       =       0.3333333333333333 [-]
	 SCS Opposite-Spin Scale   =       1.2000000000000000 [-]
	 SCS Same-Spin Energy      =      -0.3005474059193177 [Eh]
	 SCS Opposite-Spin Energy  =      -3.2585378561674623 [Eh]
	 SCS Correlation Energy    =      -3.5590852620867799 [Eh]
	 SCS Total Energy          =    -889.9309686592154094 [Eh]
	-----------------------------------------------------------

  Dipole Moment: [D]
     X:     1.6630      Y:    -6.0286      Z:    -1.7952     Total:     6.5064

*** Psi4 exiting successfully. Buy a developer a beer!
