                               Psi4 1.3.2 release

  ==> Input File <==

--------------------------------------------------------------------------
#psi4
#
memory 32 gb

molecule  {
0 1
  O       -1.2481010    -0.6526680     1.0325150
  O       -1.2449750     2.4828510    -0.6861630
  O       -3.2165300     1.5210990     0.7448870
  O       -2.3570290    -3.0668370     0.0949400
  O        1.3605300     2.2470340    -0.0765420
  N        0.8434040     0.0452230     0.2559430
  N        3.0572260     0.7205030    -0.2937270
  N        4.7164630    -0.8366550    -0.5722980
  C       -1.2894840     1.0784300    -0.5920770
  C       -2.7151710     0.6552070    -0.2573930
  C       -0.5390637     0.4976401     0.6166156
  C       -2.5292560    -0.7168860     0.3610560
  C       -2.5283440    -1.8503930    -0.6392900
  C        1.2197750    -1.2614080     0.3112740
  C        1.7555940     1.0674350    -0.0594030
  C        2.5111010    -1.6091400     0.0469950
  C        3.4119830    -0.5506530    -0.2589250
  H       -0.9498141     0.6022216    -1.5250551
  H       -3.3625820     0.6426650    -1.1464650
  H       -0.4402900     1.2218800     1.4039980
  H       -3.2819570    -0.9087340     1.1307830
  H       -1.7133080    -1.7003050    -1.3694640
  H       -3.4855610    -1.8340040    -1.1841350
  H       -0.2975250     2.7131790    -0.5250000
  H       -2.8475560     2.3997430     0.5086630
  H        0.4343110    -1.9634370     0.5690680
  H       -2.4338740    -3.7984320    -0.5432330
  H        2.8291120    -2.6453980     0.0739220
  H        5.1251800    -1.6708610    -0.1624140
  H        5.3198140    -0.0200540    -0.5682940
units angstrom
no_reorient  #important for SAPT in psi4, default
symmetry c1  #important for SAPT in psi4, default
}

set PROPERTIES_ORIGIN ["COM"]
properties('MP2/aug-cc-pvtz', properties = ['dipole'])
--------------------------------------------------------------------------

    Molecular point group: c1
  Charge       = 0
  Multiplicity = 1
  Basis Set: AUG-CC-PVTZ
    Blend: AUG-CC-PVTZ
  Basis Set: (AUG-CC-PVTZ AUX)
    Blend: AUG-CC-PVTZ-JKFIT

    Orbital Energies [Eh]
    ---------------------

    Doubly Occupied:

       1A    -20.582427     2A    -20.582386     3A    -20.558466
       4A    -20.556948     5A    -20.521108     6A    -15.635348
       7A    -15.599131     8A    -15.552363     9A    -11.386998
      10A    -11.356959    11A    -11.342832    12A    -11.327560
      13A    -11.301413    14A    -11.297269    15A    -11.297227
      16A    -11.293266    17A    -11.247567    18A     -1.428974
      19A     -1.395500    20A     -1.380425    21A     -1.372947
      22A     -1.346730    23A     -1.304711    24A     -1.271048
      25A     -1.180834    26A     -1.080373    27A     -1.068093
      28A     -1.021958    29A     -0.935044    30A     -0.907838
      31A     -0.876201    32A     -0.834242    33A     -0.811568
      34A     -0.765359    35A     -0.750861    36A     -0.737120
      37A     -0.719729    38A     -0.702730    39A     -0.698789
      40A     -0.685216    41A     -0.672234    42A     -0.656236
      43A     -0.651126    44A     -0.638291    45A     -0.620701
      46A     -0.613421    47A     -0.607179    48A     -0.592483
      49A     -0.575893    50A     -0.571323    51A     -0.553470
      52A     -0.545286    53A     -0.537341    54A     -0.532965
      55A     -0.497662    56A     -0.477674    57A     -0.474213
      58A     -0.462595    59A     -0.459701    60A     -0.453715
      61A     -0.441856    62A     -0.432019    63A     -0.395079
      64A     -0.349363

  @DF-RHF Final Energy:  -886.37285078726472

   => Energetics <=

    Nuclear Repulsion Energy =           1323.3515515711378612
    One-Electron Energy =               -3844.3940388457713198
    Two-Electron Energy =                1634.6696364873687344
    Total Energy =                       -886.3728507872647242
  Basis Set: (AUG-CC-PVTZ AUX)
    Blend: AUG-CC-PVTZ-RI
    Molecular point group: c1

    Geometry (in Angstrom), charge = 0, multiplicity = 1:

       Center              X                  Y                   Z               Mass
    ------------   -----------------  -----------------  -----------------  -----------------
         O           -1.247376301223    -0.653508613555     1.031741553080    15.994914619570
         O           -1.244250301223     2.482010386445    -0.686936446920    15.994914619570
         O           -3.215805301223     1.520258386445     0.744113553080    15.994914619570
         O           -2.356304301223    -3.067677613555     0.094166553080    15.994914619570
         O            1.361254698777     2.246193386445    -0.077315446920    15.994914619570
         N            0.844128698777     0.044382386445     0.255169553080    14.003074004430
         N            3.057950698777     0.719662386445    -0.294500446920    14.003074004430
         N            4.717187698777    -0.837495613555    -0.573071446920    14.003074004430
         C           -1.288759301223     1.077589386445    -0.592850446920    12.000000000000
         C           -2.714446301223     0.654366386445    -0.258166446920    12.000000000000
         C           -0.538339001223     0.496799486445     0.615842153080    12.000000000000
         C           -2.528531301223    -0.717726613555     0.360282553080    12.000000000000
         C           -2.527619301223    -1.851233613555    -0.640063446920    12.000000000000
         C            1.220499698777    -1.262248613555     0.310500553080    12.000000000000
         C            1.756318698777     1.066594386445    -0.060176446920    12.000000000000
         C            2.511825698777    -1.609980613555     0.046221553080    12.000000000000
         C            3.412707698777    -0.551493613555    -0.259698446920    12.000000000000
         H           -0.949089401223     0.601380986445    -1.525828546920     1.007825032230
         H           -3.361857301223     0.641824386445    -1.147238446920     1.007825032230
         H           -0.439565301223     1.221039386445     1.403224553080     1.007825032230
         H           -3.281232301223    -0.909574613555     1.130009553080     1.007825032230
         H           -1.712583301223    -1.701145613555    -1.370237446920     1.007825032230
         H           -3.484836301223    -1.834844613555    -1.184908446920     1.007825032230
         H           -0.296800301223     2.712338386445    -0.525773446920     1.007825032230
         H           -2.846831301223     2.398902386445     0.507889553080     1.007825032230
         H            0.435035698777    -1.964277613555     0.568294553080     1.007825032230
         H           -2.433149301223    -3.799272613555    -0.544006446920     1.007825032230
         H            2.829836698777    -2.646238613555     0.073148553080     1.007825032230
         H            5.125904698777    -1.671701613555    -0.163187446920     1.007825032230
         H            5.320538698777    -0.020894613555    -0.569067446920     1.007825032230

  Basis Set: AUG-CC-PVTZ
    Blend: AUG-CC-PVTZ
  Basis Set: (AUG-CC-PVTZ AUX)
    Blend: AUG-CC-PVTZ-JKFIT
	 Reference Energy          =    -886.3728507872647242 [Eh]
	 Singles Energy            =      -0.0000000000000000 [Eh]
	 Same-Spin Energy          =      -0.9011081645480450 [Eh]
	 Opposite-Spin Energy      =      -2.7148630857039002 [Eh]
	 Correlation Energy        =      -3.6159712502519454 [Eh]
	 Total Energy              =    -889.9888220375166838 [Eh]

	 ================> DF-SCS-MP2 Energies <==================
	-----------------------------------------------------------
	 SCS Same-Spin Scale       =       0.3333333333333333 [-]
	 SCS Opposite-Spin Scale   =       1.2000000000000000 [-]
	 SCS Same-Spin Energy      =      -0.3003693881826817 [Eh]
	 SCS Opposite-Spin Energy  =      -3.2578357028446803 [Eh]
	 SCS Correlation Energy    =      -3.5582050910273617 [Eh]
	 SCS Total Energy          =    -889.9310558782921134 [Eh]
	-----------------------------------------------------------

  Dipole Moment: [D]
     X:     1.6181      Y:    -5.9223      Z:    -1.7943     Total:     6.3962

*** Psi4 exiting successfully. Buy a developer a beer!
