                               Psi4 1.4a3.dev225

  ==> Input File <==

--------------------------------------------------------------------------
#psi4
#
memory 32 gb

molecule  {
0 1
  O       -1.3191770     0.6538360    -1.0992360
  O       -1.5735610    -2.4640850     0.5135810
  O       -3.5606630    -1.0699430    -0.4600060
  O       -1.4399290     3.1254620     0.1265180
  O        1.1065530    -2.3833650     0.0076020
  N        0.7686360    -0.1579440    -0.3706350
  N        2.9363770    -0.9938720     0.1460080
  N        4.7058880     0.4431110     0.3611260
  C       -1.3768610    -1.0680440     0.5552780
  C       -2.7379840    -0.3746360     0.4578480
  C       -0.6377490    -0.5042940    -0.6790150
  C       -2.3707440     0.9655450    -0.1585060
  C       -1.8992030     1.9895750     0.8571380
  C        1.2309690     1.1190800    -0.4442230
  C        1.6590061    -1.2377868    -0.0510837
  C        2.5474650     1.3753690    -0.1998620
  C        3.3802090     0.2523040     0.0808410
  H       -0.8441360    -0.7686950     1.4698480
  H       -3.2257400    -0.2778790     1.4400230
  H       -0.6227070    -1.2428120    -1.4883720
  H       -3.1941750     1.3785730    -0.7472070
  H       -1.0952130     1.5703990     1.4802000
  H       -2.7410530     2.2466610     1.5166010
  H       -0.6710550    -2.8260740     0.3542250
  H       -3.3063470    -2.0105220    -0.3629290
  H        0.4929290     1.8778260    -0.6840360
  H       -1.2098800     3.8154810     0.7720340
  H        2.9334840     2.3875570    -0.2389120
  H        5.1589650     1.2712730    -0.0008400
  H        5.2635310    -0.4031270     0.3606700
units angstrom
no_reorient  #important for SAPT in psi4, default
symmetry c1  #important for SAPT in psi4, default
}

set PROPERTIES_ORIGIN ["COM"]
properties('MP2/aug-cc-pvtz', properties = ['dipole'])
--------------------------------------------------------------------------

    Molecular point group: c1
  Charge       = 0
  Multiplicity = 1
  Basis Set: AUG-CC-PVTZ
    Blend: AUG-CC-PVTZ
  Basis Set: (AUG-CC-PVTZ AUX)
    Blend: AUG-CC-PVTZ-JKFIT

    Orbital Energies [Eh]
    ---------------------

    Doubly Occupied:

       1A    -20.586446     2A    -20.580494     3A    -20.556572
       4A    -20.555042     5A    -20.510769     6A    -15.632567
       7A    -15.604551     8A    -15.554492     9A    -11.384841
      10A    -11.364970    11A    -11.338282    12A    -11.326540
      13A    -11.302990    14A    -11.297014    15A    -11.294926
      16A    -11.292047    17A    -11.247436    18A     -1.426982
      19A     -1.385983    20A     -1.379963    21A     -1.373540
      22A     -1.344529    23A     -1.301348    24A     -1.268102
      25A     -1.195335    26A     -1.079880    27A     -1.066804
      28A     -1.015866    29A     -0.937237    30A     -0.902717
      31A     -0.883313    32A     -0.830707    33A     -0.811326
      34A     -0.770241    35A     -0.748859    36A     -0.732886
      37A     -0.723058    38A     -0.707150    39A     -0.702411
      40A     -0.687122    41A     -0.674273    42A     -0.653145
      43A     -0.645133    44A     -0.633477    45A     -0.619193
      46A     -0.614771    47A     -0.607638    48A     -0.589491
      49A     -0.576241    50A     -0.565139    51A     -0.554708
      52A     -0.547019    53A     -0.534696    54A     -0.528175
      55A     -0.492805    56A     -0.480123    57A     -0.472229
      58A     -0.461923    59A     -0.452798    60A     -0.451102
      61A     -0.440926    62A     -0.432311    63A     -0.396269
      64A     -0.348295

  @DF-RHF Final Energy:  -886.37001965637944

   => Energetics <=

    Nuclear Repulsion Energy =           1334.1635055111773909
    One-Electron Energy =               -3866.1126127886896029
    Two-Electron Energy =                1645.5790876211328850
    Total Energy =                       -886.3700196563793270
  Basis Set: (AUG-CC-PVTZ AUX)
    Blend: AUG-CC-PVTZ-RI
    Molecular point group: c1

    Geometry (in Angstrom), charge = 0, multiplicity = 1:

       Center              X                  Y                   Z               Mass
    ------------   -----------------  -----------------  -----------------  -----------------
         O           -1.334317742039     0.681989741417    -1.083825649050    15.994914619570
         O           -1.588701742039    -2.435931258583     0.528991350950    15.994914619570
         O           -3.575803742039    -1.041789258583    -0.444595649050    15.994914619570
         O           -1.455069742039     3.153615741417     0.141928350950    15.994914619570
         O            1.091412257961    -2.355211258583     0.023012350950    15.994914619570
         N            0.753495257961    -0.129790258583    -0.355224649050    14.003074004430
         N            2.921236257961    -0.965718258583     0.161418350950    14.003074004430
         N            4.690747257961     0.471264741417     0.376536350950    14.003074004430
         C           -1.392001742039    -1.039890258583     0.570688350950    12.000000000000
         C           -2.753124742039    -0.346482258583     0.473258350950    12.000000000000
         C           -0.652889742039    -0.476140258583    -0.663604649050    12.000000000000
         C           -2.385884742039     0.993698741417    -0.143095649050    12.000000000000
         C           -1.914343742039     2.017728741417     0.872548350950    12.000000000000
         C            1.215828257961     1.147233741417    -0.428812649050    12.000000000000
         C            1.643865357961    -1.209633058583    -0.035673349050    12.000000000000
         C            2.532324257961     1.403522741417    -0.184451649050    12.000000000000
         C            3.365068257961     0.280457741417     0.096251350950    12.000000000000
         H           -0.859276742039    -0.740541258583     1.485258350950     1.007825032230
         H           -3.240880742039    -0.249725258583     1.455433350950     1.007825032230
         H           -0.637847742039    -1.214658258583    -1.472961649050     1.007825032230
         H           -3.209315742039     1.406726741417    -0.731796649050     1.007825032230
         H           -1.110353742039     1.598552741417     1.495610350950     1.007825032230
         H           -2.756193742039     2.274814741417     1.532011350950     1.007825032230
         H           -0.686195742039    -2.797920258583     0.369635350950     1.007825032230
         H           -3.321487742039    -1.982368258583    -0.347518649050     1.007825032230
         H            0.477788257961     1.905979741417    -0.668625649050     1.007825032230
         H           -1.225020742039     3.843634741417     0.787444350950     1.007825032230
         H            2.918343257961     2.415710741417    -0.223501649050     1.007825032230
         H            5.143824257961     1.299426741417     0.014570350950     1.007825032230
         H            5.248390257961    -0.374973258583     0.376080350950     1.007825032230

  Basis Set: AUG-CC-PVTZ
    Blend: AUG-CC-PVTZ
  Basis Set: (AUG-CC-PVTZ AUX)
    Blend: AUG-CC-PVTZ-JKFIT
	 Reference Energy          =    -886.3700196563794407 [Eh]
	 Singles Energy            =      -0.0000000000000000 [Eh]
	 Same-Spin Energy          =      -0.9022840427076573 [Eh]
	 Opposite-Spin Energy      =      -2.7162170226417537 [Eh]
	 Correlation Energy        =      -3.6185010653494110 [Eh]
	 Total Energy              =    -889.9885207217288325 [Eh]

	 ================> DF-SCS-MP2 Energies <==================
	-----------------------------------------------------------
	 SCS Same-Spin Scale       =       0.3333333333333333 [-]
	 SCS Opposite-Spin Scale   =       1.2000000000000000 [-]
	 SCS Same-Spin Energy      =      -0.3007613475692191 [Eh]
	 SCS Opposite-Spin Energy  =      -3.2594604271701044 [Eh]
	 SCS Correlation Energy    =      -3.5602217747393237 [Eh]
	 SCS Total Energy          =    -889.9302414311188159 [Eh]
	-----------------------------------------------------------

  Dipole Moment: [D]
     X:     3.0805      Y:     6.0194      Z:     1.9688     Total:     7.0426

*** Psi4 exiting successfully. Buy a developer a beer!
