                               Psi4 1.4a3.dev225

  ==> Input File <==

--------------------------------------------------------------------------
#psi4
#
memory 32 gb

molecule  {
0 1
  O       -1.3191770     0.6538360    -1.0992360
  O       -1.5735610    -2.4640850     0.5135810
  O       -3.5606630    -1.0699430    -0.4600060
  O       -1.4399290     3.1254620     0.1265180
  O        1.1065530    -2.3833650     0.0076020
  N        0.7686360    -0.1579440    -0.3706350
  N        2.9363770    -0.9938720     0.1460080
  N        4.7058880     0.4431110     0.3611260
  C       -1.3768610    -1.0680440     0.5552780
  C       -2.7557686    -0.3655758     0.4565750
  C       -0.6377490    -0.5042940    -0.6790150
  C       -2.3707440     0.9655450    -0.1585060
  C       -1.8992030     1.9895750     0.8571380
  C        1.2309690     1.1190800    -0.4442230
  C        1.6104480    -1.2470590    -0.0585760
  C        2.5474650     1.3753690    -0.1998620
  C        3.3802090     0.2523040     0.0808410
  H       -0.8441360    -0.7686950     1.4698480
  H       -3.2257400    -0.2778790     1.4400230
  H       -0.6227070    -1.2428120    -1.4883720
  H       -3.1941750     1.3785730    -0.7472070
  H       -1.0952130     1.5703990     1.4802000
  H       -2.7410530     2.2466610     1.5166010
  H       -0.6710550    -2.8260740     0.3542250
  H       -3.3063470    -2.0105220    -0.3629290
  H        0.4929290     1.8778260    -0.6840360
  H       -1.2098800     3.8154810     0.7720340
  H        2.9334840     2.3875570    -0.2389120
  H        5.1589650     1.2712730    -0.0008400
  H        5.2635310    -0.4031270     0.3606700
units angstrom
no_reorient  #important for SAPT in psi4, default
symmetry c1  #important for SAPT in psi4, default
}

set PROPERTIES_ORIGIN ["COM"]
properties('MP2/aug-cc-pvtz', properties = ['dipole'])
--------------------------------------------------------------------------

    Molecular point group: c1
  Charge       = 0
  Multiplicity = 1
  Basis Set: AUG-CC-PVTZ
    Blend: AUG-CC-PVTZ
  Basis Set: (AUG-CC-PVTZ AUX)
    Blend: AUG-CC-PVTZ-JKFIT

    Orbital Energies [Eh]
    ---------------------

    Doubly Occupied:

       1A    -20.586665     2A    -20.581516     3A    -20.559080
       4A    -20.556679     5A    -20.519524     6A    -15.632799
       7A    -15.599549     8A    -15.551612     9A    -11.385785
      10A    -11.357924    11A    -11.339303    12A    -11.324977
      13A    -11.303618    14A    -11.297722    15A    -11.297182
      16A    -11.293637    17A    -11.246416    18A     -1.428979
      19A     -1.393957    20A     -1.383130    21A     -1.375587
      22A     -1.347753    23A     -1.303498    24A     -1.271177
      25A     -1.181053    26A     -1.079128    27A     -1.067305
      28A     -1.015363    29A     -0.935964    30A     -0.906520
      31A     -0.877022    32A     -0.829918    33A     -0.812863
      34A     -0.766346    35A     -0.750160    36A     -0.734268
      37A     -0.722065    38A     -0.707909    39A     -0.703910
      40A     -0.684910    41A     -0.676159    42A     -0.653155
      43A     -0.648902    44A     -0.633811    45A     -0.620221
      46A     -0.614964    47A     -0.608086    48A     -0.593188
      49A     -0.577616    50A     -0.564806    51A     -0.555926
      52A     -0.549748    53A     -0.536068    54A     -0.530900
      55A     -0.495204    56A     -0.480574    57A     -0.471590
      58A     -0.462633    59A     -0.457708    60A     -0.452671
      61A     -0.441989    62A     -0.430102    63A     -0.392059
      64A     -0.348032

  @DF-RHF Final Energy:  -886.37404546427638

   => Energetics <=

    Nuclear Repulsion Energy =           1334.2703120654487066
    One-Electron Energy =               -3866.2709403529756855
    Two-Electron Energy =                1645.6265828232506010
    Total Energy =                       -886.3740454642763780
  Basis Set: (AUG-CC-PVTZ AUX)
    Blend: AUG-CC-PVTZ-RI
    Molecular point group: c1

    Geometry (in Angstrom), charge = 0, multiplicity = 1:

       Center              X                  Y                   Z               Mass
    ------------   -----------------  -----------------  -----------------  -----------------
         O           -1.331042711925     0.682000206870    -1.083392947012    15.994914619570
         O           -1.585426711925    -2.435920793130     0.529424052988    15.994914619570
         O           -3.572528711925    -1.041778793130    -0.444162947012    15.994914619570
         O           -1.451794711925     3.153626206870     0.142361052988    15.994914619570
         O            1.094687288075    -2.355200793130     0.023445052988    15.994914619570
         N            0.756770288075    -0.129779793130    -0.354791947012    14.003074004430
         N            2.924511288075    -0.965707793130     0.161851052988    14.003074004430
         N            4.694022288075     0.471275206870     0.376969052988    14.003074004430
         C           -1.388726711925    -1.039879793130     0.571121052988    12.000000000000
         C           -2.767634311925    -0.337411593130     0.472418052988    12.000000000000
         C           -0.649614711925    -0.476129793130    -0.663171947012    12.000000000000
         C           -2.382609711925     0.993709206870    -0.142662947012    12.000000000000
         C           -1.911068711925     2.017739206870     0.872981052988    12.000000000000
         C            1.219103288075     1.147244206870    -0.428379947012    12.000000000000
         C            1.598582288075    -1.218894793130    -0.042732947012    12.000000000000
         C            2.535599288075     1.403533206870    -0.184018947012    12.000000000000
         C            3.368343288075     0.280468206870     0.096684052988    12.000000000000
         H           -0.856001711925    -0.740530793130     1.485691052988     1.007825032230
         H           -3.237605711925    -0.249714793130     1.455866052988     1.007825032230
         H           -0.634572711925    -1.214647793130    -1.472528947012     1.007825032230
         H           -3.206040711925     1.406737206870    -0.731363947012     1.007825032230
         H           -1.107078711925     1.598563206870     1.496043052988     1.007825032230
         H           -2.752918711925     2.274825206870     1.532444052988     1.007825032230
         H           -0.682920711925    -2.797909793130     0.370068052988     1.007825032230
         H           -3.318212711925    -1.982357793130    -0.347085947012     1.007825032230
         H            0.481063288075     1.905990206870    -0.668192947012     1.007825032230
         H           -1.221745711925     3.843645206870     0.787877052988     1.007825032230
         H            2.921618288075     2.415721206870    -0.223068947012     1.007825032230
         H            5.147099288075     1.299437206870     0.015003052988     1.007825032230
         H            5.251665288075    -0.374962793130     0.376513052988     1.007825032230

  Basis Set: AUG-CC-PVTZ
    Blend: AUG-CC-PVTZ
  Basis Set: (AUG-CC-PVTZ AUX)
    Blend: AUG-CC-PVTZ-JKFIT
	 Reference Energy          =    -886.3740454642763780 [Eh]
	 Singles Energy            =      -0.0000000000000000 [Eh]
	 Same-Spin Energy          =      -0.9017754269232142 [Eh]
	 Opposite-Spin Energy      =      -2.7157885117644636 [Eh]
	 Correlation Energy        =      -3.6175639386876779 [Eh]
	 Total Energy              =    -889.9916094029640590 [Eh]

	 ================> DF-SCS-MP2 Energies <==================
	-----------------------------------------------------------
	 SCS Same-Spin Scale       =       0.3333333333333333 [-]
	 SCS Opposite-Spin Scale   =       1.2000000000000000 [-]
	 SCS Same-Spin Energy      =      -0.3005918089744047 [Eh]
	 SCS Opposite-Spin Energy  =      -3.2589462141173562 [Eh]
	 SCS Correlation Energy    =      -3.5595380230917608 [Eh]
	 SCS Total Energy          =    -889.9335834873680824 [Eh]
	-----------------------------------------------------------

  Dipole Moment: [D]
     X:     2.7040      Y:     5.7919      Z:     1.9492     Total:     6.6826

*** Psi4 exiting successfully. Buy a developer a beer!
