                               Psi4 1.3.2 release

  ==> Input File <==

--------------------------------------------------------------------------
#psi4
#
memory 32 gb

molecule  {
0 1
  O       -1.2481010    -0.6526680     1.0325150
  O       -1.2311285     2.4835567    -0.6658680
  O       -3.2165300     1.5210990     0.7448870
  O       -2.3570290    -3.0668370     0.0949400
  O        1.3605300     2.2470340    -0.0765420
  N        0.8434040     0.0452230     0.2559430
  N        3.0572260     0.7205030    -0.2937270
  N        4.7164630    -0.8366550    -0.5722980
  C       -1.2894840     1.0784300    -0.5920770
  C       -2.7151710     0.6552070    -0.2573930
  C       -0.5183548     0.5062645     0.6076612
  C       -2.5292560    -0.7168860     0.3610560
  C       -2.5283440    -1.8503930    -0.6392900
  C        1.2197750    -1.2614080     0.3112740
  C        1.7555940     1.0674350    -0.0594030
  C        2.5111010    -1.6091400     0.0469950
  C        3.4119830    -0.5506530    -0.2589250
  H       -0.9376060     0.5914040    -1.5148910
  H       -3.3625820     0.6426650    -1.1464650
  H       -0.4402900     1.2218800     1.4039980
  H       -3.2819570    -0.9087340     1.1307830
  H       -1.7133080    -1.7003050    -1.3694640
  H       -3.4855610    -1.8340040    -1.1841350
  H       -0.2975250     2.7131790    -0.5250000
  H       -2.8475560     2.3997430     0.5086630
  H        0.4343110    -1.9634370     0.5690680
  H       -2.4338740    -3.7984320    -0.5432330
  H        2.8291120    -2.6453980     0.0739220
  H        5.1251800    -1.6708610    -0.1624140
  H        5.3198140    -0.0200540    -0.5682940
units angstrom
no_reorient  #important for SAPT in psi4, default
symmetry c1  #important for SAPT in psi4, default
}

set PROPERTIES_ORIGIN ["COM"]
properties('MP2/aug-cc-pvtz', properties = ['dipole'])
--------------------------------------------------------------------------

    Molecular point group: c1
  Charge       = 0
  Multiplicity = 1
  Basis Set: AUG-CC-PVTZ
    Blend: AUG-CC-PVTZ
  Basis Set: (AUG-CC-PVTZ AUX)
    Blend: AUG-CC-PVTZ-JKFIT

    Orbital Energies [Eh]
    ---------------------

    Doubly Occupied:

       1A    -20.581687     2A    -20.579109     3A    -20.558068
       4A    -20.555635     5A    -20.521607     6A    -15.636938
       7A    -15.599788     8A    -15.553011     9A    -11.387718
      10A    -11.357749    11A    -11.341148    12A    -11.328633
      13A    -11.300540    14A    -11.297702    15A    -11.295829
      16A    -11.293398    17A    -11.248531    18A     -1.424848
      19A     -1.395141    20A     -1.380618    21A     -1.371369
      22A     -1.347907    23A     -1.305677    24A     -1.273184
      25A     -1.182006    26A     -1.082222    27A     -1.066336
      28A     -1.021665    29A     -0.936073    30A     -0.908701
      31A     -0.877191    32A     -0.834788    33A     -0.809867
      34A     -0.766374    35A     -0.751657    36A     -0.739254
      37A     -0.719695    38A     -0.703024    39A     -0.697830
      40A     -0.685036    41A     -0.673168    42A     -0.655211
      43A     -0.650796    44A     -0.638196    45A     -0.620284
      46A     -0.613380    47A     -0.606591    48A     -0.594277
      49A     -0.575247    50A     -0.569796    51A     -0.553132
      52A     -0.545203    53A     -0.537048    54A     -0.532479
      55A     -0.498110    56A     -0.476669    57A     -0.474663
      58A     -0.461634    59A     -0.459801    60A     -0.453043
      61A     -0.441887    62A     -0.432837    63A     -0.395574
      64A     -0.350299

  @DF-RHF Final Energy:  -886.37317505566489

   => Energetics <=

    Nuclear Repulsion Energy =           1323.7431525318213517
    One-Electron Energy =               -3845.1788944258264564
    Two-Electron Energy =                1635.0625668383404445
    Total Energy =                       -886.3731750556648876
  Basis Set: (AUG-CC-PVTZ AUX)
    Blend: AUG-CC-PVTZ-RI
    Molecular point group: c1

    Geometry (in Angstrom), charge = 0, multiplicity = 1:

       Center              X                  Y                   Z               Mass
    ------------   -----------------  -----------------  -----------------  -----------------
         O           -1.249360310855    -0.653935945314     1.030806048464    15.994914619570
         O           -1.232387810855     2.482288754686    -0.667576951536    15.994914619570
         O           -3.217789310855     1.519831054686     0.743178048464    15.994914619570
         O           -2.358288310855    -3.068104945314     0.093231048464    15.994914619570
         O            1.359270689145     2.245766054686    -0.078250951536    15.994914619570
         N            0.842144689145     0.043955054686     0.254234048464    14.003074004430
         N            3.055966689145     0.719235054686    -0.295435951536    14.003074004430
         N            4.715203689145    -0.837922945314    -0.574006951536    14.003074004430
         C           -1.290743310855     1.077162054686    -0.593785951536    12.000000000000
         C           -2.716430310855     0.653939054686    -0.259101951536    12.000000000000
         C           -0.519614110855     0.504996554686     0.605952248464    12.000000000000
         C           -2.530515310855    -0.718153945314     0.359347048464    12.000000000000
         C           -2.529603310855    -1.851660945314    -0.640998951536    12.000000000000
         C            1.218515689145    -1.262675945314     0.309565048464    12.000000000000
         C            1.754334689145     1.066167054686    -0.061111951536    12.000000000000
         C            2.509841689145    -1.610407945314     0.045286048464    12.000000000000
         C            3.410723689145    -0.551920945314    -0.260633951536    12.000000000000
         H           -0.938865310855     0.590136054686    -1.516599951536     1.007825032230
         H           -3.363841310855     0.641397054686    -1.148173951536     1.007825032230
         H           -0.441549310855     1.220612054686     1.402289048464     1.007825032230
         H           -3.283216310855    -0.910001945314     1.129074048464     1.007825032230
         H           -1.714567310855    -1.701572945314    -1.371172951536     1.007825032230
         H           -3.486820310855    -1.835271945314    -1.185843951536     1.007825032230
         H           -0.298784310855     2.711911054686    -0.526708951536     1.007825032230
         H           -2.848815310855     2.398475054686     0.506954048464     1.007825032230
         H            0.433051689145    -1.964704945314     0.567359048464     1.007825032230
         H           -2.435133310855    -3.799699945314    -0.544941951536     1.007825032230
         H            2.827852689145    -2.646665945314     0.072213048464     1.007825032230
         H            5.123920689145    -1.672128945314    -0.164122951536     1.007825032230
         H            5.318554689145    -0.021321945314    -0.570002951536     1.007825032230

  Basis Set: AUG-CC-PVTZ
    Blend: AUG-CC-PVTZ
  Basis Set: (AUG-CC-PVTZ AUX)
    Blend: AUG-CC-PVTZ-JKFIT
	 Reference Energy          =    -886.3731750556648876 [Eh]
	 Singles Energy            =      -0.0000000000000000 [Eh]
	 Same-Spin Energy          =      -0.9008691327126338 [Eh]
	 Opposite-Spin Energy      =      -2.7145763054683876 [Eh]
	 Correlation Energy        =      -3.6154454381810215 [Eh]
	 Total Energy              =    -889.9886204938459286 [Eh]

	 ================> DF-SCS-MP2 Energies <==================
	-----------------------------------------------------------
	 SCS Same-Spin Scale       =       0.3333333333333333 [-]
	 SCS Opposite-Spin Scale   =       1.2000000000000000 [-]
	 SCS Same-Spin Energy      =      -0.3002897109042112 [Eh]
	 SCS Opposite-Spin Energy  =      -3.2574915665620652 [Eh]
	 SCS Correlation Energy    =      -3.5577812774662765 [Eh]
	 SCS Total Energy          =    -889.9309563331311210 [Eh]
	-----------------------------------------------------------

  Dipole Moment: [D]
     X:     1.7175      Y:    -5.8872      Z:    -1.8535     Total:     6.4066

*** Psi4 exiting successfully. Buy a developer a beer!
