                               Psi4 1.3.2 release

  ==> Input File <==

--------------------------------------------------------------------------
#psi4
#
memory 32 gb

molecule  {
0 1
  O       -1.2495258    -0.6646507     1.0362607
  O       -1.2449750     2.4828510    -0.6861630
  O       -3.2165300     1.5210990     0.7448870
  O       -2.3570290    -3.0668370     0.0949400
  O        1.3605300     2.2470340    -0.0765420
  N        0.8434040     0.0452230     0.2559430
  N        3.0572260     0.7205030    -0.2937270
  N        4.7164630    -0.8366550    -0.5722980
  C       -1.2894840     1.0784300    -0.5920770
  C       -2.7268499     0.6513568    -0.2622826
  C       -0.5254080     0.4815200     0.6000940
  C       -2.5292560    -0.7168860     0.3610560
  C       -2.5283440    -1.8503930    -0.6392900
  C        1.2197750    -1.2614080     0.3112740
  C        1.7555940     1.0674350    -0.0594030
  C        2.5111010    -1.6091400     0.0469950
  C        3.4119830    -0.5506530    -0.2589250
  H       -0.9376060     0.5914040    -1.5148910
  H       -3.3625820     0.6426650    -1.1464650
  H       -0.4402900     1.2218800     1.4039980
  H       -3.2819570    -0.9087340     1.1307830
  H       -1.7133080    -1.7003050    -1.3694640
  H       -3.4855610    -1.8340040    -1.1841350
  H       -0.2975250     2.7131790    -0.5250000
  H       -2.8475560     2.3997430     0.5086630
  H        0.4343110    -1.9634370     0.5690680
  H       -2.4338740    -3.7984320    -0.5432330
  H        2.8291120    -2.6453980     0.0739220
  H        5.1251800    -1.6708610    -0.1624140
  H        5.3198140    -0.0200540    -0.5682940
units angstrom
no_reorient  #important for SAPT in psi4, default
symmetry c1  #important for SAPT in psi4, default
}

set PROPERTIES_ORIGIN ["COM"]
properties('MP2/aug-cc-pvtz', properties = ['dipole'])
--------------------------------------------------------------------------

    Molecular point group: c1
  Charge       = 0
  Multiplicity = 1
  Basis Set: AUG-CC-PVTZ
    Blend: AUG-CC-PVTZ
  Basis Set: (AUG-CC-PVTZ AUX)
    Blend: AUG-CC-PVTZ-JKFIT

    Orbital Energies [Eh]
    ---------------------

    Doubly Occupied:

       1A    -20.582240     2A    -20.581798     3A    -20.557574
       4A    -20.557505     5A    -20.522199     6A    -15.637310
       7A    -15.599939     8A    -15.553470     9A    -11.388467
      10A    -11.357966    11A    -11.342567    12A    -11.328527
      13A    -11.300697    14A    -11.297493    15A    -11.296372
      16A    -11.293065    17A    -11.248610    18A     -1.426778
      19A     -1.396014    20A     -1.379580    21A     -1.371864
      22A     -1.345972    23A     -1.306184    24A     -1.273947
      25A     -1.182385    26A     -1.082030    27A     -1.066843
      28A     -1.020363    29A     -0.935017    30A     -0.909402
      31A     -0.877402    32A     -0.832234    33A     -0.812211
      34A     -0.766933    35A     -0.752048    36A     -0.735383
      37A     -0.720220    38A     -0.702712    39A     -0.697867
      40A     -0.685269    41A     -0.672869    42A     -0.654162
      43A     -0.651290    44A     -0.638663    45A     -0.620373
      46A     -0.614335    47A     -0.606207    48A     -0.594065
      49A     -0.575712    50A     -0.568774    51A     -0.554063
      52A     -0.545581    53A     -0.537479    54A     -0.531717
      55A     -0.497874    56A     -0.477156    57A     -0.473901
      58A     -0.461980    59A     -0.460557    60A     -0.452605
      61A     -0.441157    62A     -0.433423    63A     -0.395415
      64A     -0.350180

  @DF-RHF Final Energy:  -886.37261928658074

   => Energetics <=

    Nuclear Repulsion Energy =           1323.1015754041800392
    One-Electron Energy =               -3843.8803997615873413
    Two-Electron Energy =                1634.4062050708264451
    Total Energy =                       -886.3726192865808571
  Basis Set: (AUG-CC-PVTZ AUX)
    Blend: AUG-CC-PVTZ-RI
    Molecular point group: c1

    Geometry (in Angstrom), charge = 0, multiplicity = 1:

       Center              X                  Y                   Z               Mass
    ------------   -----------------  -----------------  -----------------  -----------------
         O           -1.248855549857    -0.663672167311     1.036255618935    15.994914619570
         O           -1.244304749857     2.483829532689    -0.686168081065    15.994914619570
         O           -3.215859749857     1.522077532689     0.744881918935    15.994914619570
         O           -2.356358749857    -3.065858467311     0.094934918935    15.994914619570
         O            1.361200250143     2.248012532689    -0.076547081065    15.994914619570
         N            0.844074250143     0.046201532689     0.255937918935    14.003074004430
         N            3.057896250143     0.721481532689    -0.293732081065    14.003074004430
         N            4.717133250143    -0.835676467311    -0.572303081065    14.003074004430
         C           -1.288813749857     1.079408532689    -0.592082081065    12.000000000000
         C           -2.726179649857     0.652335332689    -0.262287681065    12.000000000000
         C           -0.524737749857     0.482498532689     0.600088918935    12.000000000000
         C           -2.528585749857    -0.715907467311     0.361050918935    12.000000000000
         C           -2.527673749857    -1.849414467311    -0.639295081065    12.000000000000
         C            1.220445250143    -1.260429467311     0.311268918935    12.000000000000
         C            1.756264250143     1.068413532689    -0.059408081065    12.000000000000
         C            2.511771250143    -1.608161467311     0.046989918935    12.000000000000
         C            3.412653250143    -0.549674467311    -0.258930081065    12.000000000000
         H           -0.936935749857     0.592382532689    -1.514896081065     1.007825032230
         H           -3.361911749857     0.643643532689    -1.146470081065     1.007825032230
         H           -0.439619749857     1.222858532689     1.403992918935     1.007825032230
         H           -3.281286749857    -0.907755467311     1.130777918935     1.007825032230
         H           -1.712637749857    -1.699326467311    -1.369469081065     1.007825032230
         H           -3.484890749857    -1.833025467311    -1.184140081065     1.007825032230
         H           -0.296854749857     2.714157532689    -0.525005081065     1.007825032230
         H           -2.846885749857     2.400721532689     0.508657918935     1.007825032230
         H            0.434981250143    -1.962458467311     0.569062918935     1.007825032230
         H           -2.433203749857    -3.797453467311    -0.543238081065     1.007825032230
         H            2.829782250143    -2.644419467311     0.073916918935     1.007825032230
         H            5.125850250143    -1.669882467311    -0.162419081065     1.007825032230
         H            5.320484250143    -0.019075467311    -0.568299081065     1.007825032230

  Basis Set: AUG-CC-PVTZ
    Blend: AUG-CC-PVTZ
  Basis Set: (AUG-CC-PVTZ AUX)
    Blend: AUG-CC-PVTZ-JKFIT
	 Reference Energy          =    -886.3726192865807434 [Eh]
	 Singles Energy            =      -0.0000000000000000 [Eh]
	 Same-Spin Energy          =      -0.9012798218779952 [Eh]
	 Opposite-Spin Energy      =      -2.7153138040825180 [Eh]
	 Correlation Energy        =      -3.6165936259605131 [Eh]
	 Total Energy              =    -889.9892129125412339 [Eh]

	 ================> DF-SCS-MP2 Energies <==================
	-----------------------------------------------------------
	 SCS Same-Spin Scale       =       0.3333333333333333 [-]
	 SCS Opposite-Spin Scale   =       1.2000000000000000 [-]
	 SCS Same-Spin Energy      =      -0.3004266072926650 [Eh]
	 SCS Opposite-Spin Energy  =      -3.2583765648990215 [Eh]
	 SCS Correlation Energy    =      -3.5588031721916864 [Eh]
	 SCS Total Energy          =    -889.9314224587724311 [Eh]
	-----------------------------------------------------------

  Dipole Moment: [D]
     X:     1.7246      Y:    -5.9161      Z:    -1.8441     Total:     6.4324

*** Psi4 exiting successfully. Buy a developer a beer!
