                               Psi4 1.3.2 release

  ==> Input File <==

--------------------------------------------------------------------------
#psi4
#
memory 32 gb

molecule  {
0 1
  O       -1.2481010    -0.6526680     1.0325150
  O       -1.2449750     2.4828510    -0.6861630
  O       -3.2165300     1.5210990     0.7448870
  O       -2.3570290    -3.0668370     0.0949400
  O        1.3605300     2.2470340    -0.0765420
  N        0.8434040     0.0452230     0.2559430
  N        3.0572260     0.7205030    -0.2937270
  N        4.7164630    -0.8366550    -0.5722980
  C       -1.2894840     1.0784300    -0.5920770
  C       -2.7151710     0.6552070    -0.2573930
  C       -0.5254080     0.4815200     0.6000940
  C       -2.5292560    -0.7168860     0.3610560
  C       -2.5668710    -1.8735724    -0.6116684
  C        1.2197750    -1.2614080     0.3112740
  C        1.7555940     1.0674350    -0.0594030
  C        2.5111010    -1.6091400     0.0469950
  C        3.4119830    -0.5506530    -0.2589250
  H       -0.9376060     0.5914040    -1.5148910
  H       -3.3625820     0.6426650    -1.1464650
  H       -0.4402900     1.2218800     1.4039980
  H       -3.2908022    -0.9413598     1.1130553
  H       -1.7133080    -1.7003050    -1.3694640
  H       -3.4855610    -1.8340040    -1.1841350
  H       -0.2975250     2.7131790    -0.5250000
  H       -2.8475560     2.3997430     0.5086630
  H        0.4343110    -1.9634370     0.5690680
  H       -2.4338740    -3.7984320    -0.5432330
  H        2.8291120    -2.6453980     0.0739220
  H        5.1251800    -1.6708610    -0.1624140
  H        5.3198140    -0.0200540    -0.5682940
units angstrom
no_reorient  #important for SAPT in psi4, default
symmetry c1  #important for SAPT in psi4, default
}

set PROPERTIES_ORIGIN ["COM"]
properties('MP2/aug-cc-pvtz', properties = ['dipole'])
--------------------------------------------------------------------------

    Molecular point group: c1
  Charge       = 0
  Multiplicity = 1
  Basis Set: AUG-CC-PVTZ
    Blend: AUG-CC-PVTZ
  Basis Set: (AUG-CC-PVTZ AUX)
    Blend: AUG-CC-PVTZ-JKFIT

    Orbital Energies [Eh]
    ---------------------

    Doubly Occupied:

       1A    -20.585465     2A    -20.582339     3A    -20.557490
       4A    -20.556843     5A    -20.521710     6A    -15.636645
       7A    -15.599617     8A    -15.553062     9A    -11.387994
      10A    -11.357585    11A    -11.341529    12A    -11.328257
      13A    -11.302269    14A    -11.296656    15A    -11.296190
      16A    -11.293425    17A    -11.248240    18A     -1.429440
      19A     -1.397229    20A     -1.386609    21A     -1.376746
      22A     -1.345949    23A     -1.305789    24A     -1.273528
      25A     -1.181984    26A     -1.081683    27A     -1.066826
      28A     -1.021437    29A     -0.935025    30A     -0.908738
      31A     -0.876361    32A     -0.831502    33A     -0.811196
      34A     -0.766733    35A     -0.752466    36A     -0.736867
      37A     -0.721749    38A     -0.709266    39A     -0.698824
      40A     -0.685152    41A     -0.671624    42A     -0.653906
      43A     -0.651780    44A     -0.638635    45A     -0.620556
      46A     -0.616576    47A     -0.606478    48A     -0.594002
      49A     -0.577683    50A     -0.571073    51A     -0.555135
      52A     -0.545929    53A     -0.537598    54A     -0.530601
      55A     -0.497700    56A     -0.475835    57A     -0.473795
      58A     -0.460651    59A     -0.457729    60A     -0.449972
      61A     -0.440569    62A     -0.432586    63A     -0.394954
      64A     -0.349712

  @DF-RHF Final Energy:  -886.37065526626350

   => Energetics <=

    Nuclear Repulsion Energy =           1323.4414111478861287
    One-Electron Energy =               -3844.5211468266516022
    Two-Electron Energy =                1634.7090804125016348
    Total Energy =                       -886.3706552662636113
  Basis Set: (AUG-CC-PVTZ AUX)
    Blend: AUG-CC-PVTZ-RI
    Molecular point group: c1

    Geometry (in Angstrom), charge = 0, multiplicity = 1:

       Center              X                  Y                   Z               Mass
    ------------   -----------------  -----------------  -----------------  -----------------
         O           -1.246162463457    -0.651388465284     1.031224956228    15.994914619570
         O           -1.243036463457     2.484130534716    -0.687453043772    15.994914619570
         O           -3.214591463457     1.522378534716     0.743596956228    15.994914619570
         O           -2.355090463457    -3.065557465284     0.093649956228    15.994914619570
         O            1.362468536543     2.248313534716    -0.077832043772    15.994914619570
         N            0.845342536543     0.046502534716     0.254652956228    14.003074004430
         N            3.059164536543     0.721782534716    -0.295017043772    14.003074004430
         N            4.718401536543    -0.835375465284    -0.573588043772    14.003074004430
         C           -1.287545463457     1.079709534716    -0.593367043772    12.000000000000
         C           -2.713232463457     0.656486534716    -0.258683043772    12.000000000000
         C           -0.523469463457     0.482799534716     0.598803956228    12.000000000000
         C           -2.527317463457    -0.715606465284     0.359765956228    12.000000000000
         C           -2.564932463457    -1.872292865284    -0.612958443772    12.000000000000
         C            1.221713536543    -1.260128465284     0.309983956228    12.000000000000
         C            1.757532536543     1.068714534716    -0.060693043772    12.000000000000
         C            2.513039536543    -1.607860465284     0.045704956228    12.000000000000
         C            3.413921536543    -0.549373465284    -0.260215043772    12.000000000000
         H           -0.935667463457     0.592683534716    -1.516181043772     1.007825032230
         H           -3.360643463457     0.643944534716    -1.147755043772     1.007825032230
         H           -0.438351463457     1.223159534716     1.402707956228     1.007825032230
         H           -3.288863663457    -0.940080265284     1.111765256228     1.007825032230
         H           -1.711369463457    -1.699025465284    -1.370754043772     1.007825032230
         H           -3.483622463457    -1.832724465284    -1.185425043772     1.007825032230
         H           -0.295586463457     2.714458534716    -0.526290043772     1.007825032230
         H           -2.845617463457     2.401022534716     0.507372956228     1.007825032230
         H            0.436249536543    -1.962157465284     0.567777956228     1.007825032230
         H           -2.431935463457    -3.797152465284    -0.544523043772     1.007825032230
         H            2.831050536543    -2.644118465284     0.072631956228     1.007825032230
         H            5.127118536543    -1.669581465284    -0.163704043772     1.007825032230
         H            5.321752536543    -0.018774465284    -0.569584043772     1.007825032230

  Basis Set: AUG-CC-PVTZ
    Blend: AUG-CC-PVTZ
  Basis Set: (AUG-CC-PVTZ AUX)
    Blend: AUG-CC-PVTZ-JKFIT
	 Reference Energy          =    -886.3706552662634977 [Eh]
	 Singles Energy            =      -0.0000000000000000 [Eh]
	 Same-Spin Energy          =      -0.9012346579202919 [Eh]
	 Opposite-Spin Energy      =      -2.7145245066068333 [Eh]
	 Correlation Energy        =      -3.6157591645271250 [Eh]
	 Total Energy              =    -889.9864144307906599 [Eh]

	 ================> DF-SCS-MP2 Energies <==================
	-----------------------------------------------------------
	 SCS Same-Spin Scale       =       0.3333333333333333 [-]
	 SCS Opposite-Spin Scale   =       1.2000000000000000 [-]
	 SCS Same-Spin Energy      =      -0.3004115526400973 [Eh]
	 SCS Opposite-Spin Energy  =      -3.2574294079281998 [Eh]
	 SCS Correlation Energy    =      -3.5578409605682970 [Eh]
	 SCS Total Energy          =    -889.9284962268318395 [Eh]
	-----------------------------------------------------------

  Dipole Moment: [D]
     X:     1.6476      Y:    -6.0674      Z:    -1.7687     Total:     6.5312

*** Psi4 exiting successfully. Buy a developer a beer!
