                               Psi4 1.4a3.dev225

  ==> Input File <==

--------------------------------------------------------------------------
#psi4
#
memory 32 gb

molecule  {
0 1
  O       -1.3191770     0.6538360    -1.0992360
  O       -1.5735610    -2.4640850     0.5135810
  O       -3.5606630    -1.0699430    -0.4600060
  O       -1.4399290     3.1254620     0.1265180
  O        1.1065530    -2.3833650     0.0076020
  N        0.7686360    -0.1579440    -0.3706350
  N        2.9363770    -0.9938720     0.1460080
  N        4.7058880     0.4431110     0.3611260
  C       -1.3768610    -1.0680440     0.5552780
  C       -2.7379840    -0.3746360     0.4578480
  C       -0.6377490    -0.5042940    -0.6790150
  C       -2.3707440     0.9655450    -0.1585060
  C       -1.8992030     1.9895750     0.8571380
  C        1.2309690     1.1190800    -0.4442230
  C        1.6104480    -1.2470590    -0.0585760
  C        2.5474650     1.3753690    -0.1998620
  C        3.3918883     0.2365530     0.0847779
  H       -0.8441360    -0.7686950     1.4698480
  H       -3.2257400    -0.2778790     1.4400230
  H       -0.6227070    -1.2428120    -1.4883720
  H       -3.1941750     1.3785730    -0.7472070
  H       -1.0952130     1.5703990     1.4802000
  H       -2.7410530     2.2466610     1.5166010
  H       -0.6710550    -2.8260740     0.3542250
  H       -3.3063470    -2.0105220    -0.3629290
  H        0.4929290     1.8778260    -0.6840360
  H       -1.2098800     3.8154810     0.7720340
  H        2.9334840     2.3875570    -0.2389120
  H        5.1589650     1.2712730    -0.0008400
  H        5.2635310    -0.4031270     0.3606700
units angstrom
no_reorient  #important for SAPT in psi4, default
symmetry c1  #important for SAPT in psi4, default
}

set PROPERTIES_ORIGIN ["COM"]
properties('MP2/aug-cc-pvtz', properties = ['dipole'])
--------------------------------------------------------------------------

    Molecular point group: c1
  Charge       = 0
  Multiplicity = 1
  Basis Set: AUG-CC-PVTZ
    Blend: AUG-CC-PVTZ
  Basis Set: (AUG-CC-PVTZ AUX)
    Blend: AUG-CC-PVTZ-JKFIT

    Orbital Energies [Eh]
    ---------------------

    Doubly Occupied:

       1A    -20.586097     2A    -20.580738     3A    -20.559126
       4A    -20.556072     5A    -20.520672     6A    -15.631203
       7A    -15.601195     8A    -15.551410     9A    -11.387112
      10A    -11.358350    11A    -11.338863    12A    -11.322410
      13A    -11.302985    14A    -11.297402    15A    -11.296473
      16A    -11.293062    17A    -11.246770    18A     -1.428636
      19A     -1.394351    20A     -1.382583    21A     -1.375060
      22A     -1.346259    23A     -1.305536    24A     -1.272779
      25A     -1.184982    26A     -1.076014    27A     -1.067538
      28A     -1.015920    29A     -0.935733    30A     -0.904186
      31A     -0.878678    32A     -0.829815    33A     -0.811771
      34A     -0.766870    35A     -0.749377    36A     -0.734718
      37A     -0.724014    38A     -0.707740    39A     -0.703359
      40A     -0.686441    41A     -0.674836    42A     -0.653157
      43A     -0.648093    44A     -0.633171    45A     -0.619583
      46A     -0.614143    47A     -0.606740    48A     -0.593733
      49A     -0.576637    50A     -0.565140    51A     -0.555872
      52A     -0.547897    53A     -0.536661    54A     -0.531559
      55A     -0.495238    56A     -0.480245    57A     -0.473278
      58A     -0.463075    59A     -0.457678    60A     -0.452470
      61A     -0.441628    62A     -0.429474    63A     -0.393829
      64A     -0.346664

  @DF-RHF Final Energy:  -886.37438634998659

   => Energetics <=

    Nuclear Repulsion Energy =           1334.4895011471726320
    One-Electron Energy =               -3866.7215665773087494
    Two-Electron Energy =                1645.8576790801494099
    Total Energy =                       -886.3743863499867075
  Basis Set: (AUG-CC-PVTZ AUX)
    Blend: AUG-CC-PVTZ-RI
    Molecular point group: c1

    Geometry (in Angstrom), charge = 0, multiplicity = 1:

       Center              X                  Y                   Z               Mass
    ------------   -----------------  -----------------  -----------------  -----------------
         O           -1.332497207442     0.683225020258    -1.083650135511    15.994914619570
         O           -1.586881207442    -2.434695979742     0.529166864489    15.994914619570
         O           -3.573983207442    -1.040553979742    -0.444420135511    15.994914619570
         O           -1.453249207442     3.154851020258     0.142103864489    15.994914619570
         O            1.093232792558    -2.353975979742     0.023187864489    15.994914619570
         N            0.755315792558    -0.128554979742    -0.355049135511    14.003074004430
         N            2.923056792558    -0.964482979742     0.161593864489    14.003074004430
         N            4.692567792558     0.472500020258     0.376711864489    14.003074004430
         C           -1.390181207442    -1.038654979742     0.570863864489    12.000000000000
         C           -2.751304207442    -0.345246979742     0.473433864489    12.000000000000
         C           -0.651069207442    -0.474904979742    -0.663429135511    12.000000000000
         C           -2.384064207442     0.994934020258    -0.142920135511    12.000000000000
         C           -1.912523207442     2.018964020258     0.872723864489    12.000000000000
         C            1.217648792558     1.148469020258    -0.428637135511    12.000000000000
         C            1.597127792558    -1.217669979742    -0.042990135511    12.000000000000
         C            2.534144792558     1.404758020258    -0.184276135511    12.000000000000
         C            3.378568092558     0.265942020258     0.100363764489    12.000000000000
         H           -0.857456207442    -0.739305979742     1.485433864489     1.007825032230
         H           -3.239060207442    -0.248489979742     1.455608864489     1.007825032230
         H           -0.636027207442    -1.213422979742    -1.472786135511     1.007825032230
         H           -3.207495207442     1.407962020258    -0.731621135511     1.007825032230
         H           -1.108533207442     1.599788020258     1.495785864489     1.007825032230
         H           -2.754373207442     2.276050020258     1.532186864489     1.007825032230
         H           -0.684375207442    -2.796684979742     0.369810864489     1.007825032230
         H           -3.319667207442    -1.981132979742    -0.347343135511     1.007825032230
         H            0.479608792558     1.907215020258    -0.668450135511     1.007825032230
         H           -1.223200207442     3.844870020258     0.787619864489     1.007825032230
         H            2.920163792558     2.416946020258    -0.223326135511     1.007825032230
         H            5.145644792558     1.300662020258     0.014745864489     1.007825032230
         H            5.250210792558    -0.373737979742     0.376255864489     1.007825032230

  Basis Set: AUG-CC-PVTZ
    Blend: AUG-CC-PVTZ
  Basis Set: (AUG-CC-PVTZ AUX)
    Blend: AUG-CC-PVTZ-JKFIT
	 Reference Energy          =    -886.3743863499865938 [Eh]
	 Singles Energy            =      -0.0000000000000000 [Eh]
	 Same-Spin Energy          =      -0.9015243497890122 [Eh]
	 Opposite-Spin Energy      =      -2.7155683603696747 [Eh]
	 Correlation Energy        =      -3.6170927101586869 [Eh]
	 Total Energy              =    -889.9914790601452523 [Eh]

	 ================> DF-SCS-MP2 Energies <==================
	-----------------------------------------------------------
	 SCS Same-Spin Scale       =       0.3333333333333333 [-]
	 SCS Opposite-Spin Scale   =       1.2000000000000000 [-]
	 SCS Same-Spin Energy      =      -0.3005081165963374 [Eh]
	 SCS Opposite-Spin Energy  =      -3.2586820324436094 [Eh]
	 SCS Correlation Energy    =      -3.5591901490399467 [Eh]
	 SCS Total Energy          =    -889.9335764990265716 [Eh]
	-----------------------------------------------------------

  Dipole Moment: [D]
     X:     2.8621      Y:     5.7468      Z:     1.9730     Total:     6.7164

*** Psi4 exiting successfully. Buy a developer a beer!
