                               Psi4 1.3.2 release

  ==> Input File <==

--------------------------------------------------------------------------
#psi4
#
memory 32 gb

molecule  {
0 1
  O       -1.2481010    -0.6526680     1.0325150
  O       -1.2449750     2.4828510    -0.6861630
  O       -3.2165300     1.5210990     0.7448870
  O       -2.3570290    -3.0668370     0.0949400
  O        1.3605300     2.2470340    -0.0765420
  N        0.8434040     0.0452230     0.2559430
  N        3.0572260     0.7205030    -0.2937270
  N        4.7164630    -0.8366550    -0.5722980
  C       -1.2894840     1.0784300    -0.5920770
  C       -2.7151710     0.6552070    -0.2573930
  C       -0.5182461     0.5060324     0.5965382
  C       -2.5292560    -0.7168860     0.3610560
  C       -2.5283440    -1.8503930    -0.6392900
  C        1.2197750    -1.2614080     0.3112740
  C        1.7379289     1.0840524    -0.0556812
  C        2.5111010    -1.6091400     0.0469950
  C        3.4119830    -0.5506530    -0.2589250
  H       -0.9376060     0.5914040    -1.5148910
  H       -3.3625820     0.6426650    -1.1464650
  H       -0.4402900     1.2218800     1.4039980
  H       -3.2819570    -0.9087340     1.1307830
  H       -1.7133080    -1.7003050    -1.3694640
  H       -3.4855610    -1.8340040    -1.1841350
  H       -0.2975250     2.7131790    -0.5250000
  H       -2.8475560     2.3997430     0.5086630
  H        0.4343110    -1.9634370     0.5690680
  H       -2.4338740    -3.7984320    -0.5432330
  H        2.8291120    -2.6453980     0.0739220
  H        5.1251800    -1.6708610    -0.1624140
  H        5.3198140    -0.0200540    -0.5682940
units angstrom
no_reorient  #important for SAPT in psi4, default
symmetry c1  #important for SAPT in psi4, default
}

set PROPERTIES_ORIGIN ["COM"]
properties('MP2/aug-cc-pvtz', properties = ['dipole'])
--------------------------------------------------------------------------

    Molecular point group: c1
  Charge       = 0
  Multiplicity = 1
  Basis Set: AUG-CC-PVTZ
    Blend: AUG-CC-PVTZ
  Basis Set: (AUG-CC-PVTZ AUX)
    Blend: AUG-CC-PVTZ-JKFIT

    Orbital Energies [Eh]
    ---------------------

    Doubly Occupied:

       1A    -20.581468     2A    -20.579206     3A    -20.558982
       4A    -20.558419     5A    -20.528935     6A    -15.636248
       7A    -15.597681     8A    -15.551309     9A    -11.389270
      10A    -11.354970    11A    -11.341800    12A    -11.327721
      13A    -11.300312    14A    -11.297782    15A    -11.295525
      16A    -11.293488    17A    -11.247415    18A     -1.427411
      19A     -1.403591    20A     -1.380356    21A     -1.371273
      22A     -1.347761    23A     -1.308244    24A     -1.272685
      25A     -1.176137    26A     -1.081837    27A     -1.066210
      28A     -1.022076    29A     -0.935363    30A     -0.908862
      31A     -0.874689    32A     -0.832460    33A     -0.810369
      34A     -0.764561    35A     -0.752059    36A     -0.738156
      37A     -0.719470    38A     -0.702762    39A     -0.698102
      40A     -0.684608    41A     -0.672272    42A     -0.655314
      43A     -0.654053    44A     -0.638347    45A     -0.619686
      46A     -0.614492    47A     -0.605868    48A     -0.596918
      49A     -0.574661    50A     -0.569029    51A     -0.553945
      52A     -0.545288    53A     -0.539788    54A     -0.533130
      55A     -0.501208    56A     -0.477259    57A     -0.474739
      58A     -0.466879    59A     -0.460372    60A     -0.453633
      61A     -0.442299    62A     -0.429481    63A     -0.393819
      64A     -0.349855

  @DF-RHF Final Energy:  -886.37194068860003

   => Energetics <=

    Nuclear Repulsion Energy =           1323.6193701790189152
    One-Electron Energy =               -3844.8988149746851377
    Two-Electron Energy =                1634.9075041070661882
    Total Energy =                       -886.3719406886000343
  Basis Set: (AUG-CC-PVTZ AUX)
    Blend: AUG-CC-PVTZ-RI
    Molecular point group: c1

    Geometry (in Angstrom), charge = 0, multiplicity = 1:

       Center              X                  Y                   Z               Mass
    ------------   -----------------  -----------------  -----------------  -----------------
         O           -1.247582539870    -0.654698376529     1.032506812834    15.994914619570
         O           -1.244456539870     2.480820623471    -0.686171187166    15.994914619570
         O           -3.216011539870     1.519068623471     0.744878812834    15.994914619570
         O           -2.356510539870    -3.068867376529     0.094931812834    15.994914619570
         O            1.361048460130     2.245003623471    -0.076550187166    15.994914619570
         N            0.843922460130     0.043192623471     0.255934812834    14.003074004430
         N            3.057744460130     0.718472623471    -0.293735187166    14.003074004430
         N            4.716981460130    -0.838685376529    -0.572306187166    14.003074004430
         C           -1.288965539870     1.076399623471    -0.592085187166    12.000000000000
         C           -2.714652539870     0.653176623471    -0.257401187166    12.000000000000
         C           -0.517727639870     0.504002023471     0.596530012834    12.000000000000
         C           -2.528737539870    -0.718916376529     0.361047812834    12.000000000000
         C           -2.527825539870    -1.852423376529    -0.639298187166    12.000000000000
         C            1.220293460130    -1.263438376529     0.311265812834    12.000000000000
         C            1.738447360130     1.082022023471    -0.055689387166    12.000000000000
         C            2.511619460130    -1.611170376529     0.046986812834    12.000000000000
         C            3.412501460130    -0.552683376529    -0.258933187166    12.000000000000
         H           -0.937087539870     0.589373623471    -1.514899187166     1.007825032230
         H           -3.362063539870     0.640634623471    -1.146473187166     1.007825032230
         H           -0.439771539870     1.219849623471     1.403989812834     1.007825032230
         H           -3.281438539870    -0.910764376529     1.130774812834     1.007825032230
         H           -1.712789539870    -1.702335376529    -1.369472187166     1.007825032230
         H           -3.485042539870    -1.836034376529    -1.184143187166     1.007825032230
         H           -0.297006539870     2.711148623471    -0.525008187166     1.007825032230
         H           -2.847037539870     2.397712623471     0.508654812834     1.007825032230
         H            0.434829460130    -1.965467376529     0.569059812834     1.007825032230
         H           -2.433355539870    -3.800462376529    -0.543241187166     1.007825032230
         H            2.829630460130    -2.647428376529     0.073913812834     1.007825032230
         H            5.125698460130    -1.672891376529    -0.162422187166     1.007825032230
         H            5.320332460130    -0.022084376529    -0.568302187166     1.007825032230

  Basis Set: AUG-CC-PVTZ
    Blend: AUG-CC-PVTZ
  Basis Set: (AUG-CC-PVTZ AUX)
    Blend: AUG-CC-PVTZ-JKFIT
	 Reference Energy          =    -886.3719406886000343 [Eh]
	 Singles Energy            =      -0.0000000000000000 [Eh]
	 Same-Spin Energy          =      -0.9009367383913999 [Eh]
	 Opposite-Spin Energy      =      -2.7150398875747408 [Eh]
	 Correlation Energy        =      -3.6159766259661406 [Eh]
	 Total Energy              =    -889.9879173145661753 [Eh]

	 ================> DF-SCS-MP2 Energies <==================
	-----------------------------------------------------------
	 SCS Same-Spin Scale       =       0.3333333333333333 [-]
	 SCS Opposite-Spin Scale   =       1.2000000000000000 [-]
	 SCS Same-Spin Energy      =      -0.3003122461304666 [Eh]
	 SCS Opposite-Spin Energy  =      -3.2580478650896887 [Eh]
	 SCS Correlation Energy    =      -3.5583601112201553 [Eh]
	 SCS Total Energy          =    -889.9303007998202020 [Eh]
	-----------------------------------------------------------

  Dipole Moment: [D]
     X:     1.6325      Y:    -5.6879      Z:    -1.8191     Total:     6.1908

*** Psi4 exiting successfully. Buy a developer a beer!
