                               Psi4 1.3.2 release

  ==> Input File <==

--------------------------------------------------------------------------
#psi4
#
memory 32 gb

molecule  {
0 1
  O       -1.2481010    -0.6526680     1.0325150
  O       -1.2449750     2.4828510    -0.6861630
  O       -3.2165300     1.5210990     0.7448870
  O       -2.3570290    -3.0668370     0.0949400
  O        1.3605300     2.2470340    -0.0765420
  N        0.8434040     0.0452230     0.2559430
  N        3.0572260     0.7205030    -0.2937270
  N        4.7164630    -0.8366550    -0.5722980
  C       -1.2894840     1.0784300    -0.5920770
  C       -2.7151710     0.6552070    -0.2573930
  C       -0.5254080     0.4815200     0.6000940
  C       -2.5292560    -0.7168860     0.3610560
  C       -2.5283440    -1.8503930    -0.6392900
  C        1.2197750    -1.2614080     0.3112740
  C        1.7555940     1.0674350    -0.0594030
  C        2.5111010    -1.6091400     0.0469950
  C        3.4119830    -0.5506530    -0.2589250
  H       -0.9376060     0.5914040    -1.5148910
  H       -3.3625820     0.6426650    -1.1464650
  H       -0.4402900     1.2218800     1.4039980
  H       -3.2819570    -0.9087340     1.1307830
  H       -1.7133080    -1.7003050    -1.3694640
  H       -3.4855610    -1.8340040    -1.1841350
  H       -0.2016559     2.7364851    -0.5086925
  H       -2.8475560     2.3997430     0.5086630
  H        0.4343110    -1.9634370     0.5690680
  H       -2.4338740    -3.7984320    -0.5432330
  H        2.8291120    -2.6453980     0.0739220
  H        5.1251800    -1.6708610    -0.1624140
  H        5.3198140    -0.0200540    -0.5682940
units angstrom
no_reorient  #important for SAPT in psi4, default
symmetry c1  #important for SAPT in psi4, default
}

set PROPERTIES_ORIGIN ["COM"]
properties('MP2/aug-cc-pvtz', properties = ['dipole'])
--------------------------------------------------------------------------

    Molecular point group: c1
  Charge       = 0
  Multiplicity = 1
  Basis Set: AUG-CC-PVTZ
    Blend: AUG-CC-PVTZ
  Basis Set: (AUG-CC-PVTZ AUX)
    Blend: AUG-CC-PVTZ-JKFIT

    Orbital Energies [Eh]
    ---------------------

    Doubly Occupied:

       1A    -20.581504     2A    -20.580570     3A    -20.555161
       4A    -20.553898     5A    -20.527892     6A    -15.638775
       7A    -15.601493     8A    -15.556044     9A    -11.392680
      10A    -11.359979    11A    -11.340285    12A    -11.329887
      13A    -11.300139    14A    -11.295439    15A    -11.292883
      16A    -11.290389    17A    -11.250145    18A     -1.428430
      19A     -1.399936    20A     -1.375301    21A     -1.367775
      22A     -1.330732    23A     -1.309017    24A     -1.275529
      25A     -1.184413    26A     -1.083090    27A     -1.065062
      28A     -1.017933    29A     -0.934936    30A     -0.910986
      31A     -0.877962    32A     -0.828057    33A     -0.810237
      34A     -0.768653    35A     -0.752474    36A     -0.729158
      37A     -0.721058    38A     -0.698999    39A     -0.695344
      40A     -0.687044    41A     -0.669678    42A     -0.655703
      43A     -0.652930    44A     -0.638508    45A     -0.619656
      46A     -0.610949    47A     -0.605354    48A     -0.593411
      49A     -0.572362    50A     -0.567725    51A     -0.549830
      52A     -0.544341    53A     -0.535943    54A     -0.530456
      55A     -0.499643    56A     -0.475998    57A     -0.472618
      58A     -0.460719    59A     -0.459869    60A     -0.446864
      61A     -0.439022    62A     -0.434121    63A     -0.397328
      64A     -0.352096

  @DF-RHF Final Energy:  -886.36154101997283

   => Energetics <=

    Nuclear Repulsion Energy =           1323.3287975931386882
    One-Electron Energy =               -3844.4118538297052510
    Two-Electron Energy =                1634.7215152165933887
    Total Energy =                       -886.3615410199729467
  Basis Set: (AUG-CC-PVTZ AUX)
    Blend: AUG-CC-PVTZ-RI
    Molecular point group: c1

    Geometry (in Angstrom), charge = 0, multiplicity = 1:

       Center              X                  Y                   Z               Mass
    ------------   -----------------  -----------------  -----------------  -----------------
         O           -1.248498504253    -0.652764616229     1.032447397091    15.994914619570
         O           -1.245372504253     2.482754383771    -0.686230602909    15.994914619570
         O           -3.216927504253     1.521002383771     0.744819397091    15.994914619570
         O           -2.357426504253    -3.066933616229     0.094872397091    15.994914619570
         O            1.360132495747     2.246937383771    -0.076609602909    15.994914619570
         N            0.843006495747     0.045126383771     0.255875397091    14.003074004430
         N            3.056828495747     0.720406383771    -0.293794602909    14.003074004430
         N            4.716065495747    -0.836751616229    -0.572365602909    14.003074004430
         C           -1.289881504253     1.078333383771    -0.592144602909    12.000000000000
         C           -2.715568504253     0.655110383771    -0.257460602909    12.000000000000
         C           -0.525805504253     0.481423383771     0.600026397091    12.000000000000
         C           -2.529653504253    -0.716982616229     0.360988397091    12.000000000000
         C           -2.528741504253    -1.850489616229    -0.639357602909    12.000000000000
         C            1.219377495747    -1.261504616229     0.311206397091    12.000000000000
         C            1.755196495747     1.067338383771    -0.059470602909    12.000000000000
         C            2.510703495747    -1.609236616229     0.046927397091    12.000000000000
         C            3.411585495747    -0.550749616229    -0.258992602909    12.000000000000
         H           -0.938003504253     0.591307383771    -1.514958602909     1.007825032230
         H           -3.362979504253     0.642568383771    -1.146532602909     1.007825032230
         H           -0.440687504253     1.221783383771     1.403930397091     1.007825032230
         H           -3.282354504253    -0.908830616229     1.130715397091     1.007825032230
         H           -1.713705504253    -1.700401616229    -1.369531602909     1.007825032230
         H           -3.485958504253    -1.834100616229    -1.184202602909     1.007825032230
         H           -0.202053404253     2.736388483771    -0.508760102909     1.007825032230
         H           -2.847953504253     2.399646383771     0.508595397091     1.007825032230
         H            0.433913495747    -1.963533616229     0.569000397091     1.007825032230
         H           -2.434271504253    -3.798528616229    -0.543300602909     1.007825032230
         H            2.828714495747    -2.645494616229     0.073854397091     1.007825032230
         H            5.124782495747    -1.670957616229    -0.162481602909     1.007825032230
         H            5.319416495747    -0.020150616229    -0.568361602909     1.007825032230

  Basis Set: AUG-CC-PVTZ
    Blend: AUG-CC-PVTZ
  Basis Set: (AUG-CC-PVTZ AUX)
    Blend: AUG-CC-PVTZ-JKFIT
	 Reference Energy          =    -886.3615410199728331 [Eh]
	 Singles Energy            =      -0.0000000000000000 [Eh]
	 Same-Spin Energy          =      -0.9029817187996538 [Eh]
	 Opposite-Spin Energy      =      -2.7179245983621287 [Eh]
	 Correlation Energy        =      -3.6209063171617828 [Eh]
	 Total Energy              =    -889.9824473371346585 [Eh]

	 ================> DF-SCS-MP2 Energies <==================
	-----------------------------------------------------------
	 SCS Same-Spin Scale       =       0.3333333333333333 [-]
	 SCS Opposite-Spin Scale   =       1.2000000000000000 [-]
	 SCS Same-Spin Energy      =      -0.3009939062665513 [Eh]
	 SCS Opposite-Spin Energy  =      -3.2615095180345546 [Eh]
	 SCS Correlation Energy    =      -3.5625034243011058 [Eh]
	 SCS Total Energy          =    -889.9240444442739317 [Eh]
	-----------------------------------------------------------

  Dipole Moment: [D]
     X:     2.1043      Y:    -6.0125      Z:    -1.7650     Total:     6.6101

*** Psi4 exiting successfully. Buy a developer a beer!
