                               Psi4 1.3.2 release

  ==> Input File <==

--------------------------------------------------------------------------
#psi4
#
memory 32 gb

molecule  {
0 1
  O       -1.2510481    -0.6766373     1.0399549
  O       -1.2449750     2.4828510    -0.6861630
  O       -3.2165300     1.5210990     0.7448870
  O       -2.3570290    -3.0668370     0.0949400
  O        1.3605300     2.2470340    -0.0765420
  N        0.8434040     0.0452230     0.2559430
  N        3.0572260     0.7205030    -0.2937270
  N        4.7164630    -0.8366550    -0.5722980
  C       -1.2894840     1.0784300    -0.5920770
  C       -2.7385138     0.6474024    -0.2671248
  C       -0.5254080     0.4815200     0.6000940
  C       -2.5292560    -0.7168860     0.3610560
  C       -2.5283440    -1.8503930    -0.6392900
  C        1.2197750    -1.2614080     0.3112740
  C        1.7555940     1.0674350    -0.0594030
  C        2.5111010    -1.6091400     0.0469950
  C        3.4119830    -0.5506530    -0.2589250
  H       -0.9376060     0.5914040    -1.5148910
  H       -3.3625820     0.6426650    -1.1464650
  H       -0.4402900     1.2218800     1.4039980
  H       -3.2819570    -0.9087340     1.1307830
  H       -1.7133080    -1.7003050    -1.3694640
  H       -3.4855610    -1.8340040    -1.1841350
  H       -0.2975250     2.7131790    -0.5250000
  H       -2.8475560     2.3997430     0.5086630
  H        0.4343110    -1.9634370     0.5690680
  H       -2.4338740    -3.7984320    -0.5432330
  H        2.8291120    -2.6453980     0.0739220
  H        5.1251800    -1.6708610    -0.1624140
  H        5.3198140    -0.0200540    -0.5682940
units angstrom
no_reorient  #important for SAPT in psi4, default
symmetry c1  #important for SAPT in psi4, default
}

set PROPERTIES_ORIGIN ["COM"]
properties('MP2/aug-cc-pvtz', properties = ['dipole'])
--------------------------------------------------------------------------

    Molecular point group: c1
  Charge       = 0
  Multiplicity = 1
  Basis Set: AUG-CC-PVTZ
    Blend: AUG-CC-PVTZ
  Basis Set: (AUG-CC-PVTZ AUX)
    Blend: AUG-CC-PVTZ-JKFIT

    Orbital Energies [Eh]
    ---------------------

    Doubly Occupied:

       1A    -20.582864     2A    -20.581351     3A    -20.557776
       4A    -20.557373     5A    -20.522400     6A    -15.637682
       7A    -15.600018     8A    -15.553587     9A    -11.388665
      10A    -11.358065    11A    -11.343583    12A    -11.328521
      13A    -11.300216    14A    -11.298329    15A    -11.295871
      16A    -11.293206    17A    -11.248654    18A     -1.424419
      19A     -1.395566    20A     -1.379055    21A     -1.370876
      22A     -1.345604    23A     -1.306299    24A     -1.274091
      25A     -1.182514    26A     -1.082095    27A     -1.066015
      28A     -1.019401    29A     -0.934614    30A     -0.909330
      31A     -0.877535    32A     -0.832133    33A     -0.812636
      34A     -0.766936    35A     -0.751688    36A     -0.734599
      37A     -0.720227    38A     -0.702486    39A     -0.697279
      40A     -0.684953    41A     -0.673005    42A     -0.653753
      43A     -0.651028    44A     -0.638834    45A     -0.620128
      46A     -0.614209    47A     -0.605684    48A     -0.594260
      49A     -0.575617    50A     -0.567892    51A     -0.554091
      52A     -0.545363    53A     -0.537455    54A     -0.531605
      55A     -0.497691    56A     -0.476829    57A     -0.473587
      58A     -0.461670    59A     -0.460994    60A     -0.452176
      61A     -0.441479    62A     -0.433687    63A     -0.395612
      64A     -0.350340

  @DF-RHF Final Energy:  -886.37111416472499

   => Energetics <=

    Nuclear Repulsion Energy =           1322.4968099269283357
    One-Electron Energy =               -3842.6848455896129053
    Two-Electron Energy =                1633.8169214979593562
    Total Energy =                       -886.3711141647249860
  Basis Set: (AUG-CC-PVTZ AUX)
    Blend: AUG-CC-PVTZ-RI
    Molecular point group: c1

    Geometry (in Angstrom), charge = 0, multiplicity = 1:

       Center              X                  Y                   Z               Mass
    ------------   -----------------  -----------------  -----------------  -----------------
         O           -1.249701890803    -0.674674844274     1.039945779149    15.994914619570
         O           -1.243628790803     2.484813455726    -0.686172120851    15.994914619570
         O           -3.215183790803     1.523061455726     0.744877879149    15.994914619570
         O           -2.355682790803    -3.064874544274     0.094930879149    15.994914619570
         O            1.361876209197     2.248996455726    -0.076551120851    15.994914619570
         N            0.844750209197     0.047185455726     0.255933879149    14.003074004430
         N            3.058572209197     0.722465455726    -0.293736120851    14.003074004430
         N            4.717809209197    -0.834692544274    -0.572307120851    14.003074004430
         C           -1.288137790803     1.080392455726    -0.592086120851    12.000000000000
         C           -2.737167590803     0.649364855726    -0.267133920851    12.000000000000
         C           -0.524061790803     0.483482455726     0.600084879149    12.000000000000
         C           -2.527909790803    -0.714923544274     0.361046879149    12.000000000000
         C           -2.526997790803    -1.848430544274    -0.639299120851    12.000000000000
         C            1.221121209197    -1.259445544274     0.311264879149    12.000000000000
         C            1.756940209197     1.069397455726    -0.059412120851    12.000000000000
         C            2.512447209197    -1.607177544274     0.046985879149    12.000000000000
         C            3.413329209197    -0.548690544274    -0.258934120851    12.000000000000
         H           -0.936259790803     0.593366455726    -1.514900120851     1.007825032230
         H           -3.361235790803     0.644627455726    -1.146474120851     1.007825032230
         H           -0.438943790803     1.223842455726     1.403988879149     1.007825032230
         H           -3.280610790803    -0.906771544274     1.130773879149     1.007825032230
         H           -1.711961790803    -1.698342544274    -1.369473120851     1.007825032230
         H           -3.484214790803    -1.832041544274    -1.184144120851     1.007825032230
         H           -0.296178790803     2.715141455726    -0.525009120851     1.007825032230
         H           -2.846209790803     2.401705455726     0.508653879149     1.007825032230
         H            0.435657209197    -1.961474544274     0.569058879149     1.007825032230
         H           -2.432527790803    -3.796469544274    -0.543242120851     1.007825032230
         H            2.830458209197    -2.643435544274     0.073912879149     1.007825032230
         H            5.126526209197    -1.668898544274    -0.162423120851     1.007825032230
         H            5.321160209197    -0.018091544274    -0.568303120851     1.007825032230

  Basis Set: AUG-CC-PVTZ
    Blend: AUG-CC-PVTZ
  Basis Set: (AUG-CC-PVTZ AUX)
    Blend: AUG-CC-PVTZ-JKFIT
	 Reference Energy          =    -886.3711141647249860 [Eh]
	 Singles Energy            =      -0.0000000000000000 [Eh]
	 Same-Spin Energy          =      -0.9013419972767611 [Eh]
	 Opposite-Spin Energy      =      -2.7157349113518583 [Eh]
	 Correlation Energy        =      -3.6170769086286194 [Eh]
	 Total Energy              =    -889.9881910733536188 [Eh]

	 ================> DF-SCS-MP2 Energies <==================
	-----------------------------------------------------------
	 SCS Same-Spin Scale       =       0.3333333333333333 [-]
	 SCS Opposite-Spin Scale   =       1.2000000000000000 [-]
	 SCS Same-Spin Energy      =      -0.3004473324255870 [Eh]
	 SCS Opposite-Spin Energy  =      -3.2588818936222297 [Eh]
	 SCS Correlation Energy    =      -3.5593292260478169 [Eh]
	 SCS Total Energy          =    -889.9304433907727798 [Eh]
	-----------------------------------------------------------

  Dipole Moment: [D]
     X:     1.7395      Y:    -5.8825      Z:    -1.8647     Total:     6.4114

*** Psi4 exiting successfully. Buy a developer a beer!
