                               Psi4 1.4a3.dev225

  ==> Input File <==

--------------------------------------------------------------------------
#psi4
#
memory 32 gb

molecule  {
0 1
  O       -1.3191770     0.6538360    -1.0992360
  O       -1.5735610    -2.4640850     0.5135810
  O       -3.5606630    -1.0699430    -0.4600060
  O       -1.4399290     3.1254620     0.1265180
  O        1.1065530    -2.3833650     0.0076020
  N        0.7686360    -0.1579440    -0.3706350
  N        2.9363770    -0.9938720     0.1460080
  N        4.7058880     0.4431110     0.3611260
  C       -1.3768610    -1.0680440     0.5552780
  C       -2.7379840    -0.3746360     0.4578480
  C       -0.6377490    -0.5042940    -0.6790150
  C       -2.3707440     0.9655450    -0.1585060
  C       -1.8992030     1.9895750     0.8571380
  C        1.2241706     1.1003020    -0.4431409
  C        1.6104480    -1.2470590    -0.0585760
  C        2.5474650     1.3753690    -0.1998620
  C        3.3802090     0.2523040     0.0808410
  H       -0.8441360    -0.7686950     1.4698480
  H       -3.2257400    -0.2778790     1.4400230
  H       -0.6227070    -1.2428120    -1.4883720
  H       -3.1941750     1.3785730    -0.7472070
  H       -1.0952130     1.5703990     1.4802000
  H       -2.7410530     2.2466610     1.5166010
  H       -0.6710550    -2.8260740     0.3542250
  H       -3.3063470    -2.0105220    -0.3629290
  H        0.4929290     1.8778260    -0.6840360
  H       -1.2098800     3.8154810     0.7720340
  H        2.9334840     2.3875570    -0.2389120
  H        5.1589650     1.2712730    -0.0008400
  H        5.2635310    -0.4031270     0.3606700
units angstrom
no_reorient  #important for SAPT in psi4, default
symmetry c1  #important for SAPT in psi4, default
}

set PROPERTIES_ORIGIN ["COM"]
properties('MP2/aug-cc-pvtz', properties = ['dipole'])
--------------------------------------------------------------------------

    Molecular point group: c1
  Charge       = 0
  Multiplicity = 1
  Basis Set: AUG-CC-PVTZ
    Blend: AUG-CC-PVTZ
  Basis Set: (AUG-CC-PVTZ AUX)
    Blend: AUG-CC-PVTZ-JKFIT

    Orbital Energies [Eh]
    ---------------------

    Doubly Occupied:

       1A    -20.586969     2A    -20.582281     3A    -20.560129
       4A    -20.557038     5A    -20.520371     6A    -15.635206
       7A    -15.598251     8A    -15.551092     9A    -11.386589
      10A    -11.356426    11A    -11.340952    12A    -11.325363
      13A    -11.303970    14A    -11.298552    15A    -11.298032
      16A    -11.294209    17A    -11.245215    18A     -1.430675
      19A     -1.395371    20A     -1.383531    21A     -1.376221
      22A     -1.347224    23A     -1.305097    24A     -1.274636
      25A     -1.181020    26A     -1.076943    27A     -1.068743
      28A     -1.018046    29A     -0.937514    30A     -0.907999
      31A     -0.877036    32A     -0.830901    33A     -0.812846
      34A     -0.766615    35A     -0.752071    36A     -0.736282
      37A     -0.721392    38A     -0.708368    39A     -0.703661
      40A     -0.684417    41A     -0.675670    42A     -0.654108
      43A     -0.649431    44A     -0.634584    45A     -0.620857
      46A     -0.614167    47A     -0.605333    48A     -0.595036
      49A     -0.576978    50A     -0.565169    51A     -0.556228
      52A     -0.548736    53A     -0.537282    54A     -0.531233
      55A     -0.497681    56A     -0.481247    57A     -0.474491
      58A     -0.464213    59A     -0.458143    60A     -0.453736
      61A     -0.442533    62A     -0.430217    63A     -0.392298
      64A     -0.345778

  @DF-RHF Final Energy:  -886.37390649260749

   => Energetics <=

    Nuclear Repulsion Energy =           1334.9824895790013670
    One-Electron Energy =               -3867.6279893194778197
    Two-Electron Energy =                1646.2715932478686227
    Total Energy =                       -886.3739064926076026
  Basis Set: (AUG-CC-PVTZ AUX)
    Blend: AUG-CC-PVTZ-RI
    Molecular point group: c1

    Geometry (in Angstrom), charge = 0, multiplicity = 1:

       Center              X                  Y                   Z               Mass
    ------------   -----------------  -----------------  -----------------  -----------------
         O           -1.331585049451     0.683374449150    -1.083509207331    15.994914619570
         O           -1.585969049451    -2.434546550850     0.529307792669    15.994914619570
         O           -3.573071049451    -1.040404550850    -0.444279207331    15.994914619570
         O           -1.452337049451     3.155000449150     0.142244792669    15.994914619570
         O            1.094144950549    -2.353826550850     0.023328792669    15.994914619570
         N            0.756227950549    -0.128405550850    -0.354908207331    14.003074004430
         N            2.923968950549    -0.964333550850     0.161734792669    14.003074004430
         N            4.693479950549     0.472649449150     0.376852792669    14.003074004430
         C           -1.389269049451    -1.038505550850     0.571004792669    12.000000000000
         C           -2.750392049451    -0.345097550850     0.473574792669    12.000000000000
         C           -0.650157049451    -0.474755550850    -0.663288207331    12.000000000000
         C           -2.383152049451     0.995083449150    -0.142779207331    12.000000000000
         C           -1.911611049451     2.019113449150     0.872864792669    12.000000000000
         C            1.211762550549     1.129840449150    -0.427414107331    12.000000000000
         C            1.598039950549    -1.217520550850    -0.042849207331    12.000000000000
         C            2.535056950549     1.404907449150    -0.184135207331    12.000000000000
         C            3.367800950549     0.281842449150     0.096567792669    12.000000000000
         H           -0.856544049451    -0.739156550850     1.485574792669     1.007825032230
         H           -3.238148049451    -0.248340550850     1.455749792669     1.007825032230
         H           -0.635115049451    -1.213273550850    -1.472645207331     1.007825032230
         H           -3.206583049451     1.408111449150    -0.731480207331     1.007825032230
         H           -1.107621049451     1.599937449150     1.495926792669     1.007825032230
         H           -2.753461049451     2.276199449150     1.532327792669     1.007825032230
         H           -0.683463049451    -2.796535550850     0.369951792669     1.007825032230
         H           -3.318755049451    -1.980983550850    -0.347202207331     1.007825032230
         H            0.480520950549     1.907364449150    -0.668309207331     1.007825032230
         H           -1.222288049451     3.845019449150     0.787760792669     1.007825032230
         H            2.921075950549     2.417095449150    -0.223185207331     1.007825032230
         H            5.146556950549     1.300811449150     0.014886792669     1.007825032230
         H            5.251122950549    -0.373588550850     0.376396792669     1.007825032230

  Basis Set: AUG-CC-PVTZ
    Blend: AUG-CC-PVTZ
  Basis Set: (AUG-CC-PVTZ AUX)
    Blend: AUG-CC-PVTZ-JKFIT
	 Reference Energy          =    -886.3739064926074889 [Eh]
	 Singles Energy            =      -0.0000000000000000 [Eh]
	 Same-Spin Energy          =      -0.9019700421284688 [Eh]
	 Opposite-Spin Energy      =      -2.7158092254697923 [Eh]
	 Correlation Energy        =      -3.6177792675982610 [Eh]
	 Total Energy              =    -889.9916857602057689 [Eh]

	 ================> DF-SCS-MP2 Energies <==================
	-----------------------------------------------------------
	 SCS Same-Spin Scale       =       0.3333333333333333 [-]
	 SCS Opposite-Spin Scale   =       1.2000000000000000 [-]
	 SCS Same-Spin Energy      =      -0.3006566807094896 [Eh]
	 SCS Opposite-Spin Energy  =      -3.2589710705637507 [Eh]
	 SCS Correlation Energy    =      -3.5596277512732404 [Eh]
	 SCS Total Energy          =    -889.9335342438807857 [Eh]
	-----------------------------------------------------------

  Dipole Moment: [D]
     X:     2.6328      Y:     5.7600      Z:     1.9395     Total:     6.6235

*** Psi4 exiting successfully. Buy a developer a beer!
