                               Psi4 1.4a3.dev225

  ==> Input File <==

--------------------------------------------------------------------------
#psi4
#
memory 32 gb

molecule  {
0 1
  O       -1.3191770     0.6538360    -1.0992360
  O       -1.5735610    -2.4640850     0.5135810
  O       -3.5606630    -1.0699430    -0.4600060
  O       -1.4399290     3.1254620     0.1265180
  O        1.1065530    -2.3833650     0.0076020
  N        0.7686360    -0.1579440    -0.3706350
  N        2.9363770    -0.9938720     0.1460080
  N        4.7058880     0.4431110     0.3611260
  C       -1.3768610    -1.0680440     0.5552780
  C       -2.7379840    -0.3746360     0.4578480
  C       -0.6377490    -0.5042940    -0.6790150
  C       -2.3707440     0.9655450    -0.1585060
  C       -1.8992030     1.9895750     0.8571380
  C        1.2479649     1.1660249    -0.4469282
  C        1.6104480    -1.2470590    -0.0585760
  C        2.5474650     1.3753690    -0.1998620
  C        3.3802090     0.2523040     0.0808410
  H       -0.8441360    -0.7686950     1.4698480
  H       -3.2257400    -0.2778790     1.4400230
  H       -0.6227070    -1.2428120    -1.4883720
  H       -3.1941750     1.3785730    -0.7472070
  H       -1.0952130     1.5703990     1.4802000
  H       -2.7410530     2.2466610     1.5166010
  H       -0.6710550    -2.8260740     0.3542250
  H       -3.3063470    -2.0105220    -0.3629290
  H        0.4929290     1.8778260    -0.6840360
  H       -1.2098800     3.8154810     0.7720340
  H        2.9334840     2.3875570    -0.2389120
  H        5.1589650     1.2712730    -0.0008400
  H        5.2635310    -0.4031270     0.3606700
units angstrom
no_reorient  #important for SAPT in psi4, default
symmetry c1  #important for SAPT in psi4, default
}

set PROPERTIES_ORIGIN ["COM"]
properties('MP2/aug-cc-pvtz', properties = ['dipole'])
--------------------------------------------------------------------------

    Molecular point group: c1
  Charge       = 0
  Multiplicity = 1
  Basis Set: AUG-CC-PVTZ
    Blend: AUG-CC-PVTZ
  Basis Set: (AUG-CC-PVTZ AUX)
    Blend: AUG-CC-PVTZ-JKFIT

    Orbital Energies [Eh]
    ---------------------

    Doubly Occupied:

       1A    -20.586147     2A    -20.579293     3A    -20.557458
       4A    -20.554948     5A    -20.518140     6A    -15.627246
       7A    -15.602974     8A    -15.553309     9A    -11.384348
      10A    -11.361906    11A    -11.336233    12A    -11.324400
      13A    -11.302556    14A    -11.296429    15A    -11.294415
      16A    -11.291779    17A    -11.249754    18A     -1.426004
      19A     -1.391306    20A     -1.381830    21A     -1.373739
      22A     -1.344862    23A     -1.302361    24A     -1.261655
      25A     -1.181281    26A     -1.085727    27A     -1.066385
      28A     -1.014954    29A     -0.934372    30A     -0.904743
      31A     -0.875567    32A     -0.827874    33A     -0.811146
      34A     -0.766206    35A     -0.746569    36A     -0.732298
      37A     -0.723479    38A     -0.706943    39A     -0.702387
      40A     -0.686460    41A     -0.673538    42A     -0.652414
      43A     -0.647342    44A     -0.630779    45A     -0.623582
      46A     -0.618646    47A     -0.608710    48A     -0.587393
      49A     -0.576726    50A     -0.564368    51A     -0.554687
      52A     -0.546607    53A     -0.535212    54A     -0.530283
      55A     -0.491150    56A     -0.479711    57A     -0.471839
      58A     -0.461273    59A     -0.457605    60A     -0.451185
      61A     -0.441117    62A     -0.429964    63A     -0.391912
      64A     -0.353925

  @DF-RHF Final Energy:  -886.37076703893126

   => Energetics <=

    Nuclear Repulsion Energy =           1333.5847285068305155
    One-Electron Energy =               -3865.0120784494229156
    Two-Electron Energy =                1645.0565829036613650
    Total Energy =                       -886.3707670389312625
  Basis Set: (AUG-CC-PVTZ AUX)
    Blend: AUG-CC-PVTZ-RI
    Molecular point group: c1

    Geometry (in Angstrom), charge = 0, multiplicity = 1:

       Center              X                  Y                   Z               Mass
    ------------   -----------------  -----------------  -----------------  -----------------
         O           -1.332759663223     0.680130015675    -1.083322245969    15.994914619570
         O           -1.587143663223    -2.437790984325     0.529494754031    15.994914619570
         O           -3.574245663223    -1.043648984325    -0.444092245969    15.994914619570
         O           -1.453511663223     3.151756015675     0.142431754031    15.994914619570
         O            1.092970336777    -2.357070984325     0.023515754031    15.994914619570
         N            0.755053336777    -0.131649984325    -0.354721245969    14.003074004430
         N            2.922794336777    -0.967577984325     0.161921754031    14.003074004430
         N            4.692305336777     0.469405015675     0.377039754031    14.003074004430
         C           -1.390443663223    -1.041749984325     0.571191754031    12.000000000000
         C           -2.751566663223    -0.348341984325     0.473761754031    12.000000000000
         C           -0.651331663223    -0.477999984325    -0.663101245969    12.000000000000
         C           -2.384326663223     0.991839015675    -0.142592245969    12.000000000000
         C           -1.912785663223     2.015869015675     0.873051754031    12.000000000000
         C            1.234382236777     1.192318915675    -0.431014445969    12.000000000000
         C            1.596865336777    -1.220764984325    -0.042662245969    12.000000000000
         C            2.533882336777     1.401663015675    -0.183948245969    12.000000000000
         C            3.366626336777     0.278598015675     0.096754754031    12.000000000000
         H           -0.857718663223    -0.742400984325     1.485761754031     1.007825032230
         H           -3.239322663223    -0.251584984325     1.455936754031     1.007825032230
         H           -0.636289663223    -1.216517984325    -1.472458245969     1.007825032230
         H           -3.207757663223     1.404867015675    -0.731293245969     1.007825032230
         H           -1.108795663223     1.596693015675     1.496113754031     1.007825032230
         H           -2.754635663223     2.272955015675     1.532514754031     1.007825032230
         H           -0.684637663223    -2.799779984325     0.370138754031     1.007825032230
         H           -3.319929663223    -1.984227984325    -0.347015245969     1.007825032230
         H            0.479346336777     1.904120015675    -0.668122245969     1.007825032230
         H           -1.223462663223     3.841775015675     0.787947754031     1.007825032230
         H            2.919901336777     2.413851015675    -0.222998245969     1.007825032230
         H            5.145382336777     1.297567015675     0.015073754031     1.007825032230
         H            5.249948336777    -0.376832984325     0.376583754031     1.007825032230

  Basis Set: AUG-CC-PVTZ
    Blend: AUG-CC-PVTZ
  Basis Set: (AUG-CC-PVTZ AUX)
    Blend: AUG-CC-PVTZ-JKFIT
	 Reference Energy          =    -886.3707670389312625 [Eh]
	 Singles Energy            =      -0.0000000000000000 [Eh]
	 Same-Spin Energy          =      -0.9014743626483070 [Eh]
	 Opposite-Spin Energy      =      -2.7163219155537761 [Eh]
	 Correlation Energy        =      -3.6177962782020829 [Eh]
	 Total Energy              =    -889.9885633171332984 [Eh]

	 ================> DF-SCS-MP2 Energies <==================
	-----------------------------------------------------------
	 SCS Same-Spin Scale       =       0.3333333333333333 [-]
	 SCS Opposite-Spin Scale   =       1.2000000000000000 [-]
	 SCS Same-Spin Energy      =      -0.3004914542161023 [Eh]
	 SCS Opposite-Spin Energy  =      -3.2595862986645314 [Eh]
	 SCS Correlation Energy    =      -3.5600777528806336 [Eh]
	 SCS Total Energy          =    -889.9308447918118645 [Eh]
	-----------------------------------------------------------

  Dipole Moment: [D]
     X:     2.9802      Y:     5.9010      Z:     1.9652     Total:     6.8968

*** Psi4 exiting successfully. Buy a developer a beer!
