                               Psi4 1.4a3.dev225

  ==> Input File <==

--------------------------------------------------------------------------
#psi4
#
memory 32 gb

molecule  {
0 1
  O       -1.3191770     0.6538360    -1.0992360
  O       -1.5735610    -2.4640850     0.5135810
  O       -3.5606630    -1.0699430    -0.4600060
  O       -1.4399290     3.1254620     0.1265180
  O        1.1065530    -2.3833650     0.0076020
  N        0.7686360    -0.1579440    -0.3706350
  N        2.9363770    -0.9938720     0.1460080
  N        4.7058880     0.4431110     0.3611260
  C       -1.3768610    -1.0680440     0.5552780
  C       -2.7379840    -0.3746360     0.4578480
  C       -0.6377490    -0.5042940    -0.6790150
  C       -2.3707440     0.9655450    -0.1585060
  C       -1.8992030     1.9895750     0.8571380
  C        1.2309690     1.1190800    -0.4442230
  C        1.6104480    -1.2470590    -0.0585760
  C        2.5474650     1.3753690    -0.1998620
  C        3.3802090     0.2523040     0.0808410
  H       -0.8441360    -0.7686950     1.4698480
  H       -3.2257400    -0.2778790     1.4400230
  H       -0.6227070    -1.2428120    -1.4883720
  H       -3.1941750     1.3785730    -0.7472070
  H       -1.0952130     1.5703990     1.4802000
  H       -2.7410530     2.2466610     1.5166010
  H       -0.6710550    -2.8260740     0.3542250
  H       -3.3063470    -2.0105220    -0.3629290
  H        0.4929290     1.8778260    -0.6840360
  H       -1.2098800     3.8154810     0.7720340
  H        2.9334840     2.3875570    -0.2389120
  H        5.1365580     1.2303160     0.0170611
  H        5.2635310    -0.4031270     0.3606700
units angstrom
no_reorient  #important for SAPT in psi4, default
symmetry c1  #important for SAPT in psi4, default
}

set PROPERTIES_ORIGIN ["COM"]
properties('MP2/aug-cc-pvtz', properties = ['dipole'])
--------------------------------------------------------------------------

    Molecular point group: c1
  Charge       = 0
  Multiplicity = 1
  Basis Set: AUG-CC-PVTZ
    Blend: AUG-CC-PVTZ
  Basis Set: (AUG-CC-PVTZ AUX)
    Blend: AUG-CC-PVTZ-JKFIT

    Orbital Energies [Eh]
    ---------------------

    Doubly Occupied:

       1A    -20.586802     2A    -20.581516     3A    -20.559441
       4A    -20.556504     5A    -20.519847     6A    -15.633191
       7A    -15.594760     8A    -15.551881     9A    -11.386063
      10A    -11.358202    11A    -11.339711    12A    -11.325373
      13A    -11.303639    14A    -11.298019    15A    -11.297078
      16A    -11.293586    17A    -11.246788    18A     -1.429346
      19A     -1.394238    20A     -1.383111    21A     -1.375600
      22A     -1.346624    23A     -1.305191    24A     -1.273491
      25A     -1.185321    26A     -1.079693    27A     -1.068150
      28A     -1.017708    29A     -0.937343    30A     -0.906878
      31A     -0.879676    32A     -0.830799    33A     -0.812496
      34A     -0.768587    35A     -0.751351    36A     -0.735273
      37A     -0.724829    38A     -0.708236    39A     -0.703507
      40A     -0.690864    41A     -0.675232    42A     -0.654342
      43A     -0.649320    44A     -0.633649    45A     -0.620418
      46A     -0.615689    47A     -0.608011    48A     -0.593417
      49A     -0.577200    50A     -0.565171    51A     -0.555978
      52A     -0.548344    53A     -0.536839    54A     -0.531371
      55A     -0.495804    56A     -0.480888    57A     -0.473819
      58A     -0.463504    59A     -0.458090    60A     -0.453095
      61A     -0.442245    62A     -0.430431    63A     -0.392871
      64A     -0.348430

  @DF-RHF Final Energy:  -886.37361837788569

   => Energetics <=

    Nuclear Repulsion Energy =           1334.8732722022864436
    One-Electron Energy =               -3867.4040279025107338
    Two-Electron Energy =                1646.1571373223387127
    Total Energy =                       -886.3736183778855775
  Basis Set: (AUG-CC-PVTZ AUX)
    Blend: AUG-CC-PVTZ-RI
    Molecular point group: c1

    Geometry (in Angstrom), charge = 0, multiplicity = 1:

       Center              X                  Y                   Z               Mass
    ------------   -----------------  -----------------  -----------------  -----------------
         O           -1.331827756069     0.682617273199    -1.083530006499    15.994914619570
         O           -1.586211756069    -2.435303726801     0.529286993501    15.994914619570
         O           -3.573313756069    -1.041161726801    -0.444300006499    15.994914619570
         O           -1.452579756069     3.154243273199     0.142223993501    15.994914619570
         O            1.093902243931    -2.354583726801     0.023307993501    15.994914619570
         N            0.755985243931    -0.129162726801    -0.354929006499    14.003074004430
         N            2.923726243931    -0.965090726801     0.161713993501    14.003074004430
         N            4.693237243931     0.471892273199     0.376831993501    14.003074004430
         C           -1.389511756069    -1.039262726801     0.570983993501    12.000000000000
         C           -2.750634756069    -0.345854726801     0.473553993501    12.000000000000
         C           -0.650399756069    -0.475512726801    -0.663309006499    12.000000000000
         C           -2.383394756069     0.994326273199    -0.142800006499    12.000000000000
         C           -1.911853756069     2.018356273199     0.872843993501    12.000000000000
         C            1.218318243931     1.147861273199    -0.428517006499    12.000000000000
         C            1.597797243931    -1.218277726801    -0.042870006499    12.000000000000
         C            2.534814243931     1.404150273199    -0.184156006499    12.000000000000
         C            3.367558243931     0.281085273199     0.096546993501    12.000000000000
         H           -0.856786756069    -0.739913726801     1.485553993501     1.007825032230
         H           -3.238390756069    -0.249097726801     1.455728993501     1.007825032230
         H           -0.635357756069    -1.214030726801    -1.472666006499     1.007825032230
         H           -3.206825756069     1.407354273199    -0.731501006499     1.007825032230
         H           -1.107863756069     1.599180273199     1.495905993501     1.007825032230
         H           -2.753703756069     2.275442273199     1.532306993501     1.007825032230
         H           -0.683705756069    -2.797292726801     0.369930993501     1.007825032230
         H           -3.318997756069    -1.981740726801    -0.347223006499     1.007825032230
         H            0.480278243931     1.906607273199    -0.668330006499     1.007825032230
         H           -1.222530756069     3.844262273199     0.787739993501     1.007825032230
         H            2.920833243931     2.416338273199    -0.223206006499     1.007825032230
         H            5.123907243931     1.259097273199     0.032767093501     1.007825032230
         H            5.250880243931    -0.374345726801     0.376375993501     1.007825032230

  Basis Set: AUG-CC-PVTZ
    Blend: AUG-CC-PVTZ
  Basis Set: (AUG-CC-PVTZ AUX)
    Blend: AUG-CC-PVTZ-JKFIT
	 Reference Energy          =    -886.3736183778856912 [Eh]
	 Singles Energy            =      -0.0000000000000000 [Eh]
	 Same-Spin Energy          =      -0.9015291899182963 [Eh]
	 Opposite-Spin Energy      =      -2.7151262898326474 [Eh]
	 Correlation Energy        =      -3.6166554797509436 [Eh]
	 Total Energy              =    -889.9902738576366801 [Eh]

	 ================> DF-SCS-MP2 Energies <==================
	-----------------------------------------------------------
	 SCS Same-Spin Scale       =       0.3333333333333333 [-]
	 SCS Opposite-Spin Scale   =       1.2000000000000000 [-]
	 SCS Same-Spin Energy      =      -0.3005097299727654 [Eh]
	 SCS Opposite-Spin Energy  =      -3.2581515477991769 [Eh]
	 SCS Correlation Energy    =      -3.5586612777719422 [Eh]
	 SCS Total Energy          =    -889.9322796556576805 [Eh]
	-----------------------------------------------------------

  Dipole Moment: [D]
     X:     2.6993      Y:     5.7647      Z:     1.9579     Total:     6.6597

*** Psi4 exiting successfully. Buy a developer a beer!
