                               Psi4 1.3.2 release

  ==> Input File <==

--------------------------------------------------------------------------
#psi4
#
memory 32 gb

molecule  {
0 1
  O       -1.2481010    -0.6526680     1.0325150
  O       -1.2449750     2.4828510    -0.6861630
  O       -3.2165300     1.5210990     0.7448870
  O       -2.3570290    -3.0668370     0.0949400
  O        1.3605300     2.2470340    -0.0765420
  N        0.8434040     0.0452230     0.2559430
  N        3.0572260     0.7205030    -0.2937270
  N        4.7164630    -0.8366550    -0.5722980
  C       -1.2894840     1.0784300    -0.5920770
  C       -2.7192198     0.6202775    -0.3285745
  C       -0.5254080     0.4815200     0.6000940
  C       -2.5292560    -0.7168860     0.3610560
  C       -2.5389517    -1.7969628    -0.6967110
  C        1.2197750    -1.2614080     0.3112740
  C        1.7555940     1.0674350    -0.0594030
  C        2.5111010    -1.6091400     0.0469950
  C        3.4119830    -0.5506530    -0.2589250
  H       -0.9376060     0.5914040    -1.5148910
  H       -3.3625820     0.6426650    -1.1464650
  H       -0.4402900     1.2218800     1.4039980
  H       -3.2819570    -0.9087340     1.1307830
  H       -1.7133080    -1.7003050    -1.3694640
  H       -3.4855610    -1.8340040    -1.1841350
  H       -0.2975250     2.7131790    -0.5250000
  H       -2.8475560     2.3997430     0.5086630
  H        0.4343110    -1.9634370     0.5690680
  H       -2.4338740    -3.7984320    -0.5432330
  H        2.8291120    -2.6453980     0.0739220
  H        5.1251800    -1.6708610    -0.1624140
  H        5.3198140    -0.0200540    -0.5682940
units angstrom
no_reorient  #important for SAPT in psi4, default
symmetry c1  #important for SAPT in psi4, default
}

set PROPERTIES_ORIGIN ["COM"]
properties('MP2/aug-cc-pvtz', properties = ['dipole'])
--------------------------------------------------------------------------

    Molecular point group: c1
  Charge       = 0
  Multiplicity = 1
  Basis Set: AUG-CC-PVTZ
    Blend: AUG-CC-PVTZ
  Basis Set: (AUG-CC-PVTZ AUX)
    Blend: AUG-CC-PVTZ-JKFIT

    Orbital Energies [Eh]
    ---------------------

    Doubly Occupied:

       1A    -20.585342     2A    -20.574930     3A    -20.558053
       4A    -20.551160     5A    -20.522774     6A    -15.638072
       7A    -15.600426     8A    -15.554051     9A    -11.389109
      10A    -11.358560    11A    -11.343901    12A    -11.329233
      13A    -11.301859    14A    -11.300198    15A    -11.300069
      16A    -11.292628    17A    -11.249301    18A     -1.429220
      19A     -1.396236    20A     -1.372541    21A     -1.348292
      22A     -1.328282    23A     -1.306815    24A     -1.274624
      25A     -1.182969    26A     -1.082870    27A     -1.076961
      28A     -1.022607    29A     -0.939615    30A     -0.911125
      31A     -0.878708    32A     -0.832847    33A     -0.821689
      34A     -0.768163    35A     -0.754065    36A     -0.734803
      37A     -0.720493    38A     -0.696258    39A     -0.688148
      40A     -0.683907    41A     -0.667511    42A     -0.657557
      43A     -0.651781    44A     -0.640344    45A     -0.621813
      46A     -0.614429    47A     -0.604430    48A     -0.594756
      49A     -0.572960    50A     -0.568778    51A     -0.546893
      52A     -0.539653    53A     -0.533787    54A     -0.527613
      55A     -0.498937    56A     -0.483920    57A     -0.477278
      58A     -0.465660    59A     -0.461786    60A     -0.452878
      61A     -0.445712    62A     -0.434264    63A     -0.396293
      64A     -0.351100

  @DF-RHF Final Energy:  -886.35829324023575

   => Energetics <=

    Nuclear Repulsion Energy =           1322.4133542002334707
    One-Electron Energy =               -3842.5212308559480334
    Two-Electron Energy =                1633.7495834154790373
    Total Energy =                       -886.3582932402357528
  Basis Set: (AUG-CC-PVTZ AUX)
    Blend: AUG-CC-PVTZ-RI
    Molecular point group: c1

    Geometry (in Angstrom), charge = 0, multiplicity = 1:

       Center              X                  Y                   Z               Mass
    ------------   -----------------  -----------------  -----------------  -----------------
         O           -1.247377510793    -0.653581283255     1.038863513951    15.994914619570
         O           -1.244251510793     2.481937716745    -0.679814486049    15.994914619570
         O           -3.215806510793     1.520185716745     0.751235513951    15.994914619570
         O           -2.356305510793    -3.067750283255     0.101288513951    15.994914619570
         O            1.361253489207     2.246120716745    -0.070193486049    15.994914619570
         N            0.844127489207     0.044309716745     0.262291513951    14.003074004430
         N            3.057949489207     0.719589716745    -0.287378486049    14.003074004430
         N            4.717186489207    -0.837568283255    -0.565949486049    14.003074004430
         C           -1.288760510793     1.077516716745    -0.585728486049    12.000000000000
         C           -2.718496310793     0.619364216745    -0.322225986049    12.000000000000
         C           -0.524684510793     0.480606716745     0.606442513951    12.000000000000
         C           -2.528532510793    -0.717799283255     0.367404513951    12.000000000000
         C           -2.538228210793    -1.797876083255    -0.690362486049    12.000000000000
         C            1.220498489207    -1.262321283255     0.317622513951    12.000000000000
         C            1.756317489207     1.066521716745    -0.053054486049    12.000000000000
         C            2.511824489207    -1.610053283255     0.053343513951    12.000000000000
         C            3.412706489207    -0.551566283255    -0.252576486049    12.000000000000
         H           -0.936882510793     0.590490716745    -1.508542486049     1.007825032230
         H           -3.361858510793     0.641751716745    -1.140116486049     1.007825032230
         H           -0.439566510793     1.220966716745     1.410346513951     1.007825032230
         H           -3.281233510793    -0.909647283255     1.137131513951     1.007825032230
         H           -1.712584510793    -1.701218283255    -1.363115486049     1.007825032230
         H           -3.484837510793    -1.834917283255    -1.177786486049     1.007825032230
         H           -0.296801510793     2.712265716745    -0.518651486049     1.007825032230
         H           -2.846832510793     2.398829716745     0.515011513951     1.007825032230
         H            0.435034489207    -1.964350283255     0.575416513951     1.007825032230
         H           -2.433150510793    -3.799345283255    -0.536884486049     1.007825032230
         H            2.829835489207    -2.646311283255     0.080270513951     1.007825032230
         H            5.125903489207    -1.671774283255    -0.156065486049     1.007825032230
         H            5.320537489207    -0.020967283255    -0.561945486049     1.007825032230

  Basis Set: AUG-CC-PVTZ
    Blend: AUG-CC-PVTZ
  Basis Set: (AUG-CC-PVTZ AUX)
    Blend: AUG-CC-PVTZ-JKFIT
	 Reference Energy          =    -886.3582932402357528 [Eh]
	 Singles Energy            =      -0.0000000000000000 [Eh]
	 Same-Spin Energy          =      -0.9017231479667360 [Eh]
	 Opposite-Spin Energy      =      -2.7180795299516149 [Eh]
	 Correlation Energy        =      -3.6198026779183508 [Eh]
	 Total Energy              =    -889.9780959181540538 [Eh]

	 ================> DF-SCS-MP2 Energies <==================
	-----------------------------------------------------------
	 SCS Same-Spin Scale       =       0.3333333333333333 [-]
	 SCS Opposite-Spin Scale   =       1.2000000000000000 [-]
	 SCS Same-Spin Energy      =      -0.3005743826555787 [Eh]
	 SCS Opposite-Spin Energy  =      -3.2616954359419377 [Eh]
	 SCS Correlation Energy    =      -3.5622698185975166 [Eh]
	 SCS Total Energy          =    -889.9205630588332951 [Eh]
	-----------------------------------------------------------

  Dipole Moment: [D]
     X:     1.7783      Y:    -5.8535      Z:    -2.0793     Total:     6.4614

*** Psi4 exiting successfully. Buy a developer a beer!
