                               Psi4 1.3.2 release

  ==> Input File <==

--------------------------------------------------------------------------
#psi4
#
memory 32 gb

molecule  {
0 1
  O       -1.2532161    -0.6314746     1.0767425
  O       -1.2449750     2.4828510    -0.6861630
  O       -3.2165300     1.5210990     0.7448870
  O       -2.3570290    -3.0668370     0.0949400
  O        1.3605300     2.2470340    -0.0765420
  N        0.8434040     0.0452230     0.2559430
  N        3.0572260     0.7205030    -0.2937270
  N        4.7164630    -0.8366550    -0.5722980
  C       -1.2894840     1.0784300    -0.5920770
  C       -2.7151710     0.6552070    -0.2573930
  C       -0.5254080     0.4815200     0.6000940
  C       -2.5292560    -0.7168860     0.3610560
  C       -2.5283440    -1.8503930    -0.6392900
  C        1.2197750    -1.2614080     0.3112740
  C        1.7555940     1.0674350    -0.0594030
  C        2.5111010    -1.6091400     0.0469950
  C        3.4119830    -0.5506530    -0.2589250
  H       -0.9376060     0.5914040    -1.5148910
  H       -3.3625820     0.6426650    -1.1464650
  H       -0.4601608     1.1984313     1.4267866
  H       -3.2819570    -0.9087340     1.1307830
  H       -1.7133080    -1.7003050    -1.3694640
  H       -3.4855610    -1.8340040    -1.1841350
  H       -0.2975250     2.7131790    -0.5250000
  H       -2.8475560     2.3997430     0.5086630
  H        0.4343110    -1.9634370     0.5690680
  H       -2.4338740    -3.7984320    -0.5432330
  H        2.8291120    -2.6453980     0.0739220
  H        5.1251800    -1.6708610    -0.1624140
  H        5.3198140    -0.0200540    -0.5682940
units angstrom
no_reorient  #important for SAPT in psi4, default
symmetry c1  #important for SAPT in psi4, default
}

set PROPERTIES_ORIGIN ["COM"]
properties('MP2/aug-cc-pvtz', properties = ['dipole'])
--------------------------------------------------------------------------

    Molecular point group: c1
  Charge       = 0
  Multiplicity = 1
  Basis Set: AUG-CC-PVTZ
    Blend: AUG-CC-PVTZ
  Basis Set: (AUG-CC-PVTZ AUX)
    Blend: AUG-CC-PVTZ-JKFIT

    Orbital Energies [Eh]
    ---------------------

    Doubly Occupied:

       1A    -20.583028     2A    -20.580855     3A    -20.557622
       4A    -20.557306     5A    -20.521675     6A    -15.637015
       7A    -15.599937     8A    -15.553385     9A    -11.388189
      10A    -11.357970    11A    -11.339882    12A    -11.328985
      13A    -11.302931    14A    -11.298100    15A    -11.297303
      16A    -11.293401    17A    -11.248809    18A     -1.425711
      19A     -1.395264    20A     -1.379918    21A     -1.372760
      22A     -1.346151    23A     -1.305917    24A     -1.273512
      25A     -1.182156    26A     -1.081599    27A     -1.069127
      28A     -1.020045    29A     -0.935618    30A     -0.909236
      31A     -0.877476    32A     -0.831341    33A     -0.811449
      34A     -0.767431    35A     -0.751960    36A     -0.735556
      37A     -0.720278    38A     -0.703297    39A     -0.698359
      40A     -0.684739    41A     -0.673359    42A     -0.652942
      43A     -0.651388    44A     -0.637498    45A     -0.621140
      46A     -0.614033    47A     -0.606218    48A     -0.594026
      49A     -0.575858    50A     -0.565520    51A     -0.554251
      52A     -0.546722    53A     -0.536788    54A     -0.531268
      55A     -0.498252    56A     -0.478057    57A     -0.475364
      58A     -0.461958    59A     -0.459898    60A     -0.452873
      61A     -0.441224    62A     -0.433280    63A     -0.395276
      64A     -0.350070

  @DF-RHF Final Energy:  -886.37201258139328

   => Energetics <=

    Nuclear Repulsion Energy =           1322.7862004434018672
    One-Electron Energy =               -3843.2513179085653974
    Two-Electron Energy =                1634.0931048837701383
    Total Energy =                       -886.3720125813933919
  Basis Set: (AUG-CC-PVTZ AUX)
    Blend: AUG-CC-PVTZ-RI
    Molecular point group: c1

    Geometry (in Angstrom), charge = 0, multiplicity = 1:

       Center              X                  Y                   Z               Mass
    ------------   -----------------  -----------------  -----------------  -----------------
         O           -1.252797179006    -0.632771888178     1.073737877644    15.994914619570
         O           -1.244556079006     2.481553711822    -0.689167622356    15.994914619570
         O           -3.216111079006     1.519801711822     0.741882377644    15.994914619570
         O           -2.356610079006    -3.068134288178     0.091935377644    15.994914619570
         O            1.360948920994     2.245736711822    -0.079546622356    15.994914619570
         N            0.843822920994     0.043925711822     0.252938377644    14.003074004430
         N            3.057644920994     0.719205711822    -0.296731622356    14.003074004430
         N            4.716881920994    -0.837952288178    -0.575302622356    14.003074004430
         C           -1.289065079006     1.077132711822    -0.595081622356    12.000000000000
         C           -2.714752079006     0.653909711822    -0.260397622356    12.000000000000
         C           -0.524989079006     0.480222711822     0.597089377644    12.000000000000
         C           -2.528837079006    -0.718183288178     0.358051377644    12.000000000000
         C           -2.527925079006    -1.851690288178    -0.642294622356    12.000000000000
         C            1.220193920994    -1.262705288178     0.308269377644    12.000000000000
         C            1.756012920994     1.066137711822    -0.062407622356    12.000000000000
         C            2.511519920994    -1.610437288178     0.043990377644    12.000000000000
         C            3.412401920994    -0.551950288178    -0.261929622356    12.000000000000
         H           -0.937187079006     0.590106711822    -1.517895622356     1.007825032230
         H           -3.362163079006     0.641367711822    -1.149469622356     1.007825032230
         H           -0.459741879006     1.197134011822     1.423781977644     1.007825032230
         H           -3.281538079006    -0.910031288178     1.127778377644     1.007825032230
         H           -1.712889079006    -1.701602288178    -1.372468622356     1.007825032230
         H           -3.485142079006    -1.835301288178    -1.187139622356     1.007825032230
         H           -0.297106079006     2.711881711822    -0.528004622356     1.007825032230
         H           -2.847137079006     2.398445711822     0.505658377644     1.007825032230
         H            0.434729920994    -1.964734288178     0.566063377644     1.007825032230
         H           -2.433455079006    -3.799729288178    -0.546237622356     1.007825032230
         H            2.829530920994    -2.646695288178     0.070917377644     1.007825032230
         H            5.125598920994    -1.672158288178    -0.165418622356     1.007825032230
         H            5.320232920994    -0.021351288178    -0.571298622356     1.007825032230

  Basis Set: AUG-CC-PVTZ
    Blend: AUG-CC-PVTZ
  Basis Set: (AUG-CC-PVTZ AUX)
    Blend: AUG-CC-PVTZ-JKFIT
	 Reference Energy          =    -886.3720125813932782 [Eh]
	 Singles Energy            =      -0.0000000000000000 [Eh]
	 Same-Spin Energy          =      -0.9012691957870914 [Eh]
	 Opposite-Spin Energy      =      -2.7154179853949261 [Eh]
	 Correlation Energy        =      -3.6166871811820176 [Eh]
	 Total Energy              =    -889.9886997625752656 [Eh]

	 ================> DF-SCS-MP2 Energies <==================
	-----------------------------------------------------------
	 SCS Same-Spin Scale       =       0.3333333333333333 [-]
	 SCS Opposite-Spin Scale   =       1.2000000000000000 [-]
	 SCS Same-Spin Energy      =      -0.3004230652623638 [Eh]
	 SCS Opposite-Spin Energy  =      -3.2585015824739112 [Eh]
	 SCS Correlation Energy    =      -3.5589246477362750 [Eh]
	 SCS Total Energy          =    -889.9309372291295404 [Eh]
	-----------------------------------------------------------

  Dipole Moment: [D]
     X:     1.6895      Y:    -5.9976      Z:    -1.8991     Total:     6.5140

*** Psi4 exiting successfully. Buy a developer a beer!
