                               Psi4 1.3.2 release

  ==> Input File <==

--------------------------------------------------------------------------
#psi4
#
memory 32 gb

molecule  {
0 1
  O       -1.2481010    -0.6526680     1.0325150
  O       -1.2449750     2.4828510    -0.6861630
  O       -3.2165300     1.5210990     0.7448870
  O       -2.3570290    -3.0668370     0.0949400
  O        1.3605300     2.2470340    -0.0765420
  N        0.8434040     0.0452230     0.2559430
  N        3.0572260     0.7205030    -0.2937270
  N        4.7164630    -0.8366550    -0.5722980
  C       -1.2894840     1.0784300    -0.5920770
  C       -2.7151710     0.6552070    -0.2573930
  C       -0.5254080     0.4815200     0.6000940
  C       -2.5292560    -0.7168860     0.3610560
  C       -2.5861202    -1.8846354    -0.5974110
  C        1.2197750    -1.2614080     0.3112740
  C        1.7555940     1.0674350    -0.0594030
  C        2.5111010    -1.6091400     0.0469950
  C        3.4119830    -0.5506530    -0.2589250
  H       -0.9376060     0.5914040    -1.5148910
  H       -3.3625820     0.6426650    -1.1464650
  H       -0.4402900     1.2218800     1.4039980
  H       -3.2948775    -0.9575726     1.1038465
  H       -1.7133080    -1.7003050    -1.3694640
  H       -3.4855610    -1.8340040    -1.1841350
  H       -0.2975250     2.7131790    -0.5250000
  H       -2.8475560     2.3997430     0.5086630
  H        0.4343110    -1.9634370     0.5690680
  H       -2.4338740    -3.7984320    -0.5432330
  H        2.8291120    -2.6453980     0.0739220
  H        5.1251800    -1.6708610    -0.1624140
  H        5.3198140    -0.0200540    -0.5682940
units angstrom
no_reorient  #important for SAPT in psi4, default
symmetry c1  #important for SAPT in psi4, default
}

set PROPERTIES_ORIGIN ["COM"]
properties('MP2/aug-cc-pvtz', properties = ['dipole'])
--------------------------------------------------------------------------

    Molecular point group: c1
  Charge       = 0
  Multiplicity = 1
  Basis Set: AUG-CC-PVTZ
    Blend: AUG-CC-PVTZ
  Basis Set: (AUG-CC-PVTZ AUX)
    Blend: AUG-CC-PVTZ-JKFIT

    Orbital Energies [Eh]
    ---------------------

    Doubly Occupied:

       1A    -20.587218     2A    -20.582730     3A    -20.557367
       4A    -20.556646     5A    -20.521562     6A    -15.636494
       7A    -15.599487     8A    -15.552907     9A    -11.387850
      10A    -11.357434    11A    -11.341524    12A    -11.328109
      13A    -11.303244    14A    -11.296716    15A    -11.295962
      16A    -11.293693    17A    -11.248064    18A     -1.429591
      19A     -1.398889    20A     -1.390389    21A     -1.377036
      22A     -1.345789    23A     -1.305642    24A     -1.273383
      25A     -1.181839    26A     -1.081536    27A     -1.066526
      28A     -1.021542    29A     -0.935025    30A     -0.908427
      31A     -0.876001    32A     -0.831159    33A     -0.811028
      34A     -0.766665    35A     -0.752603    36A     -0.737658
      37A     -0.723273    38A     -0.711680    39A     -0.698862
      40A     -0.684957    41A     -0.671392    42A     -0.653571
      43A     -0.651830    44A     -0.638735    45A     -0.620550
      46A     -0.617808    47A     -0.606519    48A     -0.594076
      49A     -0.578525    50A     -0.572030    51A     -0.555497
      52A     -0.546051    53A     -0.537615    54A     -0.530170
      55A     -0.497585    56A     -0.476219    57A     -0.472279
      58A     -0.460391    59A     -0.456417    60A     -0.446804
      61A     -0.440433    62A     -0.432150    63A     -0.394818
      64A     -0.349551

  @DF-RHF Final Energy:  -886.36694795780011

   => Energetics <=

    Nuclear Repulsion Energy =           1323.3140205269087346
    One-Electron Energy =               -3844.2468931881003300
    Two-Electron Energy =                1634.5659247033913744
    Total Energy =                       -886.3669479578002210
  Basis Set: (AUG-CC-PVTZ AUX)
    Blend: AUG-CC-PVTZ-RI
    Molecular point group: c1

    Geometry (in Angstrom), charge = 0, multiplicity = 1:

       Center              X                  Y                   Z               Mass
    ------------   -----------------  -----------------  -----------------  -----------------
         O           -1.245195324037    -0.650775118732     1.030559314192    15.994914619570
         O           -1.242069324037     2.484743881268    -0.688118685808    15.994914619570
         O           -3.213624324037     1.522991881268     0.742931314192    15.994914619570
         O           -2.354123324037    -3.064944118732     0.092984314192    15.994914619570
         O            1.363435675963     2.248926881268    -0.078497685808    15.994914619570
         N            0.846309675963     0.047115881268     0.253987314192    14.003074004430
         N            3.060131675963     0.722395881268    -0.295682685808    14.003074004430
         N            4.719368675963    -0.834762118732    -0.574253685808    14.003074004430
         C           -1.286578324037     1.080322881268    -0.594032685808    12.000000000000
         C           -2.712265324037     0.657099881268    -0.259348685808    12.000000000000
         C           -0.522502324037     0.483412881268     0.598138314192    12.000000000000
         C           -2.526350324037    -0.714993118732     0.359100314192    12.000000000000
         C           -2.583214524037    -1.882742518732    -0.599366685808    12.000000000000
         C            1.222680675963    -1.259515118732     0.309318314192    12.000000000000
         C            1.758499675963     1.069327881268    -0.061358685808    12.000000000000
         C            2.514006675963    -1.607247118732     0.045039314192    12.000000000000
         C            3.414888675963    -0.548760118732    -0.260880685808    12.000000000000
         H           -0.934700324037     0.593296881268    -1.516846685808     1.007825032230
         H           -3.359676324037     0.644557881268    -1.148420685808     1.007825032230
         H           -0.437384324037     1.223772881268     1.402042314192     1.007825032230
         H           -3.291971824037    -0.955679718732     1.101890814192     1.007825032230
         H           -1.710402324037    -1.698412118732    -1.371419685808     1.007825032230
         H           -3.482655324037    -1.832111118732    -1.186090685808     1.007825032230
         H           -0.294619324037     2.715071881268    -0.526955685808     1.007825032230
         H           -2.844650324037     2.401635881268     0.506707314192     1.007825032230
         H            0.437216675963    -1.961544118732     0.567112314192     1.007825032230
         H           -2.430968324037    -3.796539118732    -0.545188685808     1.007825032230
         H            2.832017675963    -2.643505118732     0.071966314192     1.007825032230
         H            5.128085675963    -1.668968118732    -0.164369685808     1.007825032230
         H            5.322719675963    -0.018161118732    -0.570249685808     1.007825032230

  Basis Set: AUG-CC-PVTZ
    Blend: AUG-CC-PVTZ
  Basis Set: (AUG-CC-PVTZ AUX)
    Blend: AUG-CC-PVTZ-JKFIT
	 Reference Energy          =    -886.3669479578001074 [Eh]
	 Singles Energy            =      -0.0000000000000000 [Eh]
	 Same-Spin Energy          =      -0.9012895215316652 [Eh]
	 Opposite-Spin Energy      =      -2.7144522479793149 [Eh]
	 Correlation Energy        =      -3.6157417695109801 [Eh]
	 Total Energy              =    -889.9826897273111399 [Eh]

	 ================> DF-SCS-MP2 Energies <==================
	-----------------------------------------------------------
	 SCS Same-Spin Scale       =       0.3333333333333333 [-]
	 SCS Opposite-Spin Scale   =       1.2000000000000000 [-]
	 SCS Same-Spin Energy      =      -0.3004298405105550 [Eh]
	 SCS Opposite-Spin Energy  =      -3.2573426975751780 [Eh]
	 SCS Correlation Energy    =      -3.5577725380857332 [Eh]
	 SCS Total Energy          =    -889.9247204958858219 [Eh]
	-----------------------------------------------------------

  Dipole Moment: [D]
     X:     1.6129      Y:    -6.1276      Z:    -1.7357     Total:     6.5698

*** Psi4 exiting successfully. Buy a developer a beer!
