                               Psi4 1.4a3.dev225

  ==> Input File <==

--------------------------------------------------------------------------
#psi4
#
memory 32 gb

molecule  {
0 1
  O       -1.3191770     0.6538360    -1.0992360
  O       -1.5735610    -2.4640850     0.5135810
  O       -3.5606630    -1.0699430    -0.4600060
  O       -1.4399290     3.1254620     0.1265180
  O        1.1065530    -2.3833650     0.0076020
  N        0.7686360    -0.1579440    -0.3706350
  N        2.9363770    -0.9938720     0.1460080
  N        4.7058880     0.4431110     0.3611260
  C       -1.3768610    -1.0680440     0.5552780
  C       -2.7379840    -0.3746360     0.4578480
  C       -0.6377490    -0.5042940    -0.6790150
  C       -2.3707440     0.9655450    -0.1585060
  C       -1.8992030     1.9895750     0.8571380
  C        1.2309690     1.1190800    -0.4442230
  C        1.6104480    -1.2470590    -0.0585760
  C        2.5474650     1.3753690    -0.1998620
  C        3.3802090     0.2523040     0.0808410
  H       -0.8441360    -0.7686950     1.4698480
  H       -3.2257400    -0.2778790     1.4400230
  H       -0.6227070    -1.2428120    -1.4883720
  H       -3.1941750     1.3785730    -0.7472070
  H       -1.0952130     1.5703990     1.4802000
  H       -2.7410530     2.2466610     1.5166010
  H       -0.6252596    -2.8444422     0.3461389
  H       -3.3063470    -2.0105220    -0.3629290
  H        0.4929290     1.8778260    -0.6840360
  H       -1.2098800     3.8154810     0.7720340
  H        2.9334840     2.3875570    -0.2389120
  H        5.1589650     1.2712730    -0.0008400
  H        5.2635310    -0.4031270     0.3606700
units angstrom
no_reorient  #important for SAPT in psi4, default
symmetry c1  #important for SAPT in psi4, default
}

set PROPERTIES_ORIGIN ["COM"]
properties('MP2/aug-cc-pvtz', properties = ['dipole'])
--------------------------------------------------------------------------

    Molecular point group: c1
  Charge       = 0
  Multiplicity = 1
  Basis Set: AUG-CC-PVTZ
    Blend: AUG-CC-PVTZ
  Basis Set: (AUG-CC-PVTZ AUX)
    Blend: AUG-CC-PVTZ-JKFIT

    Orbital Energies [Eh]
    ---------------------

    Doubly Occupied:

       1A    -20.586468     2A    -20.580967     3A    -20.559221
       4A    -20.555383     5A    -20.521775     6A    -15.633545
       7A    -15.600223     8A    -15.552689     9A    -11.387552
      10A    -11.358781    11A    -11.339011    12A    -11.325544
      13A    -11.303161    14A    -11.297348    15A    -11.295441
      16A    -11.292503    17A    -11.247064    18A     -1.428569
      19A     -1.395293    20A     -1.381795    21A     -1.371116
      22A     -1.339779    23A     -1.304690    24A     -1.271912
      25A     -1.181931    26A     -1.079640    27A     -1.066904
      28A     -1.015515    29A     -0.936214    30A     -0.907106
      31A     -0.876973    32A     -0.827753    33A     -0.811715
      34A     -0.767053    35A     -0.750233    36A     -0.731130
      37A     -0.722290    38A     -0.705951    39A     -0.702097
      40A     -0.685418    41A     -0.673365    42A     -0.653245
      43A     -0.650014    44A     -0.633319    45A     -0.617930
      46A     -0.615113    47A     -0.607339    48A     -0.592772
      49A     -0.575690    50A     -0.564309    51A     -0.553702
      52A     -0.546977    53A     -0.535493    54A     -0.530915
      55A     -0.496326    56A     -0.479983    57A     -0.472256
      58A     -0.462376    59A     -0.458849    60A     -0.451032
      61A     -0.440531    62A     -0.431130    63A     -0.393010
      64A     -0.348979

  @DF-RHF Final Energy:  -886.36935041149241

   => Energetics <=

    Nuclear Repulsion Energy =           1334.3542013896264962
    One-Electron Energy =               -3866.4823006613496545
    Two-Electron Energy =                1645.7587488602305257
    Total Energy =                       -886.3693504114924053
  Basis Set: (AUG-CC-PVTZ AUX)
    Blend: AUG-CC-PVTZ-RI
    Molecular point group: c1

    Geometry (in Angstrom), charge = 0, multiplicity = 1:

       Center              X                  Y                   Z               Mass
    ------------   -----------------  -----------------  -----------------  -----------------
         O           -1.332110521105     0.682523620735    -1.083422264373    15.994914619570
         O           -1.586494521105    -2.435397379265     0.529394735627    15.994914619570
         O           -3.573596521105    -1.041255379265    -0.444192264373    15.994914619570
         O           -1.452862521105     3.154149620735     0.142331735627    15.994914619570
         O            1.093619478895    -2.354677379265     0.023415735627    15.994914619570
         N            0.755702478895    -0.129256379265    -0.354821264373    14.003074004430
         N            2.923443478895    -0.965184379265     0.161821735627    14.003074004430
         N            4.692954478895     0.471798620735     0.376939735627    14.003074004430
         C           -1.389794521105    -1.039356379265     0.571091735627    12.000000000000
         C           -2.750917521105    -0.345948379265     0.473661735627    12.000000000000
         C           -0.650682521105    -0.475606379265    -0.663201264373    12.000000000000
         C           -2.383677521105     0.994232620735    -0.142692264373    12.000000000000
         C           -1.912136521105     2.018262620735     0.872951735627    12.000000000000
         C            1.218035478895     1.147767620735    -0.428409264373    12.000000000000
         C            1.597514478895    -1.218371379265    -0.042762264373    12.000000000000
         C            2.534531478895     1.404056620735    -0.184048264373    12.000000000000
         C            3.367275478895     0.280991620735     0.096654735627    12.000000000000
         H           -0.857069521105    -0.740007379265     1.485661735627     1.007825032230
         H           -3.238673521105    -0.249191379265     1.455836735627     1.007825032230
         H           -0.635640521105    -1.214124379265    -1.472558264373     1.007825032230
         H           -3.207108521105     1.407260620735    -0.731393264373     1.007825032230
         H           -1.108146521105     1.599086620735     1.496013735627     1.007825032230
         H           -2.753986521105     2.275348620735     1.532414735627     1.007825032230
         H           -0.638193121105    -2.815754579265     0.361952635627     1.007825032230
         H           -3.319280521105    -1.981834379265    -0.347115264373     1.007825032230
         H            0.479995478895     1.906513620735    -0.668222264373     1.007825032230
         H           -1.222813521105     3.844168620735     0.787847735627     1.007825032230
         H            2.920550478895     2.416244620735    -0.223098264373     1.007825032230
         H            5.146031478895     1.299960620735     0.014973735627     1.007825032230
         H            5.250597478895    -0.374439379265     0.376483735627     1.007825032230

  Basis Set: AUG-CC-PVTZ
    Blend: AUG-CC-PVTZ
  Basis Set: (AUG-CC-PVTZ AUX)
    Blend: AUG-CC-PVTZ-JKFIT
	 Reference Energy          =    -886.3693504114924053 [Eh]
	 Singles Energy            =      -0.0000000000000000 [Eh]
	 Same-Spin Energy          =      -0.9026393250713267 [Eh]
	 Opposite-Spin Energy      =      -2.7174283475723540 [Eh]
	 Correlation Energy        =      -3.6200676726436809 [Eh]
	 Total Energy              =    -889.9894180841361049 [Eh]

	 ================> DF-SCS-MP2 Energies <==================
	-----------------------------------------------------------
	 SCS Same-Spin Scale       =       0.3333333333333333 [-]
	 SCS Opposite-Spin Scale   =       1.2000000000000000 [-]
	 SCS Same-Spin Energy      =      -0.3008797750237756 [Eh]
	 SCS Opposite-Spin Energy  =      -3.2609140170868245 [Eh]
	 SCS Correlation Energy    =      -3.5617937921106000 [Eh]
	 SCS Total Energy          =    -889.9311442036030257 [Eh]
	-----------------------------------------------------------

  Dipole Moment: [D]
     X:     2.8866      Y:     5.8003      Z:     1.9234     Total:     6.7583

*** Psi4 exiting successfully. Buy a developer a beer!
