                               Psi4 1.3.2 release

  ==> Input File <==

--------------------------------------------------------------------------
#psi4
#
memory 32 gb

molecule  {
0 1
  O       -1.2481010    -0.6526680     1.0325150
  O       -1.2449750     2.4828510    -0.6861630
  O       -3.2165300     1.5210990     0.7448870
  O       -2.3570290    -3.0668370     0.0949400
  O        1.3605300     2.2470340    -0.0765420
  N        0.8434040     0.0452230     0.2559430
  N        3.0572260     0.7205030    -0.2937270
  N        4.7164630    -0.8366550    -0.5722980
  C       -1.2894840     1.0784300    -0.5920770
  C       -2.7151710     0.6552070    -0.2573930
  C       -0.5039403     0.5542005     0.5846472
  C       -2.5292560    -0.7168860     0.3610560
  C       -2.5283440    -1.8503930    -0.6392900
  C        1.2847779    -1.2416503     0.2898157
  C        1.7555940     1.0674350    -0.0594030
  C        2.5111010    -1.6091400     0.0469950
  C        3.4119830    -0.5506530    -0.2589250
  H       -0.9376060     0.5914040    -1.5148910
  H       -3.3625820     0.6426650    -1.1464650
  H       -0.4402900     1.2218800     1.4039980
  H       -3.2819570    -0.9087340     1.1307830
  H       -1.7133080    -1.7003050    -1.3694640
  H       -3.4855610    -1.8340040    -1.1841350
  H       -0.2975250     2.7131790    -0.5250000
  H       -2.8475560     2.3997430     0.5086630
  H        0.4343110    -1.9634370     0.5690680
  H       -2.4338740    -3.7984320    -0.5432330
  H        2.8291120    -2.6453980     0.0739220
  H        5.1251800    -1.6708610    -0.1624140
  H        5.3198140    -0.0200540    -0.5682940
units angstrom
no_reorient  #important for SAPT in psi4, default
symmetry c1  #important for SAPT in psi4, default
}

set PROPERTIES_ORIGIN ["COM"]
properties('MP2/aug-cc-pvtz', properties = ['dipole'])
--------------------------------------------------------------------------

    Molecular point group: c1
  Charge       = 0
  Multiplicity = 1
  Basis Set: AUG-CC-PVTZ
    Blend: AUG-CC-PVTZ
  Basis Set: (AUG-CC-PVTZ AUX)
    Blend: AUG-CC-PVTZ-JKFIT

    Orbital Energies [Eh]
    ---------------------

    Doubly Occupied:

       1A    -20.578916     2A    -20.573065     3A    -20.557280
       4A    -20.556659     5A    -20.523177     6A    -15.635092
       7A    -15.602659     8A    -15.554268     9A    -11.386925
      10A    -11.360459    11A    -11.343654    12A    -11.323073
      13A    -11.297378    14A    -11.297192    15A    -11.292574
      16A    -11.291050    17A    -11.244856    18A     -1.417680
      19A     -1.393089    20A     -1.377267    21A     -1.364240
      22A     -1.346154    23A     -1.308714    24A     -1.273086
      25A     -1.183807    26A     -1.096954    27A     -1.061764
      28A     -1.025634    29A     -0.936604    30A     -0.900030
      31A     -0.879358    32A     -0.836684    33A     -0.806863
      34A     -0.769494    35A     -0.751836    36A     -0.738238
      37A     -0.718270    38A     -0.701234    39A     -0.695052
      40A     -0.678877    41A     -0.671171    42A     -0.654502
      43A     -0.653260    44A     -0.638769    45A     -0.616982
      46A     -0.608060    47A     -0.605447    48A     -0.591876
      49A     -0.570125    50A     -0.566452    51A     -0.552815
      52A     -0.542539    53A     -0.537633    54A     -0.529652
      55A     -0.501249    56A     -0.475023    57A     -0.472472
      58A     -0.461672    59A     -0.457363    60A     -0.452452
      61A     -0.443636    62A     -0.431796    63A     -0.398020
      64A     -0.360368

  @DF-RHF Final Energy:  -886.35961489059400

   => Energetics <=

    Nuclear Repulsion Energy =           1323.7116540344202349
    One-Electron Energy =               -3845.1974546854189612
    Two-Electron Energy =                1635.1261857604044962
    Total Energy =                       -886.3596148905940026
  Basis Set: (AUG-CC-PVTZ AUX)
    Blend: AUG-CC-PVTZ-RI
    Molecular point group: c1

    Geometry (in Angstrom), charge = 0, multiplicity = 1:

       Center              X                  Y                   Z               Mass
    ------------   -----------------  -----------------  -----------------  -----------------
         O           -1.252369684729    -0.657231233273     1.034336840386    15.994914619570
         O           -1.249243684729     2.478287766727    -0.684341159614    15.994914619570
         O           -3.220798684729     1.516535766727     0.746708840386    15.994914619570
         O           -2.361297684729    -3.071400233273     0.096761840386    15.994914619570
         O            1.356261315271     2.242470766727    -0.074720159614    15.994914619570
         N            0.839135315271     0.040659766727     0.257764840386    14.003074004430
         N            3.052957315271     0.715939766727    -0.291905159614    14.003074004430
         N            4.712194315271    -0.841218233273    -0.570476159614    14.003074004430
         C           -1.293752684729     1.073866766727    -0.590255159614    12.000000000000
         C           -2.719439684729     0.650643766727    -0.255571159614    12.000000000000
         C           -0.508208984729     0.549637266727     0.586469040386    12.000000000000
         C           -2.533524684729    -0.721449233273     0.362877840386    12.000000000000
         C           -2.532612684729    -1.854956233273    -0.637468159614    12.000000000000
         C            1.280509215271    -1.246213533273     0.291637540386    12.000000000000
         C            1.751325315271     1.062871766727    -0.057581159614    12.000000000000
         C            2.506832315271    -1.613703233273     0.048816840386    12.000000000000
         C            3.407714315271    -0.555216233273    -0.257103159614    12.000000000000
         H           -0.941874684729     0.586840766727    -1.513069159614     1.007825032230
         H           -3.366850684729     0.638101766727    -1.144643159614     1.007825032230
         H           -0.444558684729     1.217316766727     1.405819840386     1.007825032230
         H           -3.286225684729    -0.913297233273     1.132604840386     1.007825032230
         H           -1.717576684729    -1.704868233273    -1.367642159614     1.007825032230
         H           -3.489829684729    -1.838567233273    -1.182313159614     1.007825032230
         H           -0.301793684729     2.708615766727    -0.523178159614     1.007825032230
         H           -2.851824684729     2.395179766727     0.510484840386     1.007825032230
         H            0.430042315271    -1.968000233273     0.570889840386     1.007825032230
         H           -2.438142684729    -3.802995233273    -0.541411159614     1.007825032230
         H            2.824843315271    -2.649961233273     0.075743840386     1.007825032230
         H            5.120911315271    -1.675424233273    -0.160592159614     1.007825032230
         H            5.315545315271    -0.024617233273    -0.566472159614     1.007825032230

  Basis Set: AUG-CC-PVTZ
    Blend: AUG-CC-PVTZ
  Basis Set: (AUG-CC-PVTZ AUX)
    Blend: AUG-CC-PVTZ-JKFIT
	 Reference Energy          =    -886.3596148905940026 [Eh]
	 Singles Energy            =      -0.0000000000000000 [Eh]
	 Same-Spin Energy          =      -0.9010646040188781 [Eh]
	 Opposite-Spin Energy      =      -2.7157305666545364 [Eh]
	 Correlation Energy        =      -3.6167951706734147 [Eh]
	 Total Energy              =    -889.9764100612674156 [Eh]

	 ================> DF-SCS-MP2 Energies <==================
	-----------------------------------------------------------
	 SCS Same-Spin Scale       =       0.3333333333333333 [-]
	 SCS Opposite-Spin Scale   =       1.2000000000000000 [-]
	 SCS Same-Spin Energy      =      -0.3003548680062927 [Eh]
	 SCS Opposite-Spin Energy  =      -3.2588766799854434 [Eh]
	 SCS Correlation Energy    =      -3.5592315479917360 [Eh]
	 SCS Total Energy          =    -889.9188464385857742 [Eh]
	-----------------------------------------------------------

  Dipole Moment: [D]
     X:     2.0622      Y:    -5.7870      Z:    -1.8758     Total:     6.4235

*** Psi4 exiting successfully. Buy a developer a beer!
