                               Psi4 1.3.2 release

  ==> Input File <==

--------------------------------------------------------------------------
#psi4
#
memory 32 gb

molecule  {
0 1
  O       -1.2481010    -0.6526680     1.0325150
  O       -1.2449750     2.4828510    -0.6861630
  O       -3.2165300     1.5210990     0.7448870
  O       -2.3570290    -3.0668370     0.0949400
  O        1.3605300     2.2470340    -0.0765420
  N        0.8434040     0.0452230     0.2559430
  N        3.0572260     0.7205030    -0.2937270
  N        4.7164630    -0.8366550    -0.5722980
  C       -1.2894840     1.0784300    -0.5920770
  C       -2.7154444     0.6398086    -0.2790872
  C       -0.5254080     0.4815200     0.6000940
  C       -2.5292560    -0.7168860     0.3610560
  C       -2.5283440    -1.8503930    -0.6392900
  C        1.2197750    -1.2614080     0.3112740
  C        1.7555940     1.0674350    -0.0594030
  C        2.5111010    -1.6091400     0.0469950
  C        3.4119830    -0.5506530    -0.2589250
  H       -0.9545557     0.5824784    -1.5164434
  H       -3.3625820     0.6426650    -1.1464650
  H       -0.4402900     1.2218800     1.4039980
  H       -3.2819570    -0.9087340     1.1307830
  H       -1.7133080    -1.7003050    -1.3694640
  H       -3.4855610    -1.8340040    -1.1841350
  H       -0.2975250     2.7131790    -0.5250000
  H       -2.8475560     2.3997430     0.5086630
  H        0.4343110    -1.9634370     0.5690680
  H       -2.4338740    -3.7984320    -0.5432330
  H        2.8291120    -2.6453980     0.0739220
  H        5.1251800    -1.6708610    -0.1624140
  H        5.3198140    -0.0200540    -0.5682940
units angstrom
no_reorient  #important for SAPT in psi4, default
symmetry c1  #important for SAPT in psi4, default
}

set PROPERTIES_ORIGIN ["COM"]
properties('MP2/aug-cc-pvtz', properties = ['dipole'])
--------------------------------------------------------------------------

    Molecular point group: c1
  Charge       = 0
  Multiplicity = 1
  Basis Set: AUG-CC-PVTZ
    Blend: AUG-CC-PVTZ
  Basis Set: (AUG-CC-PVTZ AUX)
    Blend: AUG-CC-PVTZ-JKFIT

    Orbital Energies [Eh]
    ---------------------

    Doubly Occupied:

       1A    -20.582402     2A    -20.582279     3A    -20.557607
       4A    -20.554999     5A    -20.522072     6A    -15.637109
       7A    -15.599946     8A    -15.553446     9A    -11.388372
      10A    -11.357972    11A    -11.342203    12A    -11.328697
      13A    -11.301394    14A    -11.297673    15A    -11.297452
      16A    -11.292407    17A    -11.248706    18A     -1.429106
      19A     -1.396304    20A     -1.377632    21A     -1.372223
      22A     -1.340187    23A     -1.306174    24A     -1.273931
      25A     -1.182360    26A     -1.082134    27A     -1.070159
      28A     -1.021683    29A     -0.935911    30A     -0.909622
      31A     -0.877387    32A     -0.832444    33A     -0.813536
      34A     -0.767079    35A     -0.752836    36A     -0.735843
      37A     -0.720694    38A     -0.702056    39A     -0.695989
      40A     -0.685700    41A     -0.671319    42A     -0.655059
      43A     -0.651150    44A     -0.639067    45A     -0.620574
      46A     -0.614982    47A     -0.606229    48A     -0.594219
      49A     -0.575336    50A     -0.569354    51A     -0.553288
      52A     -0.543187    53A     -0.536116    54A     -0.531964
      55A     -0.498117    56A     -0.478407    57A     -0.475444
      58A     -0.462574    59A     -0.460697    60A     -0.452378
      61A     -0.442180    62A     -0.433307    63A     -0.395430
      64A     -0.350217

  @DF-RHF Final Energy:  -886.37224051749411

   => Energetics <=

    Nuclear Repulsion Energy =           1323.4777942748205533
    One-Electron Energy =               -3844.6274317574179804
    Two-Electron Energy =                1634.7773969651032075
    Total Energy =                       -886.3722405174942196
  Basis Set: (AUG-CC-PVTZ AUX)
    Blend: AUG-CC-PVTZ-RI
    Molecular point group: c1

    Geometry (in Angstrom), charge = 0, multiplicity = 1:

       Center              X                  Y                   Z               Mass
    ------------   -----------------  -----------------  -----------------  -----------------
         O           -1.248017264521    -0.651870837309     1.033592385298    15.994914619570
         O           -1.244891264521     2.483648162691    -0.685085614702    15.994914619570
         O           -3.216446264521     1.521896162691     0.745964385298    15.994914619570
         O           -2.356945264521    -3.066039837309     0.096017385298    15.994914619570
         O            1.360613735479     2.247831162691    -0.075464614702    15.994914619570
         N            0.843487735479     0.046020162691     0.257020385298    14.003074004430
         N            3.057309735479     0.721300162691    -0.292649614702    14.003074004430
         N            4.716546735479    -0.835857837309    -0.571220614702    14.003074004430
         C           -1.289400264521     1.079227162691    -0.590999614702    12.000000000000
         C           -2.715360664521     0.640605762691    -0.278009814702    12.000000000000
         C           -0.525324264521     0.482317162691     0.601171385298    12.000000000000
         C           -2.529172264521    -0.716088837309     0.362133385298    12.000000000000
         C           -2.528260264521    -1.849595837309    -0.638212614702    12.000000000000
         C            1.219858735479    -1.260610837309     0.312351385298    12.000000000000
         C            1.755677735479     1.068232162691    -0.058325614702    12.000000000000
         C            2.511184735479    -1.608342837309     0.048072385298    12.000000000000
         C            3.412066735479    -0.549855837309    -0.257847614702    12.000000000000
         H           -0.954471964521     0.583275562691    -1.515366014702     1.007825032230
         H           -3.362498264521     0.643462162691    -1.145387614702     1.007825032230
         H           -0.440206264521     1.222677162691     1.405075385298     1.007825032230
         H           -3.281873264521    -0.907936837309     1.131860385298     1.007825032230
         H           -1.713224264521    -1.699507837309    -1.368386614702     1.007825032230
         H           -3.485477264521    -1.833206837309    -1.183057614702     1.007825032230
         H           -0.297441264521     2.713976162691    -0.523922614702     1.007825032230
         H           -2.847472264521     2.400540162691     0.509740385298     1.007825032230
         H            0.434394735479    -1.962639837309     0.570145385298     1.007825032230
         H           -2.433790264521    -3.797634837309    -0.542155614702     1.007825032230
         H            2.829195735479    -2.644600837309     0.074999385298     1.007825032230
         H            5.125263735479    -1.670063837309    -0.161336614702     1.007825032230
         H            5.319897735479    -0.019256837309    -0.567216614702     1.007825032230

  Basis Set: AUG-CC-PVTZ
    Blend: AUG-CC-PVTZ
  Basis Set: (AUG-CC-PVTZ AUX)
    Blend: AUG-CC-PVTZ-JKFIT
	 Reference Energy          =    -886.3722405174941059 [Eh]
	 Singles Energy            =      -0.0000000000000000 [Eh]
	 Same-Spin Energy          =      -0.9012737512471303 [Eh]
	 Opposite-Spin Energy      =      -2.7153552197662778 [Eh]
	 Correlation Energy        =      -3.6166289710134079 [Eh]
	 Total Energy              =    -889.9888694885074756 [Eh]

	 ================> DF-SCS-MP2 Energies <==================
	-----------------------------------------------------------
	 SCS Same-Spin Scale       =       0.3333333333333333 [-]
	 SCS Opposite-Spin Scale   =       1.2000000000000000 [-]
	 SCS Same-Spin Energy      =      -0.3004245837490434 [Eh]
	 SCS Opposite-Spin Energy  =      -3.2584262637195334 [Eh]
	 SCS Correlation Energy    =      -3.5588508474685767 [Eh]
	 SCS Total Energy          =    -889.9310913649626400 [Eh]
	-----------------------------------------------------------

  Dipole Moment: [D]
     X:     1.7291      Y:    -6.0043      Z:    -1.8798     Total:     6.5250

*** Psi4 exiting successfully. Buy a developer a beer!
