                               Psi4 1.3.2 release

  ==> Input File <==

--------------------------------------------------------------------------
#psi4
#
memory 32 gb

molecule  {
0 1
  O       -1.3068663    -0.6089306     1.0426953
  O       -1.2449750     2.4828510    -0.6861630
  O       -3.2165300     1.5210990     0.7448870
  O       -2.3570290    -3.0668370     0.0949400
  O        1.3605300     2.2470340    -0.0765420
  N        0.8598965     0.1184695     0.2373723
  N        3.0572260     0.7205030    -0.2937270
  N        4.7164630    -0.8366550    -0.5722980
  C       -1.2894840     1.0784300    -0.5920770
  C       -2.7151710     0.6552070    -0.2573930
  C       -0.5254080     0.4815200     0.6000940
  C       -2.5292560    -0.7168860     0.3610560
  C       -2.5283440    -1.8503930    -0.6392900
  C        1.2197750    -1.2614080     0.3112740
  C        1.7555940     1.0674350    -0.0594030
  C        2.5111010    -1.6091400     0.0469950
  C        3.4119830    -0.5506530    -0.2589250
  H       -0.9376060     0.5914040    -1.5148910
  H       -3.3625820     0.6426650    -1.1464650
  H       -0.4402900     1.2218800     1.4039980
  H       -3.2819570    -0.9087340     1.1307830
  H       -1.7133080    -1.7003050    -1.3694640
  H       -3.4855610    -1.8340040    -1.1841350
  H       -0.2975250     2.7131790    -0.5250000
  H       -2.8475560     2.3997430     0.5086630
  H        0.4343110    -1.9634370     0.5690680
  H       -2.4338740    -3.7984320    -0.5432330
  H        2.8291120    -2.6453980     0.0739220
  H        5.1251800    -1.6708610    -0.1624140
  H        5.3198140    -0.0200540    -0.5682940
units angstrom
no_reorient  #important for SAPT in psi4, default
symmetry c1  #important for SAPT in psi4, default
}

set PROPERTIES_ORIGIN ["COM"]
properties('MP2/aug-cc-pvtz', properties = ['dipole'])
--------------------------------------------------------------------------

    Molecular point group: c1
  Charge       = 0
  Multiplicity = 1
  Basis Set: AUG-CC-PVTZ
    Blend: AUG-CC-PVTZ
  Basis Set: (AUG-CC-PVTZ AUX)
    Blend: AUG-CC-PVTZ-JKFIT

    Orbital Energies [Eh]
    ---------------------

    Doubly Occupied:

       1A    -20.582188     2A    -20.582150     3A    -20.554628
       4A    -20.553706     5A    -20.511277     6A    -15.637262
       7A    -15.603415     8A    -15.555095     9A    -11.379442
      10A    -11.361631    11A    -11.341471    12A    -11.337203
      13A    -11.299685    14A    -11.293061    15A    -11.292405
      16A    -11.288302    17A    -11.259872    18A     -1.436496
      19A     -1.401450    20A     -1.377944    21A     -1.372573
      22A     -1.343029    23A     -1.304051    24A     -1.271438
      25A     -1.183780    26A     -1.087268    27A     -1.063547
      28A     -1.026133    29A     -0.936802    30A     -0.916971
      31A     -0.876393    32A     -0.829674    33A     -0.812876
      34A     -0.771786    35A     -0.750119    36A     -0.734011
      37A     -0.723272    38A     -0.703713    39A     -0.698670
      40A     -0.688711    41A     -0.675885    42A     -0.654954
      43A     -0.652087    44A     -0.641627    45A     -0.622201
      46A     -0.621048    47A     -0.609287    48A     -0.584270
      49A     -0.575887    50A     -0.570757    51A     -0.552305
      52A     -0.545201    53A     -0.535719    54A     -0.532968
      55A     -0.488229    56A     -0.475966    57A     -0.468706
      58A     -0.458716    59A     -0.454850    60A     -0.448673
      61A     -0.440614    62A     -0.434841    63A     -0.395411
      64A     -0.358219

  @DF-RHF Final Energy:  -886.36537640644849

   => Energetics <=

    Nuclear Repulsion Energy =           1324.3677992996554167
    One-Electron Energy =               -3846.3825099415648765
    Two-Electron Energy =                1635.6493342354610832
    Total Energy =                       -886.3653764064483767
  Basis Set: (AUG-CC-PVTZ AUX)
    Blend: AUG-CC-PVTZ-RI
    Molecular point group: c1

    Geometry (in Angstrom), charge = 0, multiplicity = 1:

       Center              X                  Y                   Z               Mass
    ------------   -----------------  -----------------  -----------------  -----------------
         O           -1.303949663883    -0.616027895102     1.043095223761    15.994914619570
         O           -1.242058363883     2.475753704898    -0.685763076239    15.994914619570
         O           -3.213613363883     1.514001704898     0.745286923761    15.994914619570
         O           -2.354112363883    -3.073934295102     0.095339923761    15.994914619570
         O            1.363446636117     2.239936704898    -0.076142076239    15.994914619570
         N            0.862813136117     0.111372204898     0.237772223761    14.003074004430
         N            3.060142636117     0.713405704898    -0.293327076239    14.003074004430
         N            4.719379636117    -0.843752295102    -0.571898076239    14.003074004430
         C           -1.286567363883     1.071332704898    -0.591677076239    12.000000000000
         C           -2.712254363883     0.648109704898    -0.256993076239    12.000000000000
         C           -0.522491363883     0.474422704898     0.600493923761    12.000000000000
         C           -2.526339363883    -0.723983295102     0.361455923761    12.000000000000
         C           -2.525427363883    -1.857490295102    -0.638890076239    12.000000000000
         C            1.222691636117    -1.268505295102     0.311673923761    12.000000000000
         C            1.758510636117     1.060337704898    -0.059003076239    12.000000000000
         C            2.514017636117    -1.616237295102     0.047394923761    12.000000000000
         C            3.414899636117    -0.557750295102    -0.258525076239    12.000000000000
         H           -0.934689363883     0.584306704898    -1.514491076239     1.007825032230
         H           -3.359665363883     0.635567704898    -1.146065076239     1.007825032230
         H           -0.437373363883     1.214782704898     1.404397923761     1.007825032230
         H           -3.279040363883    -0.915831295102     1.131182923761     1.007825032230
         H           -1.710391363883    -1.707402295102    -1.369064076239     1.007825032230
         H           -3.482644363883    -1.841101295102    -1.183735076239     1.007825032230
         H           -0.294608363883     2.706081704898    -0.524600076239     1.007825032230
         H           -2.844639363883     2.392645704898     0.509062923761     1.007825032230
         H            0.437227636117    -1.970534295102     0.569467923761     1.007825032230
         H           -2.430957363883    -3.805529295102    -0.542833076239     1.007825032230
         H            2.832028636117    -2.652495295102     0.074321923761     1.007825032230
         H            5.128096636117    -1.677958295102    -0.162014076239     1.007825032230
         H            5.322730636117    -0.027151295102    -0.567894076239     1.007825032230

  Basis Set: AUG-CC-PVTZ
    Blend: AUG-CC-PVTZ
  Basis Set: (AUG-CC-PVTZ AUX)
    Blend: AUG-CC-PVTZ-JKFIT
	 Reference Energy          =    -886.3653764064484903 [Eh]
	 Singles Energy            =      -0.0000000000000000 [Eh]
	 Same-Spin Energy          =      -0.9006027355717869 [Eh]
	 Opposite-Spin Energy      =      -2.7140975670710317 [Eh]
	 Correlation Energy        =      -3.6147003026428184 [Eh]
	 Total Energy              =    -889.9800767090913496 [Eh]

	 ================> DF-SCS-MP2 Energies <==================
	-----------------------------------------------------------
	 SCS Same-Spin Scale       =       0.3333333333333333 [-]
	 SCS Opposite-Spin Scale   =       1.2000000000000000 [-]
	 SCS Same-Spin Energy      =      -0.3002009118572623 [Eh]
	 SCS Opposite-Spin Energy  =      -3.2569170804852381 [Eh]
	 SCS Correlation Energy    =      -3.5571179923425005 [Eh]
	 SCS Total Energy          =    -889.9224943987909455 [Eh]
	-----------------------------------------------------------

  Dipole Moment: [D]
     X:     2.1124      Y:    -6.3962      Z:    -1.7871     Total:     6.9690

*** Psi4 exiting successfully. Buy a developer a beer!
