                               Psi4 1.3.2 release

  ==> Input File <==

--------------------------------------------------------------------------
#psi4
#
memory 32 gb

molecule  {
0 1
  O       -1.2481010    -0.6526680     1.0325150
  O       -1.2449750     2.4828510    -0.6861630
  O       -3.2165300     1.5210990     0.7448870
  O       -2.3570290    -3.0668370     0.0949400
  O        1.3605300     2.2470340    -0.0765420
  N        0.8434040     0.0452230     0.2559430
  N        3.0572260     0.7205030    -0.2937270
  N        4.7164630    -0.8366550    -0.5722980
  C       -1.2894840     1.0784300    -0.5920770
  C       -2.7151710     0.6552070    -0.2573930
  C       -0.5254080     0.4815200     0.6000940
  C       -2.5292560    -0.7168860     0.3610560
  C       -2.5283440    -1.8503930    -0.6392900
  C        1.2197750    -1.2614080     0.3112740
  C        1.7555940     1.0674350    -0.0594030
  C        2.5137540    -1.5976897     0.0451598
  C        3.4119830    -0.5506530    -0.2589250
  H       -0.9376060     0.5914040    -1.5148910
  H       -3.3625820     0.6426650    -1.1464650
  H       -0.4402900     1.2218800     1.4039980
  H       -3.2819570    -0.9087340     1.1307830
  H       -1.7133080    -1.7003050    -1.3694640
  H       -3.4855610    -1.8340040    -1.1841350
  H       -0.2975250     2.7131790    -0.5250000
  H       -2.8475560     2.3997430     0.5086630
  H        0.4281750    -1.9562622     0.5697371
  H       -2.4338740    -3.7984320    -0.5432330
  H        2.8291120    -2.6453980     0.0739220
  H        5.1251800    -1.6708610    -0.1624140
  H        5.3198140    -0.0200540    -0.5682940
units angstrom
no_reorient  #important for SAPT in psi4, default
symmetry c1  #important for SAPT in psi4, default
}

set PROPERTIES_ORIGIN ["COM"]
properties('MP2/aug-cc-pvtz', properties = ['dipole'])
--------------------------------------------------------------------------

    Molecular point group: c1
  Charge       = 0
  Multiplicity = 1
  Basis Set: AUG-CC-PVTZ
    Blend: AUG-CC-PVTZ
  Basis Set: (AUG-CC-PVTZ AUX)
    Blend: AUG-CC-PVTZ-JKFIT

    Orbital Energies [Eh]
    ---------------------

    Doubly Occupied:

       1A    -20.582461     2A    -20.581971     3A    -20.557912
       4A    -20.557292     5A    -20.521615     6A    -15.637142
       7A    -15.599480     8A    -15.552950     9A    -11.387937
      10A    -11.356687    11A    -11.341708    12A    -11.329147
      13A    -11.301404    14A    -11.297160    15A    -11.296798
      16A    -11.293123    17A    -11.248492    18A     -1.429638
      19A     -1.396350    20A     -1.380261    21A     -1.373024
      22A     -1.346395    23A     -1.306410    24A     -1.273952
      25A     -1.182091    26A     -1.082423    27A     -1.067949
      28A     -1.021693    29A     -0.936038    30A     -0.910529
      31A     -0.877078    32A     -0.832245    33A     -0.812117
      34A     -0.767457    35A     -0.752165    36A     -0.736237
      37A     -0.720483    38A     -0.703116    39A     -0.698578
      40A     -0.685512    41A     -0.672588    42A     -0.654612
      43A     -0.650429    44A     -0.638245    45A     -0.622154
      46A     -0.614619    47A     -0.607511    48A     -0.592355
      49A     -0.576012    50A     -0.570051    51A     -0.554142
      52A     -0.545752    53A     -0.537634    54A     -0.531967
      55A     -0.498115    56A     -0.477682    57A     -0.474580
      58A     -0.462293    59A     -0.459835    60A     -0.452976
      61A     -0.440835    62A     -0.433176    63A     -0.395174
      64A     -0.349950

  @DF-RHF Final Energy:  -886.37294229497104

   => Energetics <=

    Nuclear Repulsion Energy =           1323.9586908211883838
    One-Electron Energy =               -3845.5678504154871007
    Two-Electron Energy =                1635.2362172993277909
    Total Energy =                       -886.3729422949711534
  Basis Set: (AUG-CC-PVTZ AUX)
    Blend: AUG-CC-PVTZ-RI
    Molecular point group: c1

    Geometry (in Angstrom), charge = 0, multiplicity = 1:

       Center              X                  Y                   Z               Mass
    ------------   -----------------  -----------------  -----------------  -----------------
         O           -1.248206560524    -0.653262984342     1.032602828690    15.994914619570
         O           -1.245080560524     2.482256015658    -0.686075171310    15.994914619570
         O           -3.216635560524     1.520504015658     0.744974828690    15.994914619570
         O           -2.357134560524    -3.067431984342     0.095027828690    15.994914619570
         O            1.360424439476     2.246439015658    -0.076454171310    15.994914619570
         N            0.843298439476     0.044628015658     0.256030828690    14.003074004430
         N            3.057120439476     0.719908015658    -0.293639171310    14.003074004430
         N            4.716357439476    -0.837249984342    -0.572210171310    14.003074004430
         C           -1.289589560524     1.077835015658    -0.591989171310    12.000000000000
         C           -2.715276560524     0.654612015658    -0.257305171310    12.000000000000
         C           -0.525513560524     0.480925015658     0.600181828690    12.000000000000
         C           -2.529361560524    -0.717480984342     0.361143828690    12.000000000000
         C           -2.528449560524    -1.850987984342    -0.639202171310    12.000000000000
         C            1.219669439476    -1.262002984342     0.311361828690    12.000000000000
         C            1.755488439476     1.066840015658    -0.059315171310    12.000000000000
         C            2.513648439476    -1.598284684342     0.045247628690    12.000000000000
         C            3.411877439476    -0.551247984342    -0.258837171310    12.000000000000
         H           -0.937711560524     0.590809015658    -1.514803171310     1.007825032230
         H           -3.362687560524     0.642070015658    -1.146377171310     1.007825032230
         H           -0.440395560524     1.221285015658     1.404085828690     1.007825032230
         H           -3.282062560524    -0.909328984342     1.130870828690     1.007825032230
         H           -1.713413560524    -1.700899984342    -1.369376171310     1.007825032230
         H           -3.485666560524    -1.834598984342    -1.184047171310     1.007825032230
         H           -0.297630560524     2.712584015658    -0.524912171310     1.007825032230
         H           -2.847661560524     2.399148015658     0.508750828690     1.007825032230
         H            0.428069439476    -1.956857184342     0.569824928690     1.007825032230
         H           -2.433979560524    -3.799026984342    -0.543145171310     1.007825032230
         H            2.829006439476    -2.645992984342     0.074009828690     1.007825032230
         H            5.125074439476    -1.671455984342    -0.162326171310     1.007825032230
         H            5.319708439476    -0.020648984342    -0.568206171310     1.007825032230

  Basis Set: AUG-CC-PVTZ
    Blend: AUG-CC-PVTZ
  Basis Set: (AUG-CC-PVTZ AUX)
    Blend: AUG-CC-PVTZ-JKFIT
	 Reference Energy          =    -886.3729422949710397 [Eh]
	 Singles Energy            =      -0.0000000000000000 [Eh]
	 Same-Spin Energy          =      -0.9014490042638525 [Eh]
	 Opposite-Spin Energy      =      -2.7151199388759912 [Eh]
	 Correlation Energy        =      -3.6165689431398436 [Eh]
	 Total Energy              =    -889.9895112381109357 [Eh]

	 ================> DF-SCS-MP2 Energies <==================
	-----------------------------------------------------------
	 SCS Same-Spin Scale       =       0.3333333333333333 [-]
	 SCS Opposite-Spin Scale   =       1.2000000000000000 [-]
	 SCS Same-Spin Energy      =      -0.3004830014212841 [Eh]
	 SCS Opposite-Spin Energy  =      -3.2581439266511896 [Eh]
	 SCS Correlation Energy    =      -3.5586269280724738 [Eh]
	 SCS Total Energy          =    -889.9315692230435388 [Eh]
	-----------------------------------------------------------

  Dipole Moment: [D]
     X:     1.6729      Y:    -5.9576      Z:    -1.8154     Total:     6.4488

*** Psi4 exiting successfully. Buy a developer a beer!
