                               Psi4 1.4a3.dev225

  ==> Input File <==

--------------------------------------------------------------------------
#psi4
#
memory 32 gb

molecule  {
0 1
  O       -1.3191770     0.6538360    -1.0992360
  O       -1.5735610    -2.4640850     0.5135810
  O       -3.5606630    -1.0699430    -0.4600060
  O       -1.4399290     3.1254620     0.1265180
  O        1.1065530    -2.3833650     0.0076020
  N        0.7686360    -0.1579440    -0.3706350
  N        2.9363770    -0.9938720     0.1460080
  N        4.7058880     0.4431110     0.3611260
  C       -1.3768610    -1.0680440     0.5552780
  C       -2.7379840    -0.3746360     0.4578480
  C       -0.6377490    -0.5042940    -0.6790150
  C       -2.3707440     0.9655450    -0.1585060
  C       -1.8992030     1.9895750     0.8571380
  C        1.2309690     1.1190800    -0.4442230
  C        1.6104480    -1.2470590    -0.0585760
  C        2.5474650     1.3753690    -0.1998620
  C        3.3802090     0.2523040     0.0808410
  H       -0.8441360    -0.7686950     1.4698480
  H       -3.2257400    -0.2778790     1.4400230
  H       -0.6227070    -1.2428120    -1.4883720
  H       -3.1941750     1.3785730    -0.7472070
  H       -1.0952130     1.5703990     1.4802000
  H       -2.7410530     2.2466610     1.5166010
  H       -0.6710550    -2.8260740     0.3542250
  H       -3.3063470    -2.0105220    -0.3629290
  H        0.4793285     1.8918080    -0.6884552
  H       -1.2098800     3.8154810     0.7720340
  H        2.9334840     2.3875570    -0.2389120
  H        5.1589650     1.2712730    -0.0008400
  H        5.2635310    -0.4031270     0.3606700
units angstrom
no_reorient  #important for SAPT in psi4, default
symmetry c1  #important for SAPT in psi4, default
}

set PROPERTIES_ORIGIN ["COM"]
properties('MP2/aug-cc-pvtz', properties = ['dipole'])
--------------------------------------------------------------------------

    Molecular point group: c1
  Charge       = 0
  Multiplicity = 1
  Basis Set: AUG-CC-PVTZ
    Blend: AUG-CC-PVTZ
  Basis Set: (AUG-CC-PVTZ AUX)
    Blend: AUG-CC-PVTZ-JKFIT

    Orbital Energies [Eh]
    ---------------------

    Doubly Occupied:

       1A    -20.586974     2A    -20.581434     3A    -20.559344
       4A    -20.556450     5A    -20.519666     6A    -15.632947
       7A    -15.599562     8A    -15.551618     9A    -11.385915
      10A    -11.357945    11A    -11.339569    12A    -11.326647
      13A    -11.303659    14A    -11.297998    15A    -11.296973
      16A    -11.293531    17A    -11.246364    18A     -1.429248
      19A     -1.394083    20A     -1.383178    21A     -1.375580
      22A     -1.346543    23A     -1.303524    24A     -1.271152
      25A     -1.181062    26A     -1.078803    27A     -1.068108
      28A     -1.017254    29A     -0.936474    30A     -0.905106
      31A     -0.876739    32A     -0.829965    33A     -0.812292
      34A     -0.766360    35A     -0.749568    36A     -0.735168
      37A     -0.721432    38A     -0.708037    39A     -0.703148
      40A     -0.684065    41A     -0.674946    42A     -0.653369
      43A     -0.648912    44A     -0.633396    45A     -0.620203
      46A     -0.614227    47A     -0.606751    48A     -0.592983
      49A     -0.576775    50A     -0.564838    51A     -0.555818
      52A     -0.548176    53A     -0.536635    54A     -0.531062
      55A     -0.495582    56A     -0.480932    57A     -0.473744
      58A     -0.463295    59A     -0.457887    60A     -0.452974
      61A     -0.442019    62A     -0.430129    63A     -0.392168
      64A     -0.348098

  @DF-RHF Final Energy:  -886.37343842112671

   => Energetics <=

    Nuclear Repulsion Energy =           1334.4910177717213173
    One-Electron Energy =               -3866.7121057212852975
    Two-Electron Energy =                1645.8476495284373868
    Total Energy =                       -886.3734384211268207
  Basis Set: (AUG-CC-PVTZ AUX)
    Blend: AUG-CC-PVTZ-RI
    Molecular point group: c1

    Geometry (in Angstrom), charge = 0, multiplicity = 1:

       Center              X                  Y                   Z               Mass
    ------------   -----------------  -----------------  -----------------  -----------------
         O           -1.331864267545     0.682389497808    -1.083437467227    15.994914619570
         O           -1.586248267545    -2.435531502192     0.529379532773    15.994914619570
         O           -3.573350267545    -1.041389502192    -0.444207467227    15.994914619570
         O           -1.452616267545     3.154015497808     0.142316532773    15.994914619570
         O            1.093865732455    -2.354811502192     0.023400532773    15.994914619570
         N            0.755948732455    -0.129390502192    -0.354836467227    14.003074004430
         N            2.923689732455    -0.965318502192     0.161806532773    14.003074004430
         N            4.693200732455     0.471664497808     0.376924532773    14.003074004430
         C           -1.389548267545    -1.039490502192     0.571076532773    12.000000000000
         C           -2.750671267545    -0.346082502192     0.473646532773    12.000000000000
         C           -0.650436267545    -0.475740502192    -0.663216467227    12.000000000000
         C           -2.383431267545     0.994098497808    -0.142707467227    12.000000000000
         C           -1.911890267545     2.018128497808     0.872936532773    12.000000000000
         C            1.218281732455     1.147633497808    -0.428424467227    12.000000000000
         C            1.597760732455    -1.218505502192    -0.042777467227    12.000000000000
         C            2.534777732455     1.403922497808    -0.184063467227    12.000000000000
         C            3.367521732455     0.280857497808     0.096639532773    12.000000000000
         H           -0.856823267545    -0.740141502192     1.485646532773     1.007825032230
         H           -3.238427267545    -0.249325502192     1.455821532773     1.007825032230
         H           -0.635394267545    -1.214258502192    -1.472573467227     1.007825032230
         H           -3.206862267545     1.407126497808    -0.731408467227     1.007825032230
         H           -1.107900267545     1.598952497808     1.495998532773     1.007825032230
         H           -2.753740267545     2.275214497808     1.532399532773     1.007825032230
         H           -0.683742267545    -2.797520502192     0.370023532773     1.007825032230
         H           -3.319034267545    -1.981968502192    -0.347130467227     1.007825032230
         H            0.466641232455     1.920361497808    -0.672656667227     1.007825032230
         H           -1.222567267545     3.844034497808     0.787832532773     1.007825032230
         H            2.920796732455     2.416110497808    -0.223113467227     1.007825032230
         H            5.146277732455     1.299826497808     0.014958532773     1.007825032230
         H            5.250843732455    -0.374573502192     0.376468532773     1.007825032230

  Basis Set: AUG-CC-PVTZ
    Blend: AUG-CC-PVTZ
  Basis Set: (AUG-CC-PVTZ AUX)
    Blend: AUG-CC-PVTZ-JKFIT
	 Reference Energy          =    -886.3734384211267070 [Eh]
	 Singles Energy            =      -0.0000000000000000 [Eh]
	 Same-Spin Energy          =      -0.9019393373272482 [Eh]
	 Opposite-Spin Energy      =      -2.7161179556322281 [Eh]
	 Correlation Energy        =      -3.6180572929594765 [Eh]
	 Total Energy              =    -889.9914957140862271 [Eh]

	 ================> DF-SCS-MP2 Energies <==================
	-----------------------------------------------------------
	 SCS Same-Spin Scale       =       0.3333333333333333 [-]
	 SCS Opposite-Spin Scale   =       1.2000000000000000 [-]
	 SCS Same-Spin Energy      =      -0.3006464457757494 [Eh]
	 SCS Opposite-Spin Energy  =      -3.2593415467586735 [Eh]
	 SCS Correlation Energy    =      -3.5599879925344227 [Eh]
	 SCS Total Energy          =    -889.9334264136610955 [Eh]
	-----------------------------------------------------------

  Dipole Moment: [D]
     X:     2.7183      Y:     5.8082      Z:     1.9471     Total:     6.7019

*** Psi4 exiting successfully. Buy a developer a beer!
