                               Psi4 1.3.2 release

  ==> Input File <==

--------------------------------------------------------------------------
#psi4
#
memory 32 gb

molecule  {
0 1
  O       -1.2481010    -0.6526680     1.0325150
  O       -1.2449750     2.4828510    -0.6861630
  O       -3.2165300     1.5210990     0.7448870
  O       -2.3570290    -3.0668370     0.0949400
  O        1.3605300     2.2470340    -0.0765420
  N        0.8434040     0.0452230     0.2559430
  N        3.0572260     0.7205030    -0.2937270
  N        4.7164630    -0.8366550    -0.5722980
  C       -1.2894840     1.0784300    -0.5920770
  C       -2.7151710     0.6552070    -0.2573930
  C       -0.5254080     0.4815200     0.6000940
  C       -2.5292560    -0.7168860     0.3610560
  C       -2.5283440    -1.8503930    -0.6392900
  C        1.2197750    -1.2614080     0.3112740
  C        1.8507911     1.0420615    -0.0765407
  C        2.5111010    -1.6091400     0.0469950
  C        3.4119830    -0.5506530    -0.2589250
  H       -0.9376060     0.5914040    -1.5148910
  H       -3.3625820     0.6426650    -1.1464650
  H       -0.4402900     1.2218800     1.4039980
  H       -3.2819570    -0.9087340     1.1307830
  H       -1.7133080    -1.7003050    -1.3694640
  H       -3.4855610    -1.8340040    -1.1841350
  H       -0.2975250     2.7131790    -0.5250000
  H       -2.8475560     2.3997430     0.5086630
  H        0.4343110    -1.9634370     0.5690680
  H       -2.4338740    -3.7984320    -0.5432330
  H        2.8291120    -2.6453980     0.0739220
  H        5.1251800    -1.6708610    -0.1624140
  H        5.3198140    -0.0200540    -0.5682940
units angstrom
no_reorient  #important for SAPT in psi4, default
symmetry c1  #important for SAPT in psi4, default
}

set PROPERTIES_ORIGIN ["COM"]
properties('MP2/aug-cc-pvtz', properties = ['dipole'])
--------------------------------------------------------------------------

    Molecular point group: c1
  Charge       = 0
  Multiplicity = 1
  Basis Set: AUG-CC-PVTZ
    Blend: AUG-CC-PVTZ
  Basis Set: (AUG-CC-PVTZ AUX)
    Blend: AUG-CC-PVTZ-JKFIT

    Orbital Energies [Eh]
    ---------------------

    Doubly Occupied:

       1A    -20.581427     2A    -20.579628     3A    -20.554908
       4A    -20.551381     5A    -20.503725     6A    -15.636014
       7A    -15.609688     8A    -15.558491     9A    -11.385061
      10A    -11.371919    11A    -11.338908    12A    -11.331652
      13A    -11.299915    14A    -11.295032    15A    -11.292655
      16A    -11.290053    17A    -11.250523    18A     -1.424764
      19A     -1.381765    20A     -1.376889    21A     -1.369910
      22A     -1.342557    23A     -1.300171    24A     -1.265487
      25A     -1.210092    26A     -1.083411    27A     -1.065105
      28A     -1.018463    29A     -0.938284    30A     -0.901400
      31A     -0.889995    32A     -0.833597    33A     -0.810075
      34A     -0.773594    35A     -0.749415    36A     -0.731501
      37A     -0.723245    38A     -0.701181    39A     -0.695679
      40A     -0.689471    41A     -0.671121    42A     -0.653710
      43A     -0.644708    44A     -0.638934    45A     -0.624440
      46A     -0.612392    47A     -0.604998    48A     -0.585851
      49A     -0.573645    50A     -0.569122    51A     -0.551510
      52A     -0.543646    53A     -0.533285    54A     -0.527082
      55A     -0.493472    56A     -0.475767    57A     -0.471413
      58A     -0.460361    59A     -0.450914    60A     -0.448918
      61A     -0.441168    62A     -0.430510    63A     -0.401708
      64A     -0.349956

  @DF-RHF Final Energy:  -886.35890203277802

   => Energetics <=

    Nuclear Repulsion Energy =           1322.9468006538877489
    One-Electron Energy =               -3843.6800803201240342
    Two-Electron Energy =                1634.3743776334583799
    Total Energy =                       -886.3589020327779053
  Basis Set: (AUG-CC-PVTZ AUX)
    Blend: AUG-CC-PVTZ-RI
    Molecular point group: c1

    Geometry (in Angstrom), charge = 0, multiplicity = 1:

       Center              X                  Y                   Z               Mass
    ------------   -----------------  -----------------  -----------------  -----------------
         O           -1.252800471392    -0.651415418341     1.033361015912    15.994914619570
         O           -1.249674471392     2.484103581659    -0.685316984088    15.994914619570
         O           -3.221229471392     1.522351581659     0.745733015912    15.994914619570
         O           -2.361728471392    -3.065584418341     0.095786015912    15.994914619570
         O            1.355830528608     2.248286581659    -0.075695984088    15.994914619570
         N            0.838704528608     0.046475581659     0.256789015912    14.003074004430
         N            3.052526528608     0.721755581659    -0.292880984088    14.003074004430
         N            4.711763528608    -0.835402418341    -0.571451984088    14.003074004430
         C           -1.294183471392     1.079682581659    -0.591230984088    12.000000000000
         C           -2.719870471392     0.656459581659    -0.256546984088    12.000000000000
         C           -0.530107471392     0.482772581659     0.600940015912    12.000000000000
         C           -2.533955471392    -0.715633418341     0.361902015912    12.000000000000
         C           -2.533043471392    -1.849140418341    -0.638443984088    12.000000000000
         C            1.215075528608    -1.260155418341     0.312120015912    12.000000000000
         C            1.846091628608     1.043314081659    -0.075694684088    12.000000000000
         C            2.506401528608    -1.607887418341     0.047841015912    12.000000000000
         C            3.407283528608    -0.549400418341    -0.258078984088    12.000000000000
         H           -0.942305471392     0.592656581659    -1.514044984088     1.007825032230
         H           -3.367281471392     0.643917581659    -1.145618984088     1.007825032230
         H           -0.444989471392     1.223132581659     1.404844015912     1.007825032230
         H           -3.286656471392    -0.907481418341     1.131629015912     1.007825032230
         H           -1.718007471392    -1.699052418341    -1.368617984088     1.007825032230
         H           -3.490260471392    -1.832751418341    -1.183288984088     1.007825032230
         H           -0.302224471392     2.714431581659    -0.524153984088     1.007825032230
         H           -2.852255471392     2.400995581659     0.509509015912     1.007825032230
         H            0.429611528608    -1.962184418341     0.569914015912     1.007825032230
         H           -2.438573471392    -3.797179418341    -0.542386984088     1.007825032230
         H            2.824412528608    -2.644145418341     0.074768015912     1.007825032230
         H            5.120480528608    -1.669608418341    -0.161567984088     1.007825032230
         H            5.315114528608    -0.018801418341    -0.567447984088     1.007825032230

  Basis Set: AUG-CC-PVTZ
    Blend: AUG-CC-PVTZ
  Basis Set: (AUG-CC-PVTZ AUX)
    Blend: AUG-CC-PVTZ-JKFIT
	 Reference Energy          =    -886.3589020327780190 [Eh]
	 Singles Energy            =      -0.0000000000000000 [Eh]
	 Same-Spin Energy          =      -0.9022400581904244 [Eh]
	 Opposite-Spin Energy      =      -2.7157379855602084 [Eh]
	 Correlation Energy        =      -3.6179780437506328 [Eh]
	 Total Energy              =    -889.9768800765286869 [Eh]

	 ================> DF-SCS-MP2 Energies <==================
	-----------------------------------------------------------
	 SCS Same-Spin Scale       =       0.3333333333333333 [-]
	 SCS Opposite-Spin Scale   =       1.2000000000000000 [-]
	 SCS Same-Spin Energy      =      -0.3007466860634748 [Eh]
	 SCS Opposite-Spin Energy  =      -3.2588855826722498 [Eh]
	 SCS Correlation Energy    =      -3.5596322687357245 [Eh]
	 SCS Total Energy          =    -889.9185343015137732 [Eh]
	-----------------------------------------------------------

  Dipole Moment: [D]
     X:     2.3679      Y:    -6.4474      Z:    -1.8933     Total:     7.1246

*** Psi4 exiting successfully. Buy a developer a beer!
