                               Psi4 1.4a3.dev225

  ==> Input File <==

--------------------------------------------------------------------------
#psi4
#
memory 32 gb

molecule  {
0 1
  O       -1.3191770     0.6538360    -1.0992360
  O       -1.5735610    -2.4640850     0.5135810
  O       -3.5606630    -1.0699430    -0.4600060
  O       -1.4399290     3.1254620     0.1265180
  O        1.1065530    -2.3833650     0.0076020
  N        0.7686360    -0.1579440    -0.3706350
  N        2.9363770    -0.9938720     0.1460080
  N        4.7058880     0.4431110     0.3611260
  C       -1.3768610    -1.0680440     0.5552780
  C       -2.7379840    -0.3746360     0.4578480
  C       -0.6377490    -0.5042940    -0.6790150
  C       -2.3707440     0.9655450    -0.1585060
  C       -1.8992030     1.9895750     0.8571380
  C        1.2309690     1.1190800    -0.4442230
  C        1.6104480    -1.2470590    -0.0585760
  C        2.5474650     1.3753690    -0.1998620
  C        3.3802090     0.2523040     0.0808410
  H       -0.8538225    -0.7741381     1.4532184
  H       -3.2257400    -0.2778790     1.4400230
  H       -0.6227070    -1.2428120    -1.4883720
  H       -3.1941750     1.3785730    -0.7472070
  H       -1.0952130     1.5703990     1.4802000
  H       -2.7410530     2.2466610     1.5166010
  H       -0.6710550    -2.8260740     0.3542250
  H       -3.3063470    -2.0105220    -0.3629290
  H        0.4929290     1.8778260    -0.6840360
  H       -1.2098800     3.8154810     0.7720340
  H        2.9334840     2.3875570    -0.2389120
  H        5.1589650     1.2712730    -0.0008400
  H        5.2635310    -0.4031270     0.3606700
units angstrom
no_reorient  #important for SAPT in psi4, default
symmetry c1  #important for SAPT in psi4, default
}

set PROPERTIES_ORIGIN ["COM"]
properties('MP2/aug-cc-pvtz', properties = ['dipole'])
--------------------------------------------------------------------------

    Molecular point group: c1
  Charge       = 0
  Multiplicity = 1
  Basis Set: AUG-CC-PVTZ
    Blend: AUG-CC-PVTZ
  Basis Set: (AUG-CC-PVTZ AUX)
    Blend: AUG-CC-PVTZ-JKFIT

    Orbital Energies [Eh]
    ---------------------

    Doubly Occupied:

       1A    -20.586794     2A    -20.581308     3A    -20.558919
       4A    -20.556261     5A    -20.519728     6A    -15.632988
       7A    -15.599680     8A    -15.551770     9A    -11.385975
      10A    -11.358079    11A    -11.339341    12A    -11.325129
      13A    -11.303663    14A    -11.297892    15A    -11.294594
      16A    -11.293286    17A    -11.246574    18A     -1.429162
      19A     -1.394103    20A     -1.382995    21A     -1.375378
      22A     -1.346338    23A     -1.303669    24A     -1.271342
      25A     -1.181207    26A     -1.079394    27A     -1.068282
      28A     -1.017727    29A     -0.936533    30A     -0.906702
      31A     -0.876959    32A     -0.831061    33A     -0.812528
      34A     -0.766537    35A     -0.750394    36A     -0.735625
      37A     -0.722387    38A     -0.708178    39A     -0.703823
      40A     -0.685202    41A     -0.675316    42A     -0.653486
      43A     -0.649009    44A     -0.633863    45A     -0.620213
      46A     -0.615212    47A     -0.607899    48A     -0.593156
      49A     -0.577087    50A     -0.564926    51A     -0.555736
      52A     -0.548415    53A     -0.536613    54A     -0.531027
      55A     -0.495652    56A     -0.480886    57A     -0.474021
      58A     -0.463415    59A     -0.457939    60A     -0.453398
      61A     -0.442144    62A     -0.430264    63A     -0.392246
      64A     -0.348233

  @DF-RHF Final Energy:  -886.37439809271348

   => Energetics <=

    Nuclear Repulsion Energy =           1334.6888992433400745
    One-Electron Energy =               -3867.0912639910534381
    Two-Electron Energy =                1646.0279666550000002
    Total Energy =                       -886.3743980927133634
  Basis Set: (AUG-CC-PVTZ AUX)
    Blend: AUG-CC-PVTZ-RI
    Molecular point group: c1

    Geometry (in Angstrom), charge = 0, multiplicity = 1:

       Center              X                  Y                   Z               Mass
    ------------   -----------------  -----------------  -----------------  -----------------
         O           -1.331880494868     0.682470033671    -1.083386843287    15.994914619570
         O           -1.586264494868    -2.435450966329     0.529430156713    15.994914619570
         O           -3.573366494868    -1.041308966329    -0.444156843287    15.994914619570
         O           -1.452632494868     3.154096033671     0.142367156713    15.994914619570
         O            1.093849505132    -2.354730966329     0.023451156713    15.994914619570
         N            0.755932505132    -0.129309966329    -0.354785843287    14.003074004430
         N            2.923673505132    -0.965237966329     0.161857156713    14.003074004430
         N            4.693184505132     0.471745033671     0.376975156713    14.003074004430
         C           -1.389564494868    -1.039409966329     0.571127156713    12.000000000000
         C           -2.750687494868    -0.346001966329     0.473697156713    12.000000000000
         C           -0.650452494868    -0.475659966329    -0.663165843287    12.000000000000
         C           -2.383447494868     0.994179033671    -0.142656843287    12.000000000000
         C           -1.911906494868     2.018209033671     0.872987156713    12.000000000000
         C            1.218265505132     1.147714033671    -0.428373843287    12.000000000000
         C            1.597744505132    -1.218424966329    -0.042726843287    12.000000000000
         C            2.534761505132     1.404003033671    -0.184012843287    12.000000000000
         C            3.367505505132     0.280938033671     0.096690156713    12.000000000000
         H           -0.866525994868    -0.745504066329     1.469067556713     1.007825032230
         H           -3.238443494868    -0.249244966329     1.455872156713     1.007825032230
         H           -0.635410494868    -1.214177966329    -1.472522843287     1.007825032230
         H           -3.206878494868     1.407207033671    -0.731357843287     1.007825032230
         H           -1.107916494868     1.599033033671     1.496049156713     1.007825032230
         H           -2.753756494868     2.275295033671     1.532450156713     1.007825032230
         H           -0.683758494868    -2.797439966329     0.370074156713     1.007825032230
         H           -3.319050494868    -1.981887966329    -0.347079843287     1.007825032230
         H            0.480225505132     1.906460033671    -0.668186843287     1.007825032230
         H           -1.222583494868     3.844115033671     0.787883156713     1.007825032230
         H            2.920780505132     2.416191033671    -0.223062843287     1.007825032230
         H            5.146261505132     1.299907033671     0.015009156713     1.007825032230
         H            5.250827505132    -0.374492966329     0.376519156713     1.007825032230

  Basis Set: AUG-CC-PVTZ
    Blend: AUG-CC-PVTZ
  Basis Set: (AUG-CC-PVTZ AUX)
    Blend: AUG-CC-PVTZ-JKFIT
	 Reference Energy          =    -886.3743980927134771 [Eh]
	 Singles Energy            =      -0.0000000000000000 [Eh]
	 Same-Spin Energy          =      -0.9017549455049472 [Eh]
	 Opposite-Spin Energy      =      -2.7157157937382479 [Eh]
	 Correlation Energy        =      -3.6174707392431951 [Eh]
	 Total Energy              =    -889.9918688319567082 [Eh]

	 ================> DF-SCS-MP2 Energies <==================
	-----------------------------------------------------------
	 SCS Same-Spin Scale       =       0.3333333333333333 [-]
	 SCS Opposite-Spin Scale   =       1.2000000000000000 [-]
	 SCS Same-Spin Energy      =      -0.3005849818349824 [Eh]
	 SCS Opposite-Spin Energy  =      -3.2588589524858973 [Eh]
	 SCS Correlation Energy    =      -3.5594439343208797 [Eh]
	 SCS Total Energy          =    -889.9338420270343022 [Eh]
	-----------------------------------------------------------

  Dipole Moment: [D]
     X:     2.7423      Y:     5.8096      Z:     1.9549     Total:     6.7152

*** Psi4 exiting successfully. Buy a developer a beer!
