                               Psi4 1.3.2 release

  ==> Input File <==

--------------------------------------------------------------------------
#psi4
#
memory 32 gb

molecule  {
0 1
  O       -1.2481010    -0.6526680     1.0325150
  O       -1.2449750     2.4828510    -0.6861630
  O       -3.2165300     1.5210990     0.7448870
  O       -2.3570290    -3.0668370     0.0949400
  O        1.3605300     2.2470340    -0.0765420
  N        0.8434040     0.0452230     0.2559430
  N        3.0572260     0.7205030    -0.2937270
  N        4.7164630    -0.8366550    -0.5722980
  C       -1.2894840     1.0784300    -0.5920770
  C       -2.7151710     0.6552070    -0.2573930
  C       -0.5254080     0.4815200     0.6000940
  C       -2.5292560    -0.7168860     0.3610560
  C       -2.5283440    -1.8503930    -0.6392900
  C        1.2197750    -1.2614080     0.3112740
  C        1.7555940     1.0674350    -0.0594030
  C        2.5111010    -1.6091400     0.0469950
  C        3.4119830    -0.5506530    -0.2589250
  H       -0.9376060     0.5914040    -1.5148910
  H       -3.3625820     0.6426650    -1.1464650
  H       -0.4402900     1.2218800     1.4039980
  H       -3.2819570    -0.9087340     1.1307830
  H       -1.7133080    -1.7003050    -1.3694640
  H       -3.4855610    -1.8340040    -1.1841350
  H       -0.4892633     2.6665668    -0.5576150
  H       -2.8475560     2.3997430     0.5086630
  H        0.4343110    -1.9634370     0.5690680
  H       -2.4338740    -3.7984320    -0.5432330
  H        2.8291120    -2.6453980     0.0739220
  H        5.1251800    -1.6708610    -0.1624140
  H        5.3198140    -0.0200540    -0.5682940
units angstrom
no_reorient  #important for SAPT in psi4, default
symmetry c1  #important for SAPT in psi4, default
}

set PROPERTIES_ORIGIN ["COM"]
properties('MP2/aug-cc-pvtz', properties = ['dipole'])
--------------------------------------------------------------------------

    Molecular point group: c1
  Charge       = 0
  Multiplicity = 1
  Basis Set: AUG-CC-PVTZ
    Blend: AUG-CC-PVTZ
  Basis Set: (AUG-CC-PVTZ AUX)
    Blend: AUG-CC-PVTZ-JKFIT

    Orbital Energies [Eh]
    ---------------------

    Doubly Occupied:

       1A    -20.583434     2A    -20.583343     3A    -20.561641
       4A    -20.550934     5A    -20.514707     6A    -15.634589
       7A    -15.597686     8A    -15.549818     9A    -11.382365
      10A    -11.355065    11A    -11.343769    12A    -11.326806
      13A    -11.302825    14A    -11.302491    15A    -11.299209
      16A    -11.296876    17A    -11.246534    18A     -1.443689
      19A     -1.417399    20A     -1.391348    21A     -1.375785
      22A     -1.361820    23A     -1.301925    24A     -1.271526
      25A     -1.179429    26A     -1.081640    27A     -1.073238
      28A     -1.029187    29A     -0.936678    30A     -0.907833
      31A     -0.879268    32A     -0.844476    33A     -0.814316
      34A     -0.764828    35A     -0.764398    36A     -0.748560
      37A     -0.718983    38A     -0.709209    39A     -0.703254
      40A     -0.684116    41A     -0.678446    42A     -0.656064
      43A     -0.650204    44A     -0.638881    45A     -0.625504
      46A     -0.616472    47A     -0.607398    48A     -0.594498
      49A     -0.580473    50A     -0.572428    51A     -0.560937
      52A     -0.549667    53A     -0.541619    54A     -0.531152
      55A     -0.495674    56A     -0.481554    57A     -0.480982
      58A     -0.464929    59A     -0.461347    60A     -0.455189
      61A     -0.443916    62A     -0.429953    63A     -0.392389
      64A     -0.347036

  @DF-RHF Final Energy:  -886.33412322024071

   => Energetics <=

    Nuclear Repulsion Energy =           1324.8053437110784216
    One-Electron Energy =               -3846.8955167464050646
    Two-Electron Energy =                1635.7560498150860440
    Total Energy =                       -886.3341232202405990
  Basis Set: (AUG-CC-PVTZ AUX)
    Blend: AUG-CC-PVTZ-RI
    Molecular point group: c1

    Geometry (in Angstrom), charge = 0, multiplicity = 1:

       Center              X                  Y                   Z               Mass
    ------------   -----------------  -----------------  -----------------  -----------------
         O           -1.247306092889    -0.652474737125     1.032650228260    15.994914619570
         O           -1.244180092889     2.483044262875    -0.686027771740    15.994914619570
         O           -3.215735092889     1.521292262875     0.745022228260    15.994914619570
         O           -2.356234092889    -3.066643737125     0.095075228260    15.994914619570
         O            1.361324907111     2.247227262875    -0.076406771740    15.994914619570
         N            0.844198907111     0.045416262875     0.256078228260    14.003074004430
         N            3.058020907111     0.720696262875    -0.293591771740    14.003074004430
         N            4.717257907111    -0.836461737125    -0.572162771740    14.003074004430
         C           -1.288689092889     1.078623262875    -0.591941771740    12.000000000000
         C           -2.714376092889     0.655400262875    -0.257257771740    12.000000000000
         C           -0.524613092889     0.481713262875     0.600229228260    12.000000000000
         C           -2.528461092889    -0.716692737125     0.361191228260    12.000000000000
         C           -2.527549092889    -1.850199737125    -0.639154771740    12.000000000000
         C            1.220569907111    -1.261214737125     0.311409228260    12.000000000000
         C            1.756388907111     1.067628262875    -0.059267771740    12.000000000000
         C            2.511895907111    -1.608946737125     0.047130228260    12.000000000000
         C            3.412777907111    -0.550459737125    -0.258789771740    12.000000000000
         H           -0.936811092889     0.591597262875    -1.514755771740     1.007825032230
         H           -3.361787092889     0.642858262875    -1.146329771740     1.007825032230
         H           -0.439495092889     1.222073262875     1.404133228260     1.007825032230
         H           -3.281162092889    -0.908540737125     1.130918228260     1.007825032230
         H           -1.712513092889    -1.700111737125    -1.369328771740     1.007825032230
         H           -3.484766092889    -1.833810737125    -1.183999771740     1.007825032230
         H           -0.488468392889     2.666760062875    -0.557479771740     1.007825032230
         H           -2.846761092889     2.399936262875     0.508798228260     1.007825032230
         H            0.435105907111    -1.963243737125     0.569203228260     1.007825032230
         H           -2.433079092889    -3.798238737125    -0.543097771740     1.007825032230
         H            2.829906907111    -2.645204737125     0.074057228260     1.007825032230
         H            5.125974907111    -1.670667737125    -0.162278771740     1.007825032230
         H            5.320608907111    -0.019860737125    -0.568158771740     1.007825032230

  Basis Set: AUG-CC-PVTZ
    Blend: AUG-CC-PVTZ
  Basis Set: (AUG-CC-PVTZ AUX)
    Blend: AUG-CC-PVTZ-JKFIT
	 Reference Energy          =    -886.3341232202407127 [Eh]
	 Singles Energy            =      -0.0000000000000000 [Eh]
	 Same-Spin Energy          =      -0.8980807034943502 [Eh]
	 Opposite-Spin Energy      =      -2.7096033256109031 [Eh]
	 Correlation Energy        =      -3.6076840291052532 [Eh]
	 Total Energy              =    -889.9418072493459704 [Eh]

	 ================> DF-SCS-MP2 Energies <==================
	-----------------------------------------------------------
	 SCS Same-Spin Scale       =       0.3333333333333333 [-]
	 SCS Opposite-Spin Scale   =       1.2000000000000000 [-]
	 SCS Same-Spin Energy      =      -0.2993602344981167 [Eh]
	 SCS Opposite-Spin Energy  =      -3.2515239907330837 [Eh]
	 SCS Correlation Energy    =      -3.5508842252312003 [Eh]
	 SCS Total Energy          =    -889.8850074454719561 [Eh]
	-----------------------------------------------------------

  Dipole Moment: [D]
     X:     1.1475      Y:    -5.9150      Z:    -1.8981     Total:     6.3172

*** Psi4 exiting successfully. Buy a developer a beer!
