                               Psi4 1.3.2 release

  ==> Input File <==

--------------------------------------------------------------------------
#psi4
#
memory 32 gb

molecule  {
0 1
  O       -1.2811025    -0.6441540     0.9968805
  O       -1.2449750     2.4828510    -0.6861630
  O       -3.2165300     1.5210990     0.7448870
  O       -2.3570290    -3.0668370     0.0949400
  O        1.3605300     2.2470340    -0.0765420
  N        0.8434040     0.0452230     0.2559430
  N        3.0572260     0.7205030    -0.2937270
  N        4.7164630    -0.8366550    -0.5722980
  C       -1.3259636     1.0394352    -0.5870145
  C       -2.7151710     0.6552070    -0.2573930
  C       -0.5254080     0.4815200     0.6000940
  C       -2.5292560    -0.7168860     0.3610560
  C       -2.5283440    -1.8503930    -0.6392900
  C        1.2197750    -1.2614080     0.3112740
  C        1.7555940     1.0674350    -0.0594030
  C        2.5111010    -1.6091400     0.0469950
  C        3.4119830    -0.5506530    -0.2589250
  H       -0.9376060     0.5914040    -1.5148910
  H       -3.3625820     0.6426650    -1.1464650
  H       -0.4402900     1.2218800     1.4039980
  H       -3.2819570    -0.9087340     1.1307830
  H       -1.7133080    -1.7003050    -1.3694640
  H       -3.4855610    -1.8340040    -1.1841350
  H       -0.2975250     2.7131790    -0.5250000
  H       -2.8475560     2.3997430     0.5086630
  H        0.4343110    -1.9634370     0.5690680
  H       -2.4338740    -3.7984320    -0.5432330
  H        2.8291120    -2.6453980     0.0739220
  H        5.1251800    -1.6708610    -0.1624140
  H        5.3198140    -0.0200540    -0.5682940
units angstrom
no_reorient  #important for SAPT in psi4, default
symmetry c1  #important for SAPT in psi4, default
}

set PROPERTIES_ORIGIN ["COM"]
properties('MP2/aug-cc-pvtz', properties = ['dipole'])
--------------------------------------------------------------------------

    Molecular point group: c1
  Charge       = 0
  Multiplicity = 1
  Basis Set: AUG-CC-PVTZ
    Blend: AUG-CC-PVTZ
  Basis Set: (AUG-CC-PVTZ AUX)
    Blend: AUG-CC-PVTZ-JKFIT

    Orbital Energies [Eh]
    ---------------------

    Doubly Occupied:

       1A    -20.581600     2A    -20.580244     3A    -20.557639
       4A    -20.551724     5A    -20.522352     6A    -15.639517
       7A    -15.600931     8A    -15.554537     9A    -11.389497
      10A    -11.359179    11A    -11.344911    12A    -11.330529
      13A    -11.299008    14A    -11.295648    15A    -11.293468
      16A    -11.290066    17A    -11.250221    18A     -1.439053
      19A     -1.399154    20A     -1.376376    21A     -1.370957
      22A     -1.335733    23A     -1.307549    24A     -1.276326
      25A     -1.183657    26A     -1.084208    27A     -1.070301
      28A     -1.027497    29A     -0.938316    30A     -0.912023
      31A     -0.878005    32A     -0.833139    33A     -0.813405
      34A     -0.768171    35A     -0.754983    36A     -0.735439
      37A     -0.721972    38A     -0.702072    39A     -0.699193
      40A     -0.687241    41A     -0.673765    42A     -0.656568
      43A     -0.652435    44A     -0.639185    45A     -0.620082
      46A     -0.614840    47A     -0.608940    48A     -0.592726
      49A     -0.577572    50A     -0.573810    51A     -0.550130
      52A     -0.543269    53A     -0.533340    54A     -0.531130
      55A     -0.498557    56A     -0.478662    57A     -0.475225
      58A     -0.461261    59A     -0.459813    60A     -0.452421
      61A     -0.441994    62A     -0.433406    63A     -0.396463
      64A     -0.351572

  @DF-RHF Final Energy:  -886.36985891700692

   => Energetics <=

    Nuclear Repulsion Energy =           1324.9950064879189995
    One-Electron Energy =               -3847.5837127354789118
    Two-Electron Energy =                1636.2188473305529897
    Total Energy =                       -886.3698589170069226
  Basis Set: (AUG-CC-PVTZ AUX)
    Blend: AUG-CC-PVTZ-RI
    Molecular point group: c1

    Geometry (in Angstrom), charge = 0, multiplicity = 1:

       Center              X                  Y                   Z               Mass
    ------------   -----------------  -----------------  -----------------  -----------------
         O           -1.277130222576    -0.642789215455     0.998975329023    15.994914619570
         O           -1.241002722576     2.484215784545    -0.684068170977    15.994914619570
         O           -3.212557722576     1.522463784545     0.746981829023    15.994914619570
         O           -2.353056722576    -3.065472215455     0.097034829023    15.994914619570
         O            1.364502277424     2.248398784545    -0.074447170977    15.994914619570
         N            0.847376277424     0.046587784545     0.258037829023    14.003074004430
         N            3.061198277424     0.721867784545    -0.291632170977    14.003074004430
         N            4.720435277424    -0.835290215455    -0.570203170977    14.003074004430
         C           -1.321991322576     1.040799984545    -0.584919670977    12.000000000000
         C           -2.711198722576     0.656571784545    -0.255298170977    12.000000000000
         C           -0.521435722576     0.482884784545     0.602188829023    12.000000000000
         C           -2.525283722576    -0.715521215455     0.363150829023    12.000000000000
         C           -2.524371722576    -1.849028215455    -0.637195170977    12.000000000000
         C            1.223747277424    -1.260043215455     0.313368829023    12.000000000000
         C            1.759566277424     1.068799784545    -0.057308170977    12.000000000000
         C            2.515073277424    -1.607775215455     0.049089829023    12.000000000000
         C            3.415955277424    -0.549288215455    -0.256830170977    12.000000000000
         H           -0.933633722576     0.592768784545    -1.512796170977     1.007825032230
         H           -3.358609722576     0.644029784545    -1.144370170977     1.007825032230
         H           -0.436317722576     1.223244784545     1.406092829023     1.007825032230
         H           -3.277984722576    -0.907369215455     1.132877829023     1.007825032230
         H           -1.709335722576    -1.698940215455    -1.367369170977     1.007825032230
         H           -3.481588722576    -1.832639215455    -1.182040170977     1.007825032230
         H           -0.293552722576     2.714543784545    -0.522905170977     1.007825032230
         H           -2.843583722576     2.401107784545     0.510757829023     1.007825032230
         H            0.438283277424    -1.962072215455     0.571162829023     1.007825032230
         H           -2.429901722576    -3.797067215455    -0.541138170977     1.007825032230
         H            2.833084277424    -2.644033215455     0.076016829023     1.007825032230
         H            5.129152277424    -1.669496215455    -0.160319170977     1.007825032230
         H            5.323786277424    -0.018689215455    -0.566199170977     1.007825032230

  Basis Set: AUG-CC-PVTZ
    Blend: AUG-CC-PVTZ
  Basis Set: (AUG-CC-PVTZ AUX)
    Blend: AUG-CC-PVTZ-JKFIT
	 Reference Energy          =    -886.3698589170069226 [Eh]
	 Singles Energy            =      -0.0000000000000000 [Eh]
	 Same-Spin Energy          =      -0.9012019393914124 [Eh]
	 Opposite-Spin Energy      =      -2.7145080421278758 [Eh]
	 Correlation Energy        =      -3.6157099815192879 [Eh]
	 Total Energy              =    -889.9855688985262532 [Eh]

	 ================> DF-SCS-MP2 Energies <==================
	-----------------------------------------------------------
	 SCS Same-Spin Scale       =       0.3333333333333333 [-]
	 SCS Opposite-Spin Scale   =       1.2000000000000000 [-]
	 SCS Same-Spin Energy      =      -0.3004006464638041 [Eh]
	 SCS Opposite-Spin Energy  =      -3.2574096505534507 [Eh]
	 SCS Correlation Energy    =      -3.5578102970172547 [Eh]
	 SCS Total Energy          =    -889.9276692140241494 [Eh]
	-----------------------------------------------------------

  Dipole Moment: [D]
     X:     1.8916      Y:    -6.0729      Z:    -1.7154     Total:     6.5880

*** Psi4 exiting successfully. Buy a developer a beer!
