                               Psi4 1.3.2 release

  ==> Input File <==

--------------------------------------------------------------------------
#psi4
#
memory 32 gb

molecule  {
0 1
  O       -1.2142191    -0.6598002     1.0676226
  O       -1.2449750     2.4828510    -0.6861630
  O       -3.2165300     1.5210990     0.7448870
  O       -2.3570290    -3.0668370     0.0949400
  O        1.3605300     2.2470340    -0.0765420
  N        0.8434040     0.0452230     0.2559430
  N        3.0572260     0.7205030    -0.2937270
  N        4.7164630    -0.8366550    -0.5722980
  C       -1.2520735     1.1166975    -0.5956870
  C       -2.7151710     0.6552070    -0.2573930
  C       -0.5254080     0.4815200     0.6000940
  C       -2.5292560    -0.7168860     0.3610560
  C       -2.5283440    -1.8503930    -0.6392900
  C        1.2197750    -1.2614080     0.3112740
  C        1.7555940     1.0674350    -0.0594030
  C        2.5111010    -1.6091400     0.0469950
  C        3.4119830    -0.5506530    -0.2589250
  H       -0.9376060     0.5914040    -1.5148910
  H       -3.3625820     0.6426650    -1.1464650
  H       -0.4402900     1.2218800     1.4039980
  H       -3.2819570    -0.9087340     1.1307830
  H       -1.7133080    -1.7003050    -1.3694640
  H       -3.4855610    -1.8340040    -1.1841350
  H       -0.2975250     2.7131790    -0.5250000
  H       -2.8475560     2.3997430     0.5086630
  H        0.4343110    -1.9634370     0.5690680
  H       -2.4338740    -3.7984320    -0.5432330
  H        2.8291120    -2.6453980     0.0739220
  H        5.1251800    -1.6708610    -0.1624140
  H        5.3198140    -0.0200540    -0.5682940
units angstrom
no_reorient  #important for SAPT in psi4, default
symmetry c1  #important for SAPT in psi4, default
}

set PROPERTIES_ORIGIN ["COM"]
properties('MP2/aug-cc-pvtz', properties = ['dipole'])
--------------------------------------------------------------------------

    Molecular point group: c1
  Charge       = 0
  Multiplicity = 1
  Basis Set: AUG-CC-PVTZ
    Blend: AUG-CC-PVTZ
  Basis Set: (AUG-CC-PVTZ AUX)
    Blend: AUG-CC-PVTZ-JKFIT

    Orbital Energies [Eh]
    ---------------------

    Doubly Occupied:

       1A    -20.582899     2A    -20.582541     3A    -20.562668
       4A    -20.557987     5A    -20.521760     6A    -15.634449
       7A    -15.598832     8A    -15.552232     9A    -11.387120
      10A    -11.356608    11A    -11.338760    12A    -11.326593
      13A    -11.303307    14A    -11.300620    15A    -11.298585
      16A    -11.295229    17A    -11.246974    18A     -1.423951
      19A     -1.393298    20A     -1.388381    21A     -1.373760
      22A     -1.352546    23A     -1.304598    24A     -1.271228
      25A     -1.180910    26A     -1.079981    27A     -1.066214
      28A     -1.015617    29A     -0.932795    30A     -0.907058
      31A     -0.876778    32A     -0.831606    33A     -0.810236
      34A     -0.765906    35A     -0.750425    36A     -0.737973
      37A     -0.718758    38A     -0.704085    39A     -0.698776
      40A     -0.684241    41A     -0.672417    42A     -0.652723
      43A     -0.650843    44A     -0.638064    45A     -0.621431
      46A     -0.614470    47A     -0.605017    48A     -0.595263
      49A     -0.575410    50A     -0.565117    51A     -0.559152
      52A     -0.547717    53A     -0.539629    54A     -0.530645
      55A     -0.497599    56A     -0.478744    57A     -0.472385
      58A     -0.463417    59A     -0.460213    60A     -0.448987
      61A     -0.437927    62A     -0.432444    63A     -0.393873
      64A     -0.348442

  @DF-RHF Final Energy:  -886.36713065883964

   => Energetics <=

    Nuclear Repulsion Energy =           1322.5450157800587476
    One-Electron Energy =               -3842.7878616944890382
    Two-Electron Energy =                1633.8757152555906487
    Total Energy =                       -886.3671306588396419
  Basis Set: (AUG-CC-PVTZ AUX)
    Blend: AUG-CC-PVTZ-RI
    Molecular point group: c1

    Geometry (in Angstrom), charge = 0, multiplicity = 1:

       Center              X                  Y                   Z               Mass
    ------------   -----------------  -----------------  -----------------  -----------------
         O           -1.218295329406    -0.661219982653     1.065490752554    15.994914619570
         O           -1.249051229406     2.481431217347    -0.688294847446    15.994914619570
         O           -3.220606229406     1.519679217347     0.742755152554    15.994914619570
         O           -2.361105229406    -3.068256782653     0.092808152554    15.994914619570
         O            1.356453770594     2.245614217347    -0.078673847446    15.994914619570
         N            0.839327770594     0.043803217347     0.253811152554    14.003074004430
         N            3.053149770594     0.719083217347    -0.295858847446    14.003074004430
         N            4.712386770594    -0.838074782653    -0.574429847446    14.003074004430
         C           -1.256149729406     1.115277717347    -0.597818847446    12.000000000000
         C           -2.719247229406     0.653787217347    -0.259524847446    12.000000000000
         C           -0.529484229406     0.480100217347     0.597962152554    12.000000000000
         C           -2.533332229406    -0.718305782653     0.358924152554    12.000000000000
         C           -2.532420229406    -1.851812782653    -0.641421847446    12.000000000000
         C            1.215698770594    -1.262827782653     0.309142152554    12.000000000000
         C            1.751517770594     1.066015217347    -0.061534847446    12.000000000000
         C            2.507024770594    -1.610559782653     0.044863152554    12.000000000000
         C            3.407906770594    -0.552072782653    -0.261056847446    12.000000000000
         H           -0.941682229406     0.589984217347    -1.517022847446     1.007825032230
         H           -3.366658229406     0.641245217347    -1.148596847446     1.007825032230
         H           -0.444366229406     1.220460217347     1.401866152554     1.007825032230
         H           -3.286033229406    -0.910153782653     1.128651152554     1.007825032230
         H           -1.717384229406    -1.701724782653    -1.371595847446     1.007825032230
         H           -3.489637229406    -1.835423782653    -1.186266847446     1.007825032230
         H           -0.301601229406     2.711759217347    -0.527131847446     1.007825032230
         H           -2.851632229406     2.398323217347     0.506531152554     1.007825032230
         H            0.430234770594    -1.964856782653     0.566936152554     1.007825032230
         H           -2.437950229406    -3.799851782653    -0.545364847446     1.007825032230
         H            2.825035770594    -2.646817782653     0.071790152554     1.007825032230
         H            5.121103770594    -1.672280782653    -0.164545847446     1.007825032230
         H            5.315737770594    -0.021473782653    -0.570425847446     1.007825032230

  Basis Set: AUG-CC-PVTZ
    Blend: AUG-CC-PVTZ
  Basis Set: (AUG-CC-PVTZ AUX)
    Blend: AUG-CC-PVTZ-JKFIT
	 Reference Energy          =    -886.3671306588396419 [Eh]
	 Singles Energy            =      -0.0000000000000000 [Eh]
	 Same-Spin Energy          =      -0.9017862894594139 [Eh]
	 Opposite-Spin Energy      =      -2.7161841233881674 [Eh]
	 Correlation Energy        =      -3.6179704128475811 [Eh]
	 Total Energy              =    -889.9851010716872679 [Eh]

	 ================> DF-SCS-MP2 Energies <==================
	-----------------------------------------------------------
	 SCS Same-Spin Scale       =       0.3333333333333333 [-]
	 SCS Opposite-Spin Scale   =       1.2000000000000000 [-]
	 SCS Same-Spin Energy      =      -0.3005954298198046 [Eh]
	 SCS Opposite-Spin Energy  =      -3.2594209480658010 [Eh]
	 SCS Correlation Energy    =      -3.5600163778856055 [Eh]
	 SCS Total Energy          =    -889.9271470367252732 [Eh]
	-----------------------------------------------------------

  Dipole Moment: [D]
     X:     1.5387      Y:    -5.8242      Z:    -1.9234     Total:     6.3237

*** Psi4 exiting successfully. Buy a developer a beer!
