                               Psi4 1.3.2 release

  ==> Input File <==

--------------------------------------------------------------------------
#psi4
#
memory 32 gb

molecule  {
0 1
  O       -1.2481010    -0.6526680     1.0325150
  O       -1.2449750     2.4828510    -0.6861630
  O       -3.2165300     1.5210990     0.7448870
  O       -2.3570290    -3.0668370     0.0949400
  O        1.3605300     2.2470340    -0.0765420
  N        0.8434040     0.0452230     0.2559430
  N        3.0572260     0.7205030    -0.2937270
  N        4.7164630    -0.8366550    -0.5722980
  C       -1.2894840     1.0784300    -0.5920770
  C       -2.7151710     0.6552070    -0.2573930
  C       -0.5254080     0.4815200     0.6000940
  C       -2.5292560    -0.7168860     0.3610560
  C       -2.5283440    -1.8503930    -0.6392900
  C        1.2197750    -1.2614080     0.3112740
  C        1.7555940     1.0674350    -0.0594030
  C        2.5111010    -1.6091400     0.0469950
  C        3.4107972    -0.5899747    -0.2316318
  H       -0.9376060     0.5914040    -1.5148910
  H       -3.3625820     0.6426650    -1.1464650
  H       -0.4402900     1.2218800     1.4039980
  H       -3.2819570    -0.9087340     1.1307830
  H       -1.7133080    -1.7003050    -1.3694640
  H       -3.4855610    -1.8340040    -1.1841350
  H       -0.2975250     2.7131790    -0.5250000
  H       -2.8475560     2.3997430     0.5086630
  H        0.4343110    -1.9634370     0.5690680
  H       -2.4338740    -3.7984320    -0.5432330
  H        2.8291120    -2.6453980     0.0739220
  H        5.0943656    -1.6771836    -0.1460875
  H        5.3198140    -0.0200540    -0.5682940
units angstrom
no_reorient  #important for SAPT in psi4, default
symmetry c1  #important for SAPT in psi4, default
}

set PROPERTIES_ORIGIN ["COM"]
properties('MP2/aug-cc-pvtz', properties = ['dipole'])
--------------------------------------------------------------------------

    Molecular point group: c1
  Charge       = 0
  Multiplicity = 1
  Basis Set: AUG-CC-PVTZ
    Blend: AUG-CC-PVTZ
  Basis Set: (AUG-CC-PVTZ AUX)
    Blend: AUG-CC-PVTZ-JKFIT

    Orbital Energies [Eh]
    ---------------------

    Doubly Occupied:

       1A    -20.582994     2A    -20.582442     3A    -20.558036
       4A    -20.556921     5A    -20.518211     6A    -15.639531
       7A    -15.601123     8A    -15.552038     9A    -11.384083
      10A    -11.357378    11A    -11.342276    12A    -11.334134
      13A    -11.301853    14A    -11.297519    15A    -11.297029
      16A    -11.293348    17A    -11.247936    18A     -1.429765
      19A     -1.394055    20A     -1.380311    21A     -1.373363
      22A     -1.346189    23A     -1.303579    24A     -1.273054
      25A     -1.174135    26A     -1.087499    27A     -1.068233
      28A     -1.023354    29A     -0.937629    30A     -0.912467
      31A     -0.872485    32A     -0.832298    33A     -0.812534
      34A     -0.768457    35A     -0.753470    36A     -0.736482
      37A     -0.719021    38A     -0.703630    39A     -0.698904
      40A     -0.684406    41A     -0.673526    42A     -0.652545
      43A     -0.651947    44A     -0.638197    45A     -0.624605
      46A     -0.614364    47A     -0.607943    48A     -0.590997
      49A     -0.576189    50A     -0.569994    51A     -0.554164
      52A     -0.545475    53A     -0.537731    54A     -0.532260
      55A     -0.497809    56A     -0.478049    57A     -0.474677
      58A     -0.462479    59A     -0.457266    60A     -0.452988
      61A     -0.441449    62A     -0.431705    63A     -0.390681
      64A     -0.351978

  @DF-RHF Final Energy:  -886.36879709010725

   => Energetics <=

    Nuclear Repulsion Energy =           1323.5797480102985446
    One-Electron Energy =               -3844.8147119119685158
    Two-Electron Energy =                1634.8661668115630619
    Total Energy =                       -886.3687970901071367
  Basis Set: (AUG-CC-PVTZ AUX)
    Blend: AUG-CC-PVTZ-RI
    Molecular point group: c1

    Geometry (in Angstrom), charge = 0, multiplicity = 1:

       Center              X                  Y                   Z               Mass
    ------------   -----------------  -----------------  -----------------  -----------------
         O           -1.247914740966    -0.650700647366     1.031099980149    15.994914619570
         O           -1.244788740966     2.484818352634    -0.687578019851    15.994914619570
         O           -3.216343740966     1.523066352634     0.743471980149    15.994914619570
         O           -2.356842740966    -3.064869647366     0.093524980149    15.994914619570
         O            1.360716259034     2.249001352634    -0.077957019851    15.994914619570
         N            0.843590259034     0.047190352634     0.254527980149    14.003074004430
         N            3.057412259034     0.722470352634    -0.295142019851    14.003074004430
         N            4.716649259034    -0.834687647366    -0.573713019851    14.003074004430
         C           -1.289297740966     1.080397352634    -0.593492019851    12.000000000000
         C           -2.714984740966     0.657174352634    -0.258808019851    12.000000000000
         C           -0.525221740966     0.483487352634     0.598678980149    12.000000000000
         C           -2.529069740966    -0.714918647366     0.359640980149    12.000000000000
         C           -2.528157740966    -1.848425647366    -0.640705019851    12.000000000000
         C            1.219961259034    -1.259440647366     0.309858980149    12.000000000000
         C            1.755780259034     1.069402352634    -0.060818019851    12.000000000000
         C            2.511287259034    -1.607172647366     0.045579980149    12.000000000000
         C            3.410983459034    -0.588007347366    -0.233046819851    12.000000000000
         H           -0.937419740966     0.593371352634    -1.516306019851     1.007825032230
         H           -3.362395740966     0.644632352634    -1.147880019851     1.007825032230
         H           -0.440103740966     1.223847352634     1.402582980149     1.007825032230
         H           -3.281770740966    -0.906766647366     1.129367980149     1.007825032230
         H           -1.713121740966    -1.698337647366    -1.370879019851     1.007825032230
         H           -3.485374740966    -1.832036647366    -1.185550019851     1.007825032230
         H           -0.297338740966     2.715146352634    -0.526415019851     1.007825032230
         H           -2.847369740966     2.401710352634     0.507247980149     1.007825032230
         H            0.434497259034    -1.961469647366     0.567652980149     1.007825032230
         H           -2.433687740966    -3.796464647366    -0.544648019851     1.007825032230
         H            2.829298259034    -2.643430647366     0.072506980149     1.007825032230
         H            5.094551859034    -1.675216247366    -0.147502519851     1.007825032230
         H            5.320000259034    -0.018086647366    -0.569709019851     1.007825032230

  Basis Set: AUG-CC-PVTZ
    Blend: AUG-CC-PVTZ
  Basis Set: (AUG-CC-PVTZ AUX)
    Blend: AUG-CC-PVTZ-JKFIT
	 Reference Energy          =    -886.3687970901072504 [Eh]
	 Singles Energy            =      -0.0000000000000000 [Eh]
	 Same-Spin Energy          =      -0.9020713588540383 [Eh]
	 Opposite-Spin Energy      =      -2.7160471222228657 [Eh]
	 Correlation Energy        =      -3.6181184810769040 [Eh]
	 Total Energy              =    -889.9869155711841131 [Eh]

	 ================> DF-SCS-MP2 Energies <==================
	-----------------------------------------------------------
	 SCS Same-Spin Scale       =       0.3333333333333333 [-]
	 SCS Opposite-Spin Scale   =       1.2000000000000000 [-]
	 SCS Same-Spin Energy      =      -0.3006904529513461 [Eh]
	 SCS Opposite-Spin Energy  =      -3.2592565466674386 [Eh]
	 SCS Correlation Energy    =      -3.5599469996187847 [Eh]
	 SCS Total Energy          =    -889.9287440897260240 [Eh]
	-----------------------------------------------------------

  Dipole Moment: [D]
     X:     1.6142      Y:    -6.1037      Z:    -1.7687     Total:     6.5566

*** Psi4 exiting successfully. Buy a developer a beer!
