                               Psi4 1.3.2 release

  ==> Input File <==

--------------------------------------------------------------------------
#psi4
#
memory 32 gb

molecule  {
0 1
  O       -1.2481010    -0.6526680     1.0325150
  O       -1.2449750     2.4828510    -0.6861630
  O       -3.2165300     1.5210990     0.7448870
  O       -2.3570290    -3.0668370     0.0949400
  O        1.3605300     2.2470340    -0.0765420
  N        0.8434040     0.0452230     0.2559430
  N        3.0572260     0.7205030    -0.2937270
  N        4.7164630    -0.8366550    -0.5722980
  C       -1.2894840     1.0784300    -0.5920770
  C       -2.7151710     0.6552070    -0.2573930
  C       -0.5670566     0.5304062     0.6485494
  C       -2.5292560    -0.7168860     0.3610560
  C       -2.5283440    -1.8503930    -0.6392900
  C        1.2197750    -1.2614080     0.3112740
  C        1.7555940     1.0674350    -0.0594030
  C        2.5111010    -1.6091400     0.0469950
  C        3.4119830    -0.5506530    -0.2589250
  H       -0.9745371     0.6242888    -1.5445277
  H       -3.3625820     0.6426650    -1.1464650
  H       -0.4402900     1.2218800     1.4039980
  H       -3.2819570    -0.9087340     1.1307830
  H       -1.7133080    -1.7003050    -1.3694640
  H       -3.4855610    -1.8340040    -1.1841350
  H       -0.2975250     2.7131790    -0.5250000
  H       -2.8475560     2.3997430     0.5086630
  H        0.4343110    -1.9634370     0.5690680
  H       -2.4338740    -3.7984320    -0.5432330
  H        2.8291120    -2.6453980     0.0739220
  H        5.1251800    -1.6708610    -0.1624140
  H        5.3198140    -0.0200540    -0.5682940
units angstrom
no_reorient  #important for SAPT in psi4, default
symmetry c1  #important for SAPT in psi4, default
}

set PROPERTIES_ORIGIN ["COM"]
properties('MP2/aug-cc-pvtz', properties = ['dipole'])
--------------------------------------------------------------------------

    Molecular point group: c1
  Charge       = 0
  Multiplicity = 1
  Basis Set: AUG-CC-PVTZ
    Blend: AUG-CC-PVTZ
  Basis Set: (AUG-CC-PVTZ AUX)
    Blend: AUG-CC-PVTZ-JKFIT

    Orbital Energies [Eh]
    ---------------------

    Doubly Occupied:

       1A    -20.584353     2A    -20.582701     3A    -20.559980
       4A    -20.556470     5A    -20.519292     6A    -15.631880
       7A    -15.597619     8A    -15.550329     9A    -11.384371
      10A    -11.355069    11A    -11.346081    12A    -11.325507
      13A    -11.301920    14A    -11.298870    15A    -11.297943
      16A    -11.294021    17A    -11.245512    18A     -1.428301
      19A     -1.393586    20A     -1.381131    21A     -1.373214
      22A     -1.347718    23A     -1.302125    24A     -1.265613
      25A     -1.177952    26A     -1.077316    27A     -1.068855
      28A     -1.023375    29A     -0.934933    30A     -0.904648
      31A     -0.873996    32A     -0.839101    33A     -0.811085
      34A     -0.762197    35A     -0.747685    36A     -0.739098
      37A     -0.718905    38A     -0.703114    39A     -0.699005
      40A     -0.684598    41A     -0.671041    42A     -0.660055
      43A     -0.650310    44A     -0.637700    45A     -0.620740
      46A     -0.611593    47A     -0.607561    48A     -0.589524
      49A     -0.576800    50A     -0.574374    51A     -0.552303
      52A     -0.544923    53A     -0.536225    54A     -0.534421
      55A     -0.496524    56A     -0.478084    57A     -0.473868
      58A     -0.463563    59A     -0.458992    60A     -0.455366
      61A     -0.443827    62A     -0.429207    63A     -0.394371
      64A     -0.347753

  @DF-RHF Final Energy:  -886.36626117290837

   => Energetics <=

    Nuclear Repulsion Energy =           1322.6296293445639094
    One-Electron Energy =               -3842.9945895159271458
    Two-Electron Energy =                1633.9986989984549837
    Total Energy =                       -886.3662611729082528
  Basis Set: (AUG-CC-PVTZ AUX)
    Blend: AUG-CC-PVTZ-RI
    Molecular point group: c1

    Geometry (in Angstrom), charge = 0, multiplicity = 1:

       Center              X                  Y                   Z               Mass
    ------------   -----------------  -----------------  -----------------  -----------------
         O           -1.245891921333    -0.655217613234     1.030245862899    15.994914619570
         O           -1.242765921333     2.480301386766    -0.688432137101    15.994914619570
         O           -3.214320921333     1.518549386766     0.742617862899    15.994914619570
         O           -2.354819921333    -3.069386613234     0.092670862899    15.994914619570
         O            1.362739078667     2.244484386766    -0.078811137101    15.994914619570
         N            0.845613078667     0.042673386766     0.253673862899    14.003074004430
         N            3.059435078667     0.717953386766    -0.295996137101    14.003074004430
         N            4.718672078667    -0.839204613234    -0.574567137101    14.003074004430
         C           -1.287274921333     1.075880386766    -0.594346137101    12.000000000000
         C           -2.712961921333     0.652657386766    -0.259662137101    12.000000000000
         C           -0.564847521333     0.527856586766     0.646280262899    12.000000000000
         C           -2.527046921333    -0.719435613234     0.358786862899    12.000000000000
         C           -2.526134921333    -1.852942613234    -0.641559137101    12.000000000000
         C            1.221984078667    -1.263957613234     0.309004862899    12.000000000000
         C            1.757803078667     1.064885386766    -0.061672137101    12.000000000000
         C            2.513310078667    -1.611689613234     0.044725862899    12.000000000000
         C            3.414192078667    -0.553202613234    -0.261194137101    12.000000000000
         H           -0.972328021333     0.621739186766    -1.546796837101     1.007825032230
         H           -3.360372921333     0.640115386766    -1.148734137101     1.007825032230
         H           -0.438080921333     1.219330386766     1.401728862899     1.007825032230
         H           -3.279747921333    -0.911283613234     1.128513862899     1.007825032230
         H           -1.711098921333    -1.702854613234    -1.371733137101     1.007825032230
         H           -3.483351921333    -1.836553613234    -1.186404137101     1.007825032230
         H           -0.295315921333     2.710629386766    -0.527269137101     1.007825032230
         H           -2.845346921333     2.397193386766     0.506393862899     1.007825032230
         H            0.436520078667    -1.965986613234     0.566798862899     1.007825032230
         H           -2.431664921333    -3.800981613234    -0.545502137101     1.007825032230
         H            2.831321078667    -2.647947613234     0.071652862899     1.007825032230
         H            5.127389078667    -1.673410613234    -0.164683137101     1.007825032230
         H            5.322023078667    -0.022603613234    -0.570563137101     1.007825032230

  Basis Set: AUG-CC-PVTZ
    Blend: AUG-CC-PVTZ
  Basis Set: (AUG-CC-PVTZ AUX)
    Blend: AUG-CC-PVTZ-JKFIT
	 Reference Energy          =    -886.3662611729083665 [Eh]
	 Singles Energy            =      -0.0000000000000000 [Eh]
	 Same-Spin Energy          =      -0.9010418959219292 [Eh]
	 Opposite-Spin Energy      =      -2.7151121669907461 [Eh]
	 Correlation Energy        =      -3.6161540629126754 [Eh]
	 Total Energy              =    -889.9824152358210085 [Eh]

	 ================> DF-SCS-MP2 Energies <==================
	-----------------------------------------------------------
	 SCS Same-Spin Scale       =       0.3333333333333333 [-]
	 SCS Opposite-Spin Scale   =       1.2000000000000000 [-]
	 SCS Same-Spin Energy      =      -0.3003472986406430 [Eh]
	 SCS Opposite-Spin Energy  =      -3.2581346003888951 [Eh]
	 SCS Correlation Energy    =      -3.5584818990295384 [Eh]
	 SCS Total Energy          =    -889.9247430719378826 [Eh]
	-----------------------------------------------------------

  Dipole Moment: [D]
     X:     1.4259      Y:    -5.8655      Z:    -1.7404     Total:     6.2822

*** Psi4 exiting successfully. Buy a developer a beer!
