                               Psi4 1.3.2 release

  ==> Input File <==

--------------------------------------------------------------------------
#psi4
#
memory 32 gb

molecule  {
0 1
  O       -1.2481010    -0.6526680     1.0325150
  O       -1.2449750     2.4828510    -0.6861630
  O       -3.2165300     1.5210990     0.7448870
  O       -2.3570290    -3.0668370     0.0949400
  O        1.3605300     2.2470340    -0.0765420
  N        0.8434040     0.0452230     0.2559430
  N        3.0572260     0.7205030    -0.2937270
  N        4.7164630    -0.8366550    -0.5722980
  C       -1.2805780     1.0553689    -0.5822436
  C       -2.7151710     0.6552070    -0.2573930
  C       -0.5254080     0.4815200     0.6000940
  C       -2.5031206    -0.7146915     0.3575017
  C       -2.5283440    -1.8503930    -0.6392900
  C        1.2197750    -1.2614080     0.3112740
  C        1.7555940     1.0674350    -0.0594030
  C        2.5111010    -1.6091400     0.0469950
  C        3.4119830    -0.5506530    -0.2589250
  H       -0.9376060     0.5914040    -1.5148910
  H       -3.3625820     0.6426650    -1.1464650
  H       -0.4402900     1.2218800     1.4039980
  H       -3.2819570    -0.9087340     1.1307830
  H       -1.7133080    -1.7003050    -1.3694640
  H       -3.4855610    -1.8340040    -1.1841350
  H       -0.2975250     2.7131790    -0.5250000
  H       -2.8475560     2.3997430     0.5086630
  H        0.4343110    -1.9634370     0.5690680
  H       -2.4338740    -3.7984320    -0.5432330
  H        2.8291120    -2.6453980     0.0739220
  H        5.1251800    -1.6708610    -0.1624140
  H        5.3198140    -0.0200540    -0.5682940
units angstrom
no_reorient  #important for SAPT in psi4, default
symmetry c1  #important for SAPT in psi4, default
}

set PROPERTIES_ORIGIN ["COM"]
properties('MP2/aug-cc-pvtz', properties = ['dipole'])
--------------------------------------------------------------------------

    Molecular point group: c1
  Charge       = 0
  Multiplicity = 1
  Basis Set: AUG-CC-PVTZ
    Blend: AUG-CC-PVTZ
  Basis Set: (AUG-CC-PVTZ AUX)
    Blend: AUG-CC-PVTZ-JKFIT

    Orbital Energies [Eh]
    ---------------------

    Doubly Occupied:

       1A    -20.584606     2A    -20.581974     3A    -20.557824
       4A    -20.555423     5A    -20.522338     6A    -15.637805
       7A    -15.600382     8A    -15.553925     9A    -11.388847
      10A    -11.358501    11A    -11.343249    12A    -11.329445
      13A    -11.300569    14A    -11.296622    15A    -11.296034
      16A    -11.293008    17A    -11.249355    18A     -1.435279
      19A     -1.398026    20A     -1.377394    21A     -1.372303
      22A     -1.341557    23A     -1.306850    24A     -1.275110
      25A     -1.183007    26A     -1.083729    27A     -1.068479
      28A     -1.024976    29A     -0.936377    30A     -0.910699
      31A     -0.877444    32A     -0.832019    33A     -0.812973
      34A     -0.767595    35A     -0.754075    36A     -0.734976
      37A     -0.721271    38A     -0.702201    39A     -0.697942
      40A     -0.686464    41A     -0.672263    42A     -0.655522
      43A     -0.651899    44A     -0.640149    45A     -0.620799
      46A     -0.615273    47A     -0.607268    48A     -0.593607
      49A     -0.576876    50A     -0.568431    51A     -0.552989
      52A     -0.545431    53A     -0.536792    54A     -0.532072
      55A     -0.497515    56A     -0.477253    57A     -0.472565
      58A     -0.461727    59A     -0.460207    60A     -0.454909
      61A     -0.443123    62A     -0.433558    63A     -0.396195
      64A     -0.351006

  @DF-RHF Final Energy:  -886.37156910108536

   => Energetics <=

    Nuclear Repulsion Energy =           1324.5520436080146283
    One-Electron Energy =               -3846.7110611331900145
    Two-Electron Energy =                1635.7874484240899164
    Total Energy =                       -886.3715691010854698
  Basis Set: (AUG-CC-PVTZ AUX)
    Blend: AUG-CC-PVTZ-RI
    Molecular point group: c1

    Geometry (in Angstrom), charge = 0, multiplicity = 1:

       Center              X                  Y                   Z               Mass
    ------------   -----------------  -----------------  -----------------  -----------------
         O           -1.249830864652    -0.651637903003     1.032205037558    15.994914619570
         O           -1.246704864652     2.483881096997    -0.686472962442    15.994914619570
         O           -3.218259864652     1.522129096997     0.744577037558    15.994914619570
         O           -2.358758864652    -3.065806903003     0.094630037558    15.994914619570
         O            1.358800135348     2.248064096997    -0.076851962442    15.994914619570
         N            0.841674135348     0.046253096997     0.255633037558    14.003074004430
         N            3.055496135348     0.721533096997    -0.294036962442    14.003074004430
         N            4.714733135348    -0.835624903003    -0.572607962442    14.003074004430
         C           -1.282307864652     1.056398996997    -0.582553562442    12.000000000000
         C           -2.716900864652     0.656237096997    -0.257702962442    12.000000000000
         C           -0.527137864652     0.482550096997     0.599784037558    12.000000000000
         C           -2.504850464652    -0.713661403003     0.357191737558    12.000000000000
         C           -2.530073864652    -1.849362903003    -0.639599962442    12.000000000000
         C            1.218045135348    -1.260377903003     0.310964037558    12.000000000000
         C            1.753864135348     1.068465096997    -0.059712962442    12.000000000000
         C            2.509371135348    -1.608109903003     0.046685037558    12.000000000000
         C            3.410253135348    -0.549622903003    -0.259234962442    12.000000000000
         H           -0.939335864652     0.592434096997    -1.515200962442     1.007825032230
         H           -3.364311864652     0.643695096997    -1.146774962442     1.007825032230
         H           -0.442019864652     1.222910096997     1.403688037558     1.007825032230
         H           -3.283686864652    -0.907703903003     1.130473037558     1.007825032230
         H           -1.715037864652    -1.699274903003    -1.369773962442     1.007825032230
         H           -3.487290864652    -1.832973903003    -1.184444962442     1.007825032230
         H           -0.299254864652     2.714209096997    -0.525309962442     1.007825032230
         H           -2.849285864652     2.400773096997     0.508353037558     1.007825032230
         H            0.432581135348    -1.962406903003     0.568758037558     1.007825032230
         H           -2.435603864652    -3.797401903003    -0.543542962442     1.007825032230
         H            2.827382135348    -2.644367903003     0.073612037558     1.007825032230
         H            5.123450135348    -1.669830903003    -0.162723962442     1.007825032230
         H            5.318084135348    -0.019023903003    -0.568603962442     1.007825032230

  Basis Set: AUG-CC-PVTZ
    Blend: AUG-CC-PVTZ
  Basis Set: (AUG-CC-PVTZ AUX)
    Blend: AUG-CC-PVTZ-JKFIT
	 Reference Energy          =    -886.3715691010853561 [Eh]
	 Singles Energy            =      -0.0000000000000000 [Eh]
	 Same-Spin Energy          =      -0.9015170617327095 [Eh]
	 Opposite-Spin Energy      =      -2.7154251482774185 [Eh]
	 Correlation Energy        =      -3.6169422100101283 [Eh]
	 Total Energy              =    -889.9885113110955217 [Eh]

	 ================> DF-SCS-MP2 Energies <==================
	-----------------------------------------------------------
	 SCS Same-Spin Scale       =       0.3333333333333333 [-]
	 SCS Opposite-Spin Scale   =       1.2000000000000000 [-]
	 SCS Same-Spin Energy      =      -0.3005056872442365 [Eh]
	 SCS Opposite-Spin Energy  =      -3.2585101779329020 [Eh]
	 SCS Correlation Energy    =      -3.5590158651771384 [Eh]
	 SCS Total Energy          =    -889.9305849662624723 [Eh]
	-----------------------------------------------------------

  Dipole Moment: [D]
     X:     1.8085      Y:    -5.9852      Z:    -1.8021     Total:     6.5070

*** Psi4 exiting successfully. Buy a developer a beer!
