                               Psi4 1.4a3.dev225

  ==> Input File <==

--------------------------------------------------------------------------
#psi4
#
memory 32 gb

molecule  {
0 1
  O       -1.3191770     0.6538360    -1.0992360
  O       -1.5735610    -2.4640850     0.5135810
  O       -3.5606630    -1.0699430    -0.4600060
  O       -1.4399290     3.1254620     0.1265180
  O        1.1065530    -2.3833650     0.0076020
  N        0.7686360    -0.1579440    -0.3706350
  N        2.9363770    -0.9938720     0.1460080
  N        4.7058880     0.4431110     0.3611260
  C       -1.3768610    -1.0680440     0.5552780
  C       -2.7379840    -0.3746360     0.4578480
  C       -0.6377490    -0.5042940    -0.6790150
  C       -2.3707440     0.9655450    -0.1585060
  C       -1.8992030     1.9895750     0.8571380
  C        1.2309690     1.1190800    -0.4442230
  C        1.6104480    -1.2470590    -0.0585760
  C        2.5474650     1.3753690    -0.1998620
  C        3.3802090     0.2523040     0.0808410
  H       -0.8441360    -0.7686950     1.4698480
  H       -3.2257400    -0.2778790     1.4400230
  H       -0.6224325    -1.2562915    -1.5031445
  H       -3.1941750     1.3785730    -0.7472070
  H       -1.0952130     1.5703990     1.4802000
  H       -2.7410530     2.2466610     1.5166010
  H       -0.6710550    -2.8260740     0.3542250
  H       -3.3063470    -2.0105220    -0.3629290
  H        0.4929290     1.8778260    -0.6840360
  H       -1.2098800     3.8154810     0.7720340
  H        2.9334840     2.3875570    -0.2389120
  H        5.1589650     1.2712730    -0.0008400
  H        5.2635310    -0.4031270     0.3606700
units angstrom
no_reorient  #important for SAPT in psi4, default
symmetry c1  #important for SAPT in psi4, default
}

set PROPERTIES_ORIGIN ["COM"]
properties('MP2/aug-cc-pvtz', properties = ['dipole'])
--------------------------------------------------------------------------

    Molecular point group: c1
  Charge       = 0
  Multiplicity = 1
  Basis Set: AUG-CC-PVTZ
    Blend: AUG-CC-PVTZ
  Basis Set: (AUG-CC-PVTZ AUX)
    Blend: AUG-CC-PVTZ-JKFIT

    Orbital Energies [Eh]
    ---------------------

    Doubly Occupied:

       1A    -20.586767     2A    -20.581598     3A    -20.559269
       4A    -20.556388     5A    -20.519663     6A    -15.633107
       7A    -15.599664     8A    -15.551746     9A    -11.385916
      10A    -11.358057    11A    -11.341689    12A    -11.325138
      13A    -11.303611    14A    -11.298005    15A    -11.297106
      16A    -11.293538    17A    -11.246583    18A     -1.429227
      19A     -1.394073    20A     -1.383027    21A     -1.375505
      22A     -1.346475    23A     -1.303644    24A     -1.271331
      25A     -1.181163    26A     -1.079147    27A     -1.068102
      28A     -1.016872    29A     -0.936029    30A     -0.906679
      31A     -0.876806    32A     -0.828879    33A     -0.812395
      34A     -0.766363    35A     -0.750319    36A     -0.734133
      37A     -0.722016    38A     -0.707972    39A     -0.703271
      40A     -0.684968    41A     -0.674865    42A     -0.652615
      43A     -0.648977    44A     -0.633275    45A     -0.620248
      46A     -0.614979    47A     -0.607749    48A     -0.593098
      49A     -0.577065    50A     -0.564466    51A     -0.555805
      52A     -0.547850    53A     -0.536665    54A     -0.530398
      55A     -0.495601    56A     -0.480787    57A     -0.473746
      58A     -0.463218    59A     -0.457857    60A     -0.452978
      61A     -0.441834    62A     -0.430183    63A     -0.392110
      64A     -0.348189

  @DF-RHF Final Energy:  -886.37347087794205

   => Energetics <=

    Nuclear Repulsion Energy =           1334.4422329331375749
    One-Electron Energy =               -3866.6098104043880994
    Two-Electron Energy =                1645.7941065933082427
    Total Energy =                       -886.3734708779420544
  Basis Set: (AUG-CC-PVTZ AUX)
    Blend: AUG-CC-PVTZ-RI
    Molecular point group: c1

    Geometry (in Angstrom), charge = 0, multiplicity = 1:

       Center              X                  Y                   Z               Mass
    ------------   -----------------  -----------------  -----------------  -----------------
         O           -1.331921792865     0.682503352336    -1.083394542766    15.994914619570
         O           -1.586305792865    -2.435417647664     0.529422457234    15.994914619570
         O           -3.573407792865    -1.041275647664    -0.444164542766    15.994914619570
         O           -1.452673792865     3.154129352336     0.142359457234    15.994914619570
         O            1.093808207135    -2.354697647664     0.023443457234    15.994914619570
         N            0.755891207135    -0.129276647664    -0.354793542766    14.003074004430
         N            2.923632207135    -0.965204647664     0.161849457234    14.003074004430
         N            4.693143207135     0.471778352336     0.376967457234    14.003074004430
         C           -1.389605792865    -1.039376647664     0.571119457234    12.000000000000
         C           -2.750728792865    -0.345968647664     0.473689457234    12.000000000000
         C           -0.650493792865    -0.475626647664    -0.663173542766    12.000000000000
         C           -2.383488792865     0.994212352336    -0.142664542766    12.000000000000
         C           -1.911947792865     2.018242352336     0.872979457234    12.000000000000
         C            1.218224207135     1.147747352336    -0.428381542766    12.000000000000
         C            1.597703207135    -1.218391647664    -0.042734542766    12.000000000000
         C            2.534720207135     1.404036352336    -0.184020542766    12.000000000000
         C            3.367464207135     0.280971352336     0.096682457234    12.000000000000
         H           -0.856880792865    -0.740027647664     1.485689457234     1.007825032230
         H           -3.238484792865    -0.249211647664     1.455864457234     1.007825032230
         H           -0.635177292865    -1.227624147664    -1.487303042766     1.007825032230
         H           -3.206919792865     1.407240352336    -0.731365542766     1.007825032230
         H           -1.107957792865     1.599066352336     1.496041457234     1.007825032230
         H           -2.753797792865     2.275328352336     1.532442457234     1.007825032230
         H           -0.683799792865    -2.797406647664     0.370066457234     1.007825032230
         H           -3.319091792865    -1.981854647664    -0.347087542766     1.007825032230
         H            0.480184207135     1.906493352336    -0.668194542766     1.007825032230
         H           -1.222624792865     3.844148352336     0.787875457234     1.007825032230
         H            2.920739207135     2.416224352336    -0.223070542766     1.007825032230
         H            5.146220207135     1.299940352336     0.015001457234     1.007825032230
         H            5.250786207135    -0.374459647664     0.376511457234     1.007825032230

  Basis Set: AUG-CC-PVTZ
    Blend: AUG-CC-PVTZ
  Basis Set: (AUG-CC-PVTZ AUX)
    Blend: AUG-CC-PVTZ-JKFIT
	 Reference Energy          =    -886.3734708779420544 [Eh]
	 Singles Energy            =      -0.0000000000000000 [Eh]
	 Same-Spin Energy          =      -0.9019047468575542 [Eh]
	 Opposite-Spin Energy      =      -2.7161444422632570 [Eh]
	 Correlation Energy        =      -3.6180491891208111 [Eh]
	 Total Energy              =    -889.9915200670628792 [Eh]

	 ================> DF-SCS-MP2 Energies <==================
	-----------------------------------------------------------
	 SCS Same-Spin Scale       =       0.3333333333333333 [-]
	 SCS Opposite-Spin Scale   =       1.2000000000000000 [-]
	 SCS Same-Spin Energy      =      -0.3006349156191847 [Eh]
	 SCS Opposite-Spin Energy  =      -3.2593733307159085 [Eh]
	 SCS Correlation Energy    =      -3.5600082463350931 [Eh]
	 SCS Total Energy          =    -889.9334791242771416 [Eh]
	-----------------------------------------------------------

  Dipole Moment: [D]
     X:     2.7353      Y:     5.8039      Z:     1.9495     Total:     6.7058

*** Psi4 exiting successfully. Buy a developer a beer!
