                               Psi4 1.3.2 release

  ==> Input File <==

--------------------------------------------------------------------------
#psi4
#
memory 32 gb

molecule  {
0 1
  O       -1.2481010    -0.6526680     1.0325150
  O       -1.2449750     2.4828510    -0.6861630
  O       -3.2165300     1.5210990     0.7448870
  O       -2.3570290    -3.0668370     0.0949400
  O        1.3605300     2.2470340    -0.0765420
  N        0.8434040     0.0452230     0.2559430
  N        2.9929952     0.7011541    -0.2770777
  N        4.7164630    -0.8366550    -0.5722980
  C       -1.2894840     1.0784300    -0.5920770
  C       -2.7151710     0.6552070    -0.2573930
  C       -0.5254080     0.4815200     0.6000940
  C       -2.5292560    -0.7168860     0.3610560
  C       -2.5283440    -1.8503930    -0.6392900
  C        1.2197750    -1.2614080     0.3112740
  C        1.7555940     1.0674350    -0.0594030
  C        2.4571523    -1.5583424     0.0548115
  C        3.4119830    -0.5506530    -0.2589250
  H       -0.9376060     0.5914040    -1.5148910
  H       -3.3625820     0.6426650    -1.1464650
  H       -0.4402900     1.2218800     1.4039980
  H       -3.2819570    -0.9087340     1.1307830
  H       -1.7133080    -1.7003050    -1.3694640
  H       -3.4855610    -1.8340040    -1.1841350
  H       -0.2975250     2.7131790    -0.5250000
  H       -2.8475560     2.3997430     0.5086630
  H        0.4343110    -1.9634370     0.5690680
  H       -2.4338740    -3.7984320    -0.5432330
  H        2.8291120    -2.6453980     0.0739220
  H        5.1251800    -1.6708610    -0.1624140
  H        5.3198140    -0.0200540    -0.5682940
units angstrom
no_reorient  #important for SAPT in psi4, default
symmetry c1  #important for SAPT in psi4, default
}

set PROPERTIES_ORIGIN ["COM"]
properties('MP2/aug-cc-pvtz', properties = ['dipole'])
--------------------------------------------------------------------------

    Molecular point group: c1
  Charge       = 0
  Multiplicity = 1
  Basis Set: AUG-CC-PVTZ
    Blend: AUG-CC-PVTZ
  Basis Set: (AUG-CC-PVTZ AUX)
    Blend: AUG-CC-PVTZ-JKFIT

    Orbital Energies [Eh]
    ---------------------

    Doubly Occupied:

       1A    -20.580710     2A    -20.578233     3A    -20.555452
       4A    -20.553969     5A    -20.513807     6A    -15.627461
       7A    -15.610957     8A    -15.547047     9A    -11.379252
      10A    -11.366504    11A    -11.336576    12A    -11.315516
      13A    -11.299350    14A    -11.294475    15A    -11.293284
      16A    -11.290368    17A    -11.247440    18A     -1.426443
      19A     -1.395875    20A     -1.377743    21A     -1.370636
      22A     -1.343764    23A     -1.309361    24A     -1.272969
      25A     -1.196100    26A     -1.092435    27A     -1.065139
      28A     -1.019499    29A     -0.937826    30A     -0.904430
      31A     -0.885063    32A     -0.831578    33A     -0.810337
      34A     -0.774424    35A     -0.750315    36A     -0.732722
      37A     -0.726077    38A     -0.701843    39A     -0.695856
      40A     -0.689952    41A     -0.671116    42A     -0.655113
      43A     -0.645576    44A     -0.634407    45A     -0.626790
      46A     -0.613797    47A     -0.608451    48A     -0.584836
      49A     -0.574340    50A     -0.568541    51A     -0.552223
      52A     -0.543656    53A     -0.535333    54A     -0.530310
      55A     -0.499650    56A     -0.475527    57A     -0.472145
      58A     -0.458984    59A     -0.452885    60A     -0.449949
      61A     -0.438624    62A     -0.426607    63A     -0.398415
      64A     -0.354748

  @DF-RHF Final Energy:  -886.36343867404912

   => Energetics <=

    Nuclear Repulsion Energy =           1327.4229535460913212
    One-Electron Energy =               -3852.6271538348532886
    Two-Electron Energy =                1638.8407616147128465
    Total Energy =                       -886.3634386740491209
  Basis Set: (AUG-CC-PVTZ AUX)
    Blend: AUG-CC-PVTZ-RI
    Molecular point group: c1

    Geometry (in Angstrom), charge = 0, multiplicity = 1:

       Center              X                  Y                   Z               Mass
    ------------   -----------------  -----------------  -----------------  -----------------
         O           -1.241737787609    -0.654061026849     1.031170051272    15.994914619570
         O           -1.238611787609     2.481457973151    -0.687507948728    15.994914619570
         O           -3.210166787609     1.519705973151     0.743542051272    15.994914619570
         O           -2.350665787609    -3.068230026849     0.093595051272    15.994914619570
         O            1.366893212391     2.245640973151    -0.077886948728    15.994914619570
         N            0.849767212391     0.043829973151     0.254598051272    14.003074004430
         N            2.999358412391     0.699761073151    -0.278422648728    14.003074004430
         N            4.722826212391    -0.838048026849    -0.573642948728    14.003074004430
         C           -1.283120787609     1.077036973151    -0.593421948728    12.000000000000
         C           -2.708807787609     0.653813973151    -0.258737948728    12.000000000000
         C           -0.519044787609     0.480126973151     0.598749051272    12.000000000000
         C           -2.522892787609    -0.718279026849     0.359711051272    12.000000000000
         C           -2.521980787609    -1.851786026849    -0.640634948728    12.000000000000
         C            1.226138212391    -1.262801026849     0.309929051272    12.000000000000
         C            1.761957212391     1.066041973151    -0.060747948728    12.000000000000
         C            2.463515512391    -1.559735426849     0.053466551272    12.000000000000
         C            3.418346212391    -0.552046026849    -0.260269948728    12.000000000000
         H           -0.931242787609     0.590010973151    -1.516235948728     1.007825032230
         H           -3.356218787609     0.641271973151    -1.147809948728     1.007825032230
         H           -0.433926787609     1.220486973151     1.402653051272     1.007825032230
         H           -3.275593787609    -0.910127026849     1.129438051272     1.007825032230
         H           -1.706944787609    -1.701698026849    -1.370808948728     1.007825032230
         H           -3.479197787609    -1.835397026849    -1.185479948728     1.007825032230
         H           -0.291161787609     2.711785973151    -0.526344948728     1.007825032230
         H           -2.841192787609     2.398349973151     0.507318051272     1.007825032230
         H            0.440674212391    -1.964830026849     0.567723051272     1.007825032230
         H           -2.427510787609    -3.799825026849    -0.544577948728     1.007825032230
         H            2.835475212391    -2.646791026849     0.072577051272     1.007825032230
         H            5.131543212391    -1.672254026849    -0.163758948728     1.007825032230
         H            5.326177212391    -0.021447026849    -0.569638948728     1.007825032230

  Basis Set: AUG-CC-PVTZ
    Blend: AUG-CC-PVTZ
  Basis Set: (AUG-CC-PVTZ AUX)
    Blend: AUG-CC-PVTZ-JKFIT
	 Reference Energy          =    -886.3634386740491209 [Eh]
	 Singles Energy            =      -0.0000000000000000 [Eh]
	 Same-Spin Energy          =      -0.9014790478406716 [Eh]
	 Opposite-Spin Energy      =      -2.7138729645169737 [Eh]
	 Correlation Energy        =      -3.6153520123576453 [Eh]
	 Total Energy              =    -889.9787906864067963 [Eh]

	 ================> DF-SCS-MP2 Energies <==================
	-----------------------------------------------------------
	 SCS Same-Spin Scale       =       0.3333333333333333 [-]
	 SCS Opposite-Spin Scale   =       1.2000000000000000 [-]
	 SCS Same-Spin Energy      =      -0.3004930159468905 [Eh]
	 SCS Opposite-Spin Energy  =      -3.2566475574203682 [Eh]
	 SCS Correlation Energy    =      -3.5571405733672585 [Eh]
	 SCS Total Energy          =    -889.9205792474164127 [Eh]
	-----------------------------------------------------------

  Dipole Moment: [D]
     X:     2.2197      Y:    -6.0861      Z:    -1.8976     Total:     6.7505

*** Psi4 exiting successfully. Buy a developer a beer!
