                               Psi4 1.4a3.dev225

  ==> Input File <==

--------------------------------------------------------------------------
#psi4
#
memory 32 gb

molecule  {
0 1
  O       -1.3191770     0.6538360    -1.0992360
  O       -1.5735610    -2.4640850     0.5135810
  O       -3.5606630    -1.0699430    -0.4600060
  O       -1.4399290     3.1254620     0.1265180
  O        1.1065530    -2.3833650     0.0076020
  N        0.7686360    -0.1579440    -0.3706350
  N        2.9363770    -0.9938720     0.1460080
  N        4.7058880     0.4431110     0.3611260
  C       -1.3768610    -1.0680440     0.5552780
  C       -2.7379840    -0.3746360     0.4578480
  C       -0.6377490    -0.5042940    -0.6790150
  C       -2.3343568     0.9547590    -0.1910580
  C       -1.8992030     1.9895750     0.8571380
  C        1.2309690     1.1190800    -0.4442230
  C        1.6104480    -1.2470590    -0.0585760
  C        2.5474650     1.3753690    -0.1998620
  C        3.3802090     0.2523040     0.0808410
  H       -0.8441360    -0.7686950     1.4698480
  H       -3.2257400    -0.2778790     1.4400230
  H       -0.6227070    -1.2428120    -1.4883720
  H       -3.1941750     1.3785730    -0.7472070
  H       -1.0952130     1.5703990     1.4802000
  H       -2.7410530     2.2466610     1.5166010
  H       -0.6710550    -2.8260740     0.3542250
  H       -3.3063470    -2.0105220    -0.3629290
  H        0.4929290     1.8778260    -0.6840360
  H       -1.2098800     3.8154810     0.7720340
  H        2.9334840     2.3875570    -0.2389120
  H        5.1589650     1.2712730    -0.0008400
  H        5.2635310    -0.4031270     0.3606700
units angstrom
no_reorient  #important for SAPT in psi4, default
symmetry c1  #important for SAPT in psi4, default
}

set PROPERTIES_ORIGIN ["COM"]
properties('MP2/aug-cc-pvtz', properties = ['dipole'])
--------------------------------------------------------------------------

    Molecular point group: c1
  Charge       = 0
  Multiplicity = 1
  Basis Set: AUG-CC-PVTZ
    Blend: AUG-CC-PVTZ
  Basis Set: (AUG-CC-PVTZ AUX)
    Blend: AUG-CC-PVTZ-JKFIT

    Orbital Energies [Eh]
    ---------------------

    Doubly Occupied:

       1A    -20.586674     2A    -20.584821     3A    -20.559415
       4A    -20.555415     5A    -20.520668     6A    -15.634518
       7A    -15.600377     8A    -15.552654     9A    -11.387054
      10A    -11.358943    11A    -11.342496    12A    -11.326301
      13A    -11.301170    14A    -11.296825    15A    -11.296750
      16A    -11.291951    17A    -11.247549    18A     -1.441771
      19A     -1.396500    20A     -1.381855    21A     -1.377291
      22A     -1.346041    23A     -1.304944    24A     -1.273382
      25A     -1.182302    26A     -1.080984    27A     -1.062586
      28A     -1.018557    29A     -0.935458    30A     -0.908496
      31A     -0.876402    32A     -0.830391    33A     -0.813708
      34A     -0.767525    35A     -0.752702    36A     -0.735355
      37A     -0.723024    38A     -0.706888    39A     -0.704025
      40A     -0.686130    41A     -0.674874    42A     -0.653932
      43A     -0.650740    44A     -0.635497    45A     -0.623094
      46A     -0.616241    47A     -0.610336    48A     -0.593461
      49A     -0.578610    50A     -0.566770    51A     -0.556780
      52A     -0.546073    53A     -0.538998    54A     -0.531068
      55A     -0.495534    56A     -0.479668    57A     -0.468084
      58A     -0.462567    59A     -0.458814    60A     -0.451669
      61A     -0.441221    62A     -0.430665    63A     -0.393074
      64A     -0.349234

  @DF-RHF Final Energy:  -886.37293098150406

   => Energetics <=

    Nuclear Repulsion Energy =           1335.3821339955829899
    One-Electron Energy =               -3868.3963283461639548
    Two-Electron Energy =                1646.6412633690770235
    Total Energy =                       -886.3729309815039414
  Basis Set: (AUG-CC-PVTZ AUX)
    Blend: AUG-CC-PVTZ-RI
    Molecular point group: c1

    Geometry (in Angstrom), charge = 0, multiplicity = 1:

       Center              X                  Y                   Z               Mass
    ------------   -----------------  -----------------  -----------------  -----------------
         O           -1.333716921391     0.682979921332    -1.081848848461    15.994914619570
         O           -1.588100921391    -2.434941078668     0.530968151539    15.994914619570
         O           -3.575202921391    -1.040799078668    -0.442618848461    15.994914619570
         O           -1.454468921391     3.154605921332     0.143905151539    15.994914619570
         O            1.092013078609    -2.354221078668     0.024989151539    15.994914619570
         N            0.754096078609    -0.128800078668    -0.353247848461    14.003074004430
         N            2.921837078609    -0.964728078668     0.163395151539    14.003074004430
         N            4.691348078609     0.472254921332     0.378513151539    14.003074004430
         C           -1.391400921391    -1.038900078668     0.572665151539    12.000000000000
         C           -2.752523921391    -0.345492078668     0.475235151539    12.000000000000
         C           -0.652288921391    -0.475150078668    -0.661627848461    12.000000000000
         C           -2.348896721391     0.983902921332    -0.173670848461    12.000000000000
         C           -1.913742921391     2.018718921332     0.874525151539    12.000000000000
         C            1.216429078609     1.148223921332    -0.426835848461    12.000000000000
         C            1.595908078609    -1.217915078668    -0.041188848461    12.000000000000
         C            2.532925078609     1.404512921332    -0.182474848461    12.000000000000
         C            3.365669078609     0.281447921332     0.098228151539    12.000000000000
         H           -0.858675921391    -0.739551078668     1.487235151539     1.007825032230
         H           -3.240279921391    -0.248735078668     1.457410151539     1.007825032230
         H           -0.637246921391    -1.213668078668    -1.470984848461     1.007825032230
         H           -3.208714921391     1.407716921332    -0.729819848461     1.007825032230
         H           -1.109752921391     1.599542921332     1.497587151539     1.007825032230
         H           -2.755592921391     2.275804921332     1.533988151539     1.007825032230
         H           -0.685594921391    -2.796930078668     0.371612151539     1.007825032230
         H           -3.320886921391    -1.981378078668    -0.345541848461     1.007825032230
         H            0.478389078609     1.906969921332    -0.666648848461     1.007825032230
         H           -1.224419921391     3.844624921332     0.789421151539     1.007825032230
         H            2.918944078609     2.416700921332    -0.221524848461     1.007825032230
         H            5.144425078609     1.300416921332     0.016547151539     1.007825032230
         H            5.248991078609    -0.373983078668     0.378057151539     1.007825032230

  Basis Set: AUG-CC-PVTZ
    Blend: AUG-CC-PVTZ
  Basis Set: (AUG-CC-PVTZ AUX)
    Blend: AUG-CC-PVTZ-JKFIT
	 Reference Energy          =    -886.3729309815040551 [Eh]
	 Singles Energy            =      -0.0000000000000000 [Eh]
	 Same-Spin Energy          =      -0.9017376696190968 [Eh]
	 Opposite-Spin Energy      =      -2.7154225794067153 [Eh]
	 Correlation Energy        =      -3.6171602490258121 [Eh]
	 Total Energy              =    -889.9900912305298561 [Eh]

	 ================> DF-SCS-MP2 Energies <==================
	-----------------------------------------------------------
	 SCS Same-Spin Scale       =       0.3333333333333333 [-]
	 SCS Opposite-Spin Scale   =       1.2000000000000000 [-]
	 SCS Same-Spin Energy      =      -0.3005792232063656 [Eh]
	 SCS Opposite-Spin Energy  =      -3.2585070952880582 [Eh]
	 SCS Correlation Energy    =      -3.5590863184944239 [Eh]
	 SCS Total Energy          =    -889.9320172999985061 [Eh]
	-----------------------------------------------------------

  Dipole Moment: [D]
     X:     2.8967      Y:     5.7190      Z:     1.8613     Total:     6.6755

*** Psi4 exiting successfully. Buy a developer a beer!
