                               Psi4 1.3.2 release

  ==> Input File <==

--------------------------------------------------------------------------
#psi4
#
memory 32 gb

molecule  {
0 1
  O       -1.2564355    -0.6506687     1.0236541
  O       -1.2449750     2.4828510    -0.6861630
  O       -3.2165300     1.5210990     0.7448870
  O       -2.3570290    -3.0668370     0.0949400
  O        1.3605300     2.2470340    -0.0765420
  N        0.8434040     0.0452230     0.2559430
  N        3.0572260     0.7205030    -0.2937270
  N        4.7164630    -0.8366550    -0.5722980
  C       -1.2986929     1.0687476    -0.5909473
  C       -2.7151710     0.6552070    -0.2573930
  C       -0.5254080     0.4815200     0.6000940
  C       -2.5292560    -0.7168860     0.3610560
  C       -2.5283440    -1.8503930    -0.6392900
  C        1.2197750    -1.2614080     0.3112740
  C        1.7555940     1.0674350    -0.0594030
  C        2.5111010    -1.6091400     0.0469950
  C        3.4119830    -0.5506530    -0.2589250
  H       -0.9376060     0.5914040    -1.5148910
  H       -3.3625820     0.6426650    -1.1464650
  H       -0.4402900     1.2218800     1.4039980
  H       -3.2819570    -0.9087340     1.1307830
  H       -1.7133080    -1.7003050    -1.3694640
  H       -3.4855610    -1.8340040    -1.1841350
  H       -0.2975250     2.7131790    -0.5250000
  H       -2.8475560     2.3997430     0.5086630
  H        0.4343110    -1.9634370     0.5690680
  H       -2.4338740    -3.7984320    -0.5432330
  H        2.8291120    -2.6453980     0.0739220
  H        5.1251800    -1.6708610    -0.1624140
  H        5.3198140    -0.0200540    -0.5682940
units angstrom
no_reorient  #important for SAPT in psi4, default
symmetry c1  #important for SAPT in psi4, default
}

set PROPERTIES_ORIGIN ["COM"]
properties('MP2/aug-cc-pvtz', properties = ['dipole'])
--------------------------------------------------------------------------

    Molecular point group: c1
  Charge       = 0
  Multiplicity = 1
  Basis Set: AUG-CC-PVTZ
    Blend: AUG-CC-PVTZ
  Basis Set: (AUG-CC-PVTZ AUX)
    Blend: AUG-CC-PVTZ-JKFIT

    Orbital Energies [Eh]
    ---------------------

    Doubly Occupied:

       1A    -20.582085     2A    -20.581306     3A    -20.557744
       4A    -20.555875     5A    -20.522076     6A    -15.637572
       7A    -15.600125     8A    -15.553645     9A    -11.388570
      10A    -11.358192    11A    -11.342349    12A    -11.329031
      13A    -11.300647    14A    -11.296316    15A    -11.296032
      16A    -11.292295    17A    -11.248977    18A     -1.431436
      19A     -1.397141    20A     -1.378761    21A     -1.372399
      22A     -1.344014    23A     -1.306442    24A     -1.274443
      25A     -1.182604    26A     -1.082511    27A     -1.068266
      28A     -1.022878    29A     -0.936146    30A     -0.910109
      31A     -0.877452    32A     -0.832532    33A     -0.812233
      34A     -0.767263    35A     -0.752991    36A     -0.735906
      37A     -0.720648    38A     -0.702698    39A     -0.698542
      40A     -0.686030    41A     -0.672989    42A     -0.655065
      43A     -0.651755    44A     -0.638623    45A     -0.620485
      46A     -0.614517    47A     -0.607238    48A     -0.593531
      49A     -0.576089    50A     -0.570851    51A     -0.552699
      52A     -0.545281    53A     -0.536452    54A     -0.532062
      55A     -0.498215    56A     -0.477368    57A     -0.475023
      58A     -0.461951    59A     -0.459999    60A     -0.453110
      61A     -0.441118    62A     -0.433254    63A     -0.395529
      64A     -0.350407

  @DF-RHF Final Energy:  -886.37352661859995

   => Energetics <=

    Nuclear Repulsion Energy =           1324.0200874895424477
    One-Electron Energy =               -3845.6874343241124734
    Two-Electron Energy =                1635.2938202159698449
    Total Energy =                       -886.3735266185999535
  Basis Set: (AUG-CC-PVTZ AUX)
    Blend: AUG-CC-PVTZ-RI
    Molecular point group: c1

    Geometry (in Angstrom), charge = 0, multiplicity = 1:

       Center              X                  Y                   Z               Mass
    ------------   -----------------  -----------------  -----------------  -----------------
         O           -1.255432527195    -0.650322267882     1.024181382568    15.994914619570
         O           -1.243972027195     2.483197432118    -0.685635717432    15.994914619570
         O           -3.215527027195     1.521445432118     0.745414282568    15.994914619570
         O           -2.356026027195    -3.066490567882     0.095467282568    15.994914619570
         O            1.361532972805     2.247380432118    -0.076014717432    15.994914619570
         N            0.844406972805     0.045569432118     0.256470282568    14.003074004430
         N            3.058228972805     0.720849432118    -0.293199717432    14.003074004430
         N            4.717465972805    -0.836308567882    -0.571770717432    14.003074004430
         C           -1.297689927195     1.069094032118    -0.590420017432    12.000000000000
         C           -2.714168027195     0.655553432118    -0.256865717432    12.000000000000
         C           -0.524405027195     0.481866432118     0.600621282568    12.000000000000
         C           -2.528253027195    -0.716539567882     0.361583282568    12.000000000000
         C           -2.527341027195    -1.850046567882    -0.638762717432    12.000000000000
         C            1.220777972805    -1.261061567882     0.311801282568    12.000000000000
         C            1.756596972805     1.067781432118    -0.058875717432    12.000000000000
         C            2.512103972805    -1.608793567882     0.047522282568    12.000000000000
         C            3.412985972805    -0.550306567882    -0.258397717432    12.000000000000
         H           -0.936603027195     0.591750432118    -1.514363717432     1.007825032230
         H           -3.361579027195     0.643011432118    -1.145937717432     1.007825032230
         H           -0.439287027195     1.222226432118     1.404525282568     1.007825032230
         H           -3.280954027195    -0.908387567882     1.131310282568     1.007825032230
         H           -1.712305027195    -1.699958567882    -1.368936717432     1.007825032230
         H           -3.484558027195    -1.833657567882    -1.183607717432     1.007825032230
         H           -0.296522027195     2.713525432118    -0.524472717432     1.007825032230
         H           -2.846553027195     2.400089432118     0.509190282568     1.007825032230
         H            0.435313972805    -1.963090567882     0.569595282568     1.007825032230
         H           -2.432871027195    -3.798085567882    -0.542705717432     1.007825032230
         H            2.830114972805    -2.645051567882     0.074449282568     1.007825032230
         H            5.126182972805    -1.670514567882    -0.161886717432     1.007825032230
         H            5.320816972805    -0.019707567882    -0.567766717432     1.007825032230

  Basis Set: AUG-CC-PVTZ
    Blend: AUG-CC-PVTZ
  Basis Set: (AUG-CC-PVTZ AUX)
    Blend: AUG-CC-PVTZ-JKFIT
	 Reference Energy          =    -886.3735266185999535 [Eh]
	 Singles Energy            =      -0.0000000000000000 [Eh]
	 Same-Spin Energy          =      -0.9011852162118432 [Eh]
	 Opposite-Spin Energy      =      -2.7147574693784660 [Eh]
	 Correlation Energy        =      -3.6159426855903094 [Eh]
	 Total Energy              =    -889.9894693041902656 [Eh]

	 ================> DF-SCS-MP2 Energies <==================
	-----------------------------------------------------------
	 SCS Same-Spin Scale       =       0.3333333333333333 [-]
	 SCS Opposite-Spin Scale   =       1.2000000000000000 [-]
	 SCS Same-Spin Energy      =      -0.3003950720706144 [Eh]
	 SCS Opposite-Spin Energy  =      -3.2577089632541592 [Eh]
	 SCS Correlation Energy    =      -3.5581040353247735 [Eh]
	 SCS Total Energy          =    -889.9316306539246852 [Eh]
	-----------------------------------------------------------

  Dipole Moment: [D]
     X:     1.7546      Y:    -5.9814      Z:    -1.7966     Total:     6.4871

*** Psi4 exiting successfully. Buy a developer a beer!
