                               Psi4 1.3.2 release

  ==> Input File <==

--------------------------------------------------------------------------
#psi4
#
memory 32 gb

molecule  {
0 1
  O       -1.2481010    -0.6526680     1.0325150
  O       -1.2449750     2.4828510    -0.6861630
  O       -3.2165300     1.5210990     0.7448870
  O       -2.3570290    -3.0668370     0.0949400
  O        1.3605300     2.2470340    -0.0765420
  N        0.8434040     0.0452230     0.2559430
  N        3.0572260     0.7205030    -0.2937270
  N        4.7164630    -0.8366550    -0.5722980
  C       -1.2894840     1.0784300    -0.5920770
  C       -2.7151710     0.6552070    -0.2573930
  C       -0.5254080     0.4815200     0.6000940
  C       -2.5292560    -0.7168860     0.3610560
  C       -2.5476103    -1.8621571    -0.6256295
  C        1.2197750    -1.2614080     0.3112740
  C        1.7555940     1.0674350    -0.0594030
  C        2.5111010    -1.6091400     0.0469950
  C        3.4119830    -0.5506530    -0.2589250
  H       -0.9376060     0.5914040    -1.5148910
  H       -3.3625820     0.6426650    -1.1464650
  H       -0.4402900     1.2218800     1.4039980
  H       -3.2864949    -0.9250786     1.1220351
  H       -1.7133080    -1.7003050    -1.3694640
  H       -3.4855610    -1.8340040    -1.1841350
  H       -0.2975250     2.7131790    -0.5250000
  H       -2.8475560     2.3997430     0.5086630
  H        0.4343110    -1.9634370     0.5690680
  H       -2.4338740    -3.7984320    -0.5432330
  H        2.8291120    -2.6453980     0.0739220
  H        5.1251800    -1.6708610    -0.1624140
  H        5.3198140    -0.0200540    -0.5682940
units angstrom
no_reorient  #important for SAPT in psi4, default
symmetry c1  #important for SAPT in psi4, default
}

set PROPERTIES_ORIGIN ["COM"]
properties('MP2/aug-cc-pvtz', properties = ['dipole'])
--------------------------------------------------------------------------

    Molecular point group: c1
  Charge       = 0
  Multiplicity = 1
  Basis Set: AUG-CC-PVTZ
    Blend: AUG-CC-PVTZ
  Basis Set: (AUG-CC-PVTZ AUX)
    Blend: AUG-CC-PVTZ-JKFIT

    Orbital Energies [Eh]
    ---------------------

    Doubly Occupied:

       1A    -20.583813     2A    -20.581967     3A    -20.557629
       4A    -20.557041     5A    -20.521855     6A    -15.636791
       7A    -15.599742     8A    -15.553211     9A    -11.388134
      10A    -11.357729    11A    -11.341542    12A    -11.328400
      13A    -11.301588    14A    -11.296727    15A    -11.296418
      16A    -11.293182    17A    -11.248408    18A     -1.429372
      19A     -1.396615    20A     -1.382546    21A     -1.375749
      22A     -1.346119    23A     -1.305932    24A     -1.273669
      25A     -1.182123    26A     -1.081830    27A     -1.067230
      28A     -1.021381    29A     -0.935160    30A     -0.909089
      31A     -0.876791    32A     -0.831894    33A     -0.811467
      34A     -0.766837    35A     -0.752402    36A     -0.736427
      37A     -0.720767    38A     -0.706229    39A     -0.698720
      40A     -0.685377    41A     -0.672098    42A     -0.654243
      43A     -0.651691    44A     -0.638546    45A     -0.620599
      46A     -0.615452    47A     -0.606534    48A     -0.593927
      49A     -0.576757    50A     -0.570293    51A     -0.554664
      52A     -0.545814    53A     -0.537574    54A     -0.531159
      55A     -0.497865    56A     -0.476109    57A     -0.474731
      58A     -0.461148    59A     -0.459194    60A     -0.451819
      61A     -0.440651    62A     -0.432897    63A     -0.395084
      64A     -0.349867

  @DF-RHF Final Energy:  -886.37285928552910

   => Energetics <=

    Nuclear Repulsion Energy =           1323.5732419327448497
    One-Electron Energy =               -3844.7989727580797990
    Two-Electron Energy =                1634.8528715398056192
    Total Energy =                       -886.3728592855291026
  Basis Set: (AUG-CC-PVTZ AUX)
    Blend: AUG-CC-PVTZ-RI
    Molecular point group: c1

    Geometry (in Angstrom), charge = 0, multiplicity = 1:

       Center              X                  Y                   Z               Mass
    ------------   -----------------  -----------------  -----------------  -----------------
         O           -1.247131132444    -0.652019486830     1.031876920740    15.994914619570
         O           -1.244005132444     2.483499513170    -0.686801079260    15.994914619570
         O           -3.215560132444     1.521747513170     0.744248920740    15.994914619570
         O           -2.356059132444    -3.066188486830     0.094301920740    15.994914619570
         O            1.361499867556     2.247682513170    -0.077180079260    15.994914619570
         N            0.844373867556     0.045871513170     0.255304920740    14.003074004430
         N            3.058195867556     0.721151513170    -0.294365079260    14.003074004430
         N            4.717432867556    -0.836006486830    -0.572936079260    14.003074004430
         C           -1.288514132444     1.079078513170    -0.592715079260    12.000000000000
         C           -2.714201132444     0.655855513170    -0.258031079260    12.000000000000
         C           -0.524438132444     0.482168513170     0.599455920740    12.000000000000
         C           -2.528286132444    -0.716237486830     0.360417920740    12.000000000000
         C           -2.546640432444    -1.861508586830    -0.626267579260    12.000000000000
         C            1.220744867556    -1.260759486830     0.310635920740    12.000000000000
         C            1.756563867556     1.068083513170    -0.060041079260    12.000000000000
         C            2.512070867556    -1.608491486830     0.046356920740    12.000000000000
         C            3.412952867556    -0.550004486830    -0.259563079260    12.000000000000
         H           -0.936636132444     0.592052513170    -1.515529079260     1.007825032230
         H           -3.361612132444     0.643313513170    -1.147103079260     1.007825032230
         H           -0.439320132444     1.222528513170     1.403359920740     1.007825032230
         H           -3.285525032444    -0.924430086830     1.121397020740     1.007825032230
         H           -1.712338132444    -1.699656486830    -1.370102079260     1.007825032230
         H           -3.484591132444    -1.833355486830    -1.184773079260     1.007825032230
         H           -0.296555132444     2.713827513170    -0.525638079260     1.007825032230
         H           -2.846586132444     2.400391513170     0.508024920740     1.007825032230
         H            0.435280867556    -1.962788486830     0.568429920740     1.007825032230
         H           -2.432904132444    -3.797783486830    -0.543871079260     1.007825032230
         H            2.830081867556    -2.644749486830     0.073283920740     1.007825032230
         H            5.126149867556    -1.670212486830    -0.163052079260     1.007825032230
         H            5.320783867556    -0.019405486830    -0.568932079260     1.007825032230

  Basis Set: AUG-CC-PVTZ
    Blend: AUG-CC-PVTZ
  Basis Set: (AUG-CC-PVTZ AUX)
    Blend: AUG-CC-PVTZ-JKFIT
	 Reference Energy          =    -886.3728592855291026 [Eh]
	 Singles Energy            =      -0.0000000000000000 [Eh]
	 Same-Spin Energy          =      -0.9012191229141493 [Eh]
	 Opposite-Spin Energy      =      -2.7146874962836387 [Eh]
	 Correlation Energy        =      -3.6159066191977880 [Eh]
	 Total Energy              =    -889.9887659047268471 [Eh]

	 ================> DF-SCS-MP2 Energies <==================
	-----------------------------------------------------------
	 SCS Same-Spin Scale       =       0.3333333333333333 [-]
	 SCS Opposite-Spin Scale   =       1.2000000000000000 [-]
	 SCS Same-Spin Energy      =      -0.3004063743047164 [Eh]
	 SCS Opposite-Spin Energy  =      -3.2576249955403664 [Eh]
	 SCS Correlation Energy    =      -3.5580313698450827 [Eh]
	 SCS Total Energy          =    -889.9308906553742418 [Eh]
	-----------------------------------------------------------

  Dipole Moment: [D]
     X:     1.6800      Y:    -6.0084      Z:    -1.7977     Total:     6.4927

*** Psi4 exiting successfully. Buy a developer a beer!
