                               Psi4 1.3.2 release

  ==> Input File <==

--------------------------------------------------------------------------
#psi4
#
memory 32 gb

molecule  {
0 1
  O       -1.2481010    -0.6526680     1.0325150
  O       -1.2449750     2.4828510    -0.6861630
  O       -3.2165300     1.5210990     0.7448870
  O       -2.3570290    -3.0668370     0.0949400
  O        1.3605300     2.2470340    -0.0765420
  N        0.8395051     0.0529185     0.2316455
  N        3.0572260     0.7205030    -0.2937270
  N        4.7164630    -0.8366550    -0.5722980
  C       -1.2680511     1.0741938    -0.6076329
  C       -2.7151710     0.6552070    -0.2573930
  C       -0.5254080     0.4815200     0.6000940
  C       -2.5292560    -0.7168860     0.3610560
  C       -2.5283440    -1.8503930    -0.6392900
  C        1.2197750    -1.2614080     0.3112740
  C        1.7555940     1.0674350    -0.0594030
  C        2.5111010    -1.6091400     0.0469950
  C        3.4119830    -0.5506530    -0.2589250
  H       -0.9376060     0.5914040    -1.5148910
  H       -3.3625820     0.6426650    -1.1464650
  H       -0.4402900     1.2218800     1.4039980
  H       -3.2819570    -0.9087340     1.1307830
  H       -1.7133080    -1.7003050    -1.3694640
  H       -3.4855610    -1.8340040    -1.1841350
  H       -0.2975250     2.7131790    -0.5250000
  H       -2.8475560     2.3997430     0.5086630
  H        0.4343110    -1.9634370     0.5690680
  H       -2.4338740    -3.7984320    -0.5432330
  H        2.8291120    -2.6453980     0.0739220
  H        5.1251800    -1.6708610    -0.1624140
  H        5.3198140    -0.0200540    -0.5682940
units angstrom
no_reorient  #important for SAPT in psi4, default
symmetry c1  #important for SAPT in psi4, default
}

set PROPERTIES_ORIGIN ["COM"]
properties('MP2/aug-cc-pvtz', properties = ['dipole'])
--------------------------------------------------------------------------

    Molecular point group: c1
  Charge       = 0
  Multiplicity = 1
  Basis Set: AUG-CC-PVTZ
    Blend: AUG-CC-PVTZ
  Basis Set: (AUG-CC-PVTZ AUX)
    Blend: AUG-CC-PVTZ-JKFIT

    Orbital Energies [Eh]
    ---------------------

    Doubly Occupied:

       1A    -20.582182     2A    -20.581844     3A    -20.557520
       4A    -20.556871     5A    -20.520597     6A    -15.636123
       7A    -15.600255     8A    -15.553416     9A    -11.386953
      10A    -11.358250    11A    -11.341438    12A    -11.329320
      13A    -11.301061    14A    -11.296369    15A    -11.295098
      16A    -11.292947    17A    -11.249811    18A     -1.428803
      19A     -1.396340    20A     -1.378922    21A     -1.372392
      22A     -1.345521    23A     -1.305378    24A     -1.272964
      25A     -1.182282    26A     -1.082437    27A     -1.065763
      28A     -1.020529    29A     -0.934069    30A     -0.909974
      31A     -0.876954    32A     -0.832650    33A     -0.811452
      34A     -0.767450    35A     -0.750851    36A     -0.735803
      37A     -0.720389    38A     -0.702390    39A     -0.698736
      40A     -0.685928    41A     -0.672715    42A     -0.654481
      43A     -0.651294    44A     -0.638679    45A     -0.620674
      46A     -0.614832    47A     -0.606870    48A     -0.592420
      49A     -0.574404    50A     -0.569460    51A     -0.554206
      52A     -0.546158    53A     -0.537486    54A     -0.531787
      55A     -0.496401    56A     -0.477015    57A     -0.472263
      58A     -0.461210    59A     -0.459685    60A     -0.453730
      61A     -0.439835    62A     -0.433643    63A     -0.395098
      64A     -0.350928

  @DF-RHF Final Energy:  -886.37223172038330

   => Energetics <=

    Nuclear Repulsion Energy =           1323.6524899893886413
    One-Electron Energy =               -3845.0028296958084866
    Two-Electron Energy =                1634.9781079860363207
    Total Energy =                       -886.3722317203832972
  Basis Set: (AUG-CC-PVTZ AUX)
    Blend: AUG-CC-PVTZ-RI
    Molecular point group: c1

    Geometry (in Angstrom), charge = 0, multiplicity = 1:

       Center              X                  Y                   Z               Mass
    ------------   -----------------  -----------------  -----------------  -----------------
         O           -1.248934478126    -0.652902171872     1.034682600554    15.994914619570
         O           -1.245808478126     2.482616828128    -0.683995399446    15.994914619570
         O           -3.217363478126     1.520864828128     0.747054600554    15.994914619570
         O           -2.357862478126    -3.067071171872     0.097107600554    15.994914619570
         O            1.359696521874     2.246799828128    -0.074374399446    15.994914619570
         N            0.838671621874     0.052684328128     0.233813100554    14.003074004430
         N            3.056392521874     0.720268828128    -0.291559399446    14.003074004430
         N            4.715629521874    -0.836889171872    -0.570130399446    14.003074004430
         C           -1.268884578126     1.073959628128    -0.605465299446    12.000000000000
         C           -2.716004478126     0.654972828128    -0.255225399446    12.000000000000
         C           -0.526241478126     0.481285828128     0.602261600554    12.000000000000
         C           -2.530089478126    -0.717120171872     0.363223600554    12.000000000000
         C           -2.529177478126    -1.850627171872    -0.637122399446    12.000000000000
         C            1.218941521874    -1.261642171872     0.313441600554    12.000000000000
         C            1.754760521874     1.067200828128    -0.057235399446    12.000000000000
         C            2.510267521874    -1.609374171872     0.049162600554    12.000000000000
         C            3.411149521874    -0.550887171872    -0.256757399446    12.000000000000
         H           -0.938439478126     0.591169828128    -1.512723399446     1.007825032230
         H           -3.363415478126     0.642430828128    -1.144297399446     1.007825032230
         H           -0.441123478126     1.221645828128     1.406165600554     1.007825032230
         H           -3.282790478126    -0.908968171872     1.132950600554     1.007825032230
         H           -1.714141478126    -1.700539171872    -1.367296399446     1.007825032230
         H           -3.486394478126    -1.834238171872    -1.181967399446     1.007825032230
         H           -0.298358478126     2.712944828128    -0.522832399446     1.007825032230
         H           -2.848389478126     2.399508828128     0.510830600554     1.007825032230
         H            0.433477521874    -1.963671171872     0.571235600554     1.007825032230
         H           -2.434707478126    -3.798666171872    -0.541065399446     1.007825032230
         H            2.828278521874    -2.645632171872     0.076089600554     1.007825032230
         H            5.124346521874    -1.671095171872    -0.160246399446     1.007825032230
         H            5.318980521874    -0.020288171872    -0.566126399446     1.007825032230

  Basis Set: AUG-CC-PVTZ
    Blend: AUG-CC-PVTZ
  Basis Set: (AUG-CC-PVTZ AUX)
    Blend: AUG-CC-PVTZ-JKFIT
	 Reference Energy          =    -886.3722317203832972 [Eh]
	 Singles Energy            =      -0.0000000000000000 [Eh]
	 Same-Spin Energy          =      -0.9012206411090473 [Eh]
	 Opposite-Spin Energy      =      -2.7152001535281856 [Eh]
	 Correlation Energy        =      -3.6164207946372331 [Eh]
	 Total Energy              =    -889.9886525150204761 [Eh]

	 ================> DF-SCS-MP2 Energies <==================
	-----------------------------------------------------------
	 SCS Same-Spin Scale       =       0.3333333333333333 [-]
	 SCS Opposite-Spin Scale   =       1.2000000000000000 [-]
	 SCS Same-Spin Energy      =      -0.3004068803696824 [Eh]
	 SCS Opposite-Spin Energy  =      -3.2582401842338227 [Eh]
	 SCS Correlation Energy    =      -3.5586470646035053 [Eh]
	 SCS Total Energy          =    -889.9308787849868168 [Eh]
	-----------------------------------------------------------

  Dipole Moment: [D]
     X:     1.7524      Y:    -5.9964      Z:    -1.8280     Total:     6.5092

*** Psi4 exiting successfully. Buy a developer a beer!
