                               Psi4 1.3.2 release

  ==> Input File <==

--------------------------------------------------------------------------
#psi4
#
memory 32 gb

molecule  {
0 1
  O       -1.2481010    -0.6526680     1.0325150
  O       -1.2449750     2.4828510    -0.6861630
  O       -3.2165300     1.5210990     0.7448870
  O       -2.3570290    -3.0668370     0.0949400
  O        1.3605300     2.2470340    -0.0765420
  N        0.8434040     0.0452230     0.2559430
  N        3.0572260     0.7205030    -0.2937270
  N        4.7164630    -0.8366550    -0.5722980
  C       -1.2894840     1.0784300    -0.5920770
  C       -2.7107502     0.6492607    -0.2463450
  C       -0.5369355     0.4767621     0.6050244
  C       -2.5292560    -0.7168860     0.3610560
  C       -2.5283440    -1.8503930    -0.6392900
  C        1.2197750    -1.2614080     0.3112740
  C        1.7555940     1.0674350    -0.0594030
  C        2.5111010    -1.6091400     0.0469950
  C        3.4119830    -0.5506530    -0.2589250
  H       -0.9376060     0.5914040    -1.5148910
  H       -3.3625820     0.6426650    -1.1464650
  H       -0.4402900     1.2218800     1.4039980
  H       -3.2819570    -0.9087340     1.1307830
  H       -1.7133080    -1.7003050    -1.3694640
  H       -3.4855610    -1.8340040    -1.1841350
  H       -0.2975250     2.7131790    -0.5250000
  H       -2.8475560     2.3997430     0.5086630
  H        0.4343110    -1.9634370     0.5690680
  H       -2.4338740    -3.7984320    -0.5432330
  H        2.8291120    -2.6453980     0.0739220
  H        5.1251800    -1.6708610    -0.1624140
  H        5.3198140    -0.0200540    -0.5682940
units angstrom
no_reorient  #important for SAPT in psi4, default
symmetry c1  #important for SAPT in psi4, default
}

set PROPERTIES_ORIGIN ["COM"]
properties('MP2/aug-cc-pvtz', properties = ['dipole'])
--------------------------------------------------------------------------

    Molecular point group: c1
  Charge       = 0
  Multiplicity = 1
  Basis Set: AUG-CC-PVTZ
    Blend: AUG-CC-PVTZ
  Basis Set: (AUG-CC-PVTZ AUX)
    Blend: AUG-CC-PVTZ-JKFIT

    Orbital Energies [Eh]
    ---------------------

    Doubly Occupied:

       1A    -20.583177     2A    -20.582942     3A    -20.558296
       4A    -20.557668     5A    -20.521228     6A    -15.635784
       7A    -15.599350     8A    -15.552786     9A    -11.387555
      10A    -11.357241    11A    -11.341853    12A    -11.327774
      13A    -11.302119    14A    -11.297647    15A    -11.296728
      16A    -11.293586    17A    -11.247870    18A     -1.432590
      19A     -1.396336    20A     -1.380934    21A     -1.374037
      22A     -1.347130    23A     -1.305278    24A     -1.272424
      25A     -1.181419    26A     -1.080861    27A     -1.070268
      28A     -1.022032    29A     -0.934922    30A     -0.908941
      31A     -0.877231    32A     -0.832920    33A     -0.811804
      34A     -0.766286    35A     -0.751843    36A     -0.736484
      37A     -0.720114    38A     -0.703558    39A     -0.699921
      40A     -0.685729    41A     -0.672868    42A     -0.654898
      43A     -0.651657    44A     -0.638278    45A     -0.621000
      46A     -0.614556    47A     -0.607417    48A     -0.592693
      49A     -0.575881    50A     -0.570705    51A     -0.554889
      52A     -0.546034    53A     -0.538133    54A     -0.531995
      55A     -0.497914    56A     -0.478292    57A     -0.475666
      58A     -0.462584    59A     -0.459450    60A     -0.453639
      61A     -0.439756    62A     -0.432497    63A     -0.394663
      64A     -0.349232

  @DF-RHF Final Energy:  -886.37322779193266

   => Energetics <=

    Nuclear Repulsion Energy =           1323.9459965476403340
    One-Electron Energy =               -3845.5357204364131576
    Two-Electron Energy =                1635.2164960968400464
    Total Energy =                       -886.3732277919327771
  Basis Set: (AUG-CC-PVTZ AUX)
    Blend: AUG-CC-PVTZ-RI
    Molecular point group: c1

    Geometry (in Angstrom), charge = 0, multiplicity = 1:

       Center              X                  Y                   Z               Mass
    ------------   -----------------  -----------------  -----------------  -----------------
         O           -1.247750209256    -0.652139573361     1.031726228291    15.994914619570
         O           -1.244624209256     2.483379426639    -0.686951771709    15.994914619570
         O           -3.216179209256     1.521627426639     0.744098228291    15.994914619570
         O           -2.356678209256    -3.066308573361     0.094151228291    15.994914619570
         O            1.360880790744     2.247562426639    -0.077330771709    15.994914619570
         N            0.843754790744     0.045751426639     0.255154228291    14.003074004430
         N            3.057576790744     0.721031426639    -0.294515771709    14.003074004430
         N            4.716813790744    -0.836126573361    -0.573086771709    14.003074004430
         C           -1.289133209256     1.078958426639    -0.592865771709    12.000000000000
         C           -2.710399409256     0.649789126639    -0.247133771709    12.000000000000
         C           -0.536584709256     0.477290526639     0.604235628291    12.000000000000
         C           -2.528905209256    -0.716357573361     0.360267228291    12.000000000000
         C           -2.527993209256    -1.849864573361    -0.640078771709    12.000000000000
         C            1.220125790744    -1.260879573361     0.310485228291    12.000000000000
         C            1.755944790744     1.067963426639    -0.060191771709    12.000000000000
         C            2.511451790744    -1.608611573361     0.046206228291    12.000000000000
         C            3.412333790744    -0.550124573361    -0.259713771709    12.000000000000
         H           -0.937255209256     0.591932426639    -1.515679771709     1.007825032230
         H           -3.362231209256     0.643193426639    -1.147253771709     1.007825032230
         H           -0.439939209256     1.222408426639     1.403209228291     1.007825032230
         H           -3.281606209256    -0.908205573361     1.129994228291     1.007825032230
         H           -1.712957209256    -1.699776573361    -1.370252771709     1.007825032230
         H           -3.485210209256    -1.833475573361    -1.184923771709     1.007825032230
         H           -0.297174209256     2.713707426639    -0.525788771709     1.007825032230
         H           -2.847205209256     2.400271426639     0.507874228291     1.007825032230
         H            0.434661790744    -1.962908573361     0.568279228291     1.007825032230
         H           -2.433523209256    -3.797903573361    -0.544021771709     1.007825032230
         H            2.829462790744    -2.644869573361     0.073133228291     1.007825032230
         H            5.125530790744    -1.670332573361    -0.163202771709     1.007825032230
         H            5.320164790744    -0.019525573361    -0.569082771709     1.007825032230

  Basis Set: AUG-CC-PVTZ
    Blend: AUG-CC-PVTZ
  Basis Set: (AUG-CC-PVTZ AUX)
    Blend: AUG-CC-PVTZ-JKFIT
	 Reference Energy          =    -886.3732277919326634 [Eh]
	 Singles Energy            =      -0.0000000000000000 [Eh]
	 Same-Spin Energy          =      -0.9013236837825565 [Eh]
	 Opposite-Spin Energy      =      -2.7148176539795932 [Eh]
	 Correlation Energy        =      -3.6161413377621496 [Eh]
	 Total Energy              =    -889.9893691296948646 [Eh]

	 ================> DF-SCS-MP2 Energies <==================
	-----------------------------------------------------------
	 SCS Same-Spin Scale       =       0.3333333333333333 [-]
	 SCS Opposite-Spin Scale   =       1.2000000000000000 [-]
	 SCS Same-Spin Energy      =      -0.3004412279275188 [Eh]
	 SCS Opposite-Spin Energy  =      -3.2577811847755118 [Eh]
	 SCS Correlation Energy    =      -3.5582224127030306 [Eh]
	 SCS Total Energy          =    -889.9314502046356665 [Eh]
	-----------------------------------------------------------

  Dipole Moment: [D]
     X:     1.6270      Y:    -5.9721      Z:    -1.7961     Total:     6.4451

*** Psi4 exiting successfully. Buy a developer a beer!
