                               Psi4 1.3.2 release

  ==> Input File <==

--------------------------------------------------------------------------
#psi4
#
memory 32 gb

molecule  {
0 1
  O       -1.2481010    -0.6526680     1.0325150
  O       -1.2449750     2.4828510    -0.6861630
  O       -3.2165300     1.5210990     0.7448870
  O       -2.3570290    -3.0668370     0.0949400
  O        1.3605300     2.2470340    -0.0765420
  N        0.8434040     0.0452230     0.2559430
  N        3.0572260     0.7205030    -0.2937270
  N        4.7164630    -0.8366550    -0.5722980
  C       -1.2894840     1.0784300    -0.5920770
  C       -2.7151710     0.6552070    -0.2573930
  C       -0.5254080     0.4815200     0.6000940
  C       -2.5292560    -0.7168860     0.3610560
  C       -2.5283440    -1.8503930    -0.6392900
  C        1.2197750    -1.2614080     0.3112740
  C        1.7555940     1.0674350    -0.0594030
  C        2.5111010    -1.6091400     0.0469950
  C        3.4119830    -0.5506530    -0.2589250
  H       -0.9376060     0.5914040    -1.5148910
  H       -3.3625820     0.6426650    -1.1464650
  H       -0.4402900     1.2218800     1.4039980
  H       -3.2819570    -0.9087340     1.1307830
  H       -1.7133080    -1.7003050    -1.3694640
  H       -3.4855610    -1.8340040    -1.1841350
  H       -0.2975250     2.7131790    -0.5250000
  H       -2.8475560     2.3997430     0.5086630
  H        0.4343110    -1.9634370     0.5690680
  H       -2.4259832    -3.7233087    -0.4777027
  H        2.8291120    -2.6453980     0.0739220
  H        5.1251800    -1.6708610    -0.1624140
  H        5.3198140    -0.0200540    -0.5682940
units angstrom
no_reorient  #important for SAPT in psi4, default
symmetry c1  #important for SAPT in psi4, default
}

set PROPERTIES_ORIGIN ["COM"]
properties('MP2/aug-cc-pvtz', properties = ['dipole'])
--------------------------------------------------------------------------

    Molecular point group: c1
  Charge       = 0
  Multiplicity = 1
  Basis Set: AUG-CC-PVTZ
    Blend: AUG-CC-PVTZ
  Basis Set: (AUG-CC-PVTZ AUX)
    Blend: AUG-CC-PVTZ-JKFIT

    Orbital Energies [Eh]
    ---------------------

    Doubly Occupied:

       1A    -20.582066     2A    -20.572359     3A    -20.558106
       4A    -20.557524     5A    -20.522216     6A    -15.637192
       7A    -15.600019     8A    -15.553556     9A    -11.388493
      10A    -11.358065    11A    -11.341895    12A    -11.328794
      13A    -11.302474    14A    -11.297547    15A    -11.296994
      16A    -11.293304    17A    -11.248802    18A     -1.430419
      19A     -1.403490    20A     -1.393703    21A     -1.378040
      22A     -1.346604    23A     -1.306309    24A     -1.274078
      25A     -1.182466    26A     -1.082406    27A     -1.070189
      28A     -1.023355    29A     -0.939609    30A     -0.910383
      31A     -0.878612    32A     -0.833056    33A     -0.812375
      34A     -0.767276    35A     -0.753613    36A     -0.741784
      37A     -0.725586    38A     -0.712648    39A     -0.699225
      40A     -0.686185    41A     -0.673492    42A     -0.655455
      43A     -0.652067    44A     -0.639266    45A     -0.621223
      46A     -0.615379    47A     -0.607592    48A     -0.594323
      49A     -0.576965    50A     -0.570805    51A     -0.555236
      52A     -0.547926    53A     -0.538208    54A     -0.533835
      55A     -0.498444    56A     -0.479963    57A     -0.475211
      58A     -0.463098    59A     -0.460401    60A     -0.453355
      61A     -0.441229    62A     -0.433441    63A     -0.395410
      64A     -0.350246

  @DF-RHF Final Energy:  -886.36881744967377

   => Energetics <=

    Nuclear Repulsion Energy =           1324.4477778808247876
    One-Electron Energy =               -3846.3864225254164921
    Two-Electron Energy =                1635.5698271949177069
    Total Energy =                       -886.3688174496737702
  Basis Set: (AUG-CC-PVTZ AUX)
    Blend: AUG-CC-PVTZ-RI
    Molecular point group: c1

    Geometry (in Angstrom), charge = 0, multiplicity = 1:

       Center              X                  Y                   Z               Mass
    ------------   -----------------  -----------------  -----------------  -----------------
         O           -1.248133748948    -0.652979448734     1.032243320888    15.994914619570
         O           -1.245007748948     2.482539551266    -0.686434679112    15.994914619570
         O           -3.216562748948     1.520787551266     0.744615320888    15.994914619570
         O           -2.357061748948    -3.067148448734     0.094668320888    15.994914619570
         O            1.360497251052     2.246722551266    -0.076813679112    15.994914619570
         N            0.843371251052     0.044911551266     0.255671320888    14.003074004430
         N            3.057193251052     0.720191551266    -0.293998679112    14.003074004430
         N            4.716430251052    -0.836966448734    -0.572569679112    14.003074004430
         C           -1.289516748948     1.078118551266    -0.592348679112    12.000000000000
         C           -2.715203748948     0.654895551266    -0.257664679112    12.000000000000
         C           -0.525440748948     0.481208551266     0.599822320888    12.000000000000
         C           -2.529288748948    -0.717197448734     0.360784320888    12.000000000000
         C           -2.528376748948    -1.850704448734    -0.639561679112    12.000000000000
         C            1.219742251052    -1.261719448734     0.311002320888    12.000000000000
         C            1.755561251052     1.067123551266    -0.059674679112    12.000000000000
         C            2.511068251052    -1.609451448734     0.046723320888    12.000000000000
         C            3.411950251052    -0.550964448734    -0.259196679112    12.000000000000
         H           -0.937638748948     0.591092551266    -1.515162679112     1.007825032230
         H           -3.362614748948     0.642353551266    -1.146736679112     1.007825032230
         H           -0.440322748948     1.221568551266     1.403726320888     1.007825032230
         H           -3.281989748948    -0.909045448734     1.130511320888     1.007825032230
         H           -1.713340748948    -1.700616448734    -1.369735679112     1.007825032230
         H           -3.485593748948    -1.834315448734    -1.184406679112     1.007825032230
         H           -0.297557748948     2.712867551266    -0.525271679112     1.007825032230
         H           -2.847588748948     2.399431551266     0.508391320888     1.007825032230
         H            0.434278251052    -1.963748448734     0.568796320888     1.007825032230
         H           -2.426015948948    -3.723620148734    -0.477974379112     1.007825032230
         H            2.829079251052    -2.645709448734     0.073650320888     1.007825032230
         H            5.125147251052    -1.671172448734    -0.162685679112     1.007825032230
         H            5.319781251052    -0.020365448734    -0.568565679112     1.007825032230

  Basis Set: AUG-CC-PVTZ
    Blend: AUG-CC-PVTZ
  Basis Set: (AUG-CC-PVTZ AUX)
    Blend: AUG-CC-PVTZ-JKFIT
	 Reference Energy          =    -886.3688174496737702 [Eh]
	 Singles Energy            =      -0.0000000000000000 [Eh]
	 Same-Spin Energy          =      -0.9000848437259350 [Eh]
	 Opposite-Spin Energy      =      -2.7119500667737881 [Eh]
	 Correlation Energy        =      -3.6120349104997231 [Eh]
	 Total Energy              =    -889.9808523601734578 [Eh]

	 ================> DF-SCS-MP2 Energies <==================
	-----------------------------------------------------------
	 SCS Same-Spin Scale       =       0.3333333333333333 [-]
	 SCS Opposite-Spin Scale   =       1.2000000000000000 [-]
	 SCS Same-Spin Energy      =      -0.3000282812419783 [Eh]
	 SCS Opposite-Spin Energy  =      -3.2543400801285456 [Eh]
	 SCS Correlation Energy    =      -3.5543683613705239 [Eh]
	 SCS Total Energy          =    -889.9231858110442772 [Eh]
	-----------------------------------------------------------

  Dipole Moment: [D]
     X:     1.7244      Y:    -5.8592      Z:    -1.7824     Total:     6.3625

*** Psi4 exiting successfully. Buy a developer a beer!
