                               Psi4 1.4a3.dev225

  ==> Input File <==

--------------------------------------------------------------------------
#psi4
#
memory 32 gb

molecule  {
0 1
  O       -1.3191770     0.6538360    -1.0992360
  O       -1.5735610    -2.4640850     0.5135810
  O       -3.5606630    -1.0699430    -0.4600060
  O       -1.4399290     3.1254620     0.1265180
  O        1.1065530    -2.3833650     0.0076020
  N        0.7686360    -0.1579440    -0.3706350
  N        2.9363770    -0.9938720     0.1460080
  N        4.7058880     0.4431110     0.3611260
  C       -1.3768610    -1.0680440     0.5552780
  C       -2.7824456    -0.3519856     0.4546654
  C       -0.6377490    -0.5042940    -0.6790150
  C       -2.3707440     0.9655450    -0.1585060
  C       -1.8992030     1.9895750     0.8571380
  C        1.2309690     1.1190800    -0.4442230
  C        1.6104480    -1.2470590    -0.0585760
  C        2.5474650     1.3753690    -0.1998620
  C        3.3802090     0.2523040     0.0808410
  H       -0.8441360    -0.7686950     1.4698480
  H       -3.2257400    -0.2778790     1.4400230
  H       -0.6227070    -1.2428120    -1.4883720
  H       -3.1941750     1.3785730    -0.7472070
  H       -1.0952130     1.5703990     1.4802000
  H       -2.7410530     2.2466610     1.5166010
  H       -0.6710550    -2.8260740     0.3542250
  H       -3.3063470    -2.0105220    -0.3629290
  H        0.4929290     1.8778260    -0.6840360
  H       -1.2098800     3.8154810     0.7720340
  H        2.9334840     2.3875570    -0.2389120
  H        5.1589650     1.2712730    -0.0008400
  H        5.2635310    -0.4031270     0.3606700
units angstrom
no_reorient  #important for SAPT in psi4, default
symmetry c1  #important for SAPT in psi4, default
}

set PROPERTIES_ORIGIN ["COM"]
properties('MP2/aug-cc-pvtz', properties = ['dipole'])
--------------------------------------------------------------------------

    Molecular point group: c1
  Charge       = 0
  Multiplicity = 1
  Basis Set: AUG-CC-PVTZ
    Blend: AUG-CC-PVTZ
  Basis Set: (AUG-CC-PVTZ AUX)
    Blend: AUG-CC-PVTZ-JKFIT

    Orbital Energies [Eh]
    ---------------------

    Doubly Occupied:

       1A    -20.586577     2A    -20.581691     3A    -20.558712
       4A    -20.557097     5A    -20.519261     6A    -15.632578
       7A    -15.599396     8A    -15.551423     9A    -11.385550
      10A    -11.357741    11A    -11.338908    12A    -11.324793
      13A    -11.303716    14A    -11.297526    15A    -11.297366
      16A    -11.294021    17A    -11.246234    18A     -1.428643
      19A     -1.393783    20A     -1.383402    21A     -1.375803
      22A     -1.349349    23A     -1.303291    24A     -1.270978
      25A     -1.180868    26A     -1.078900    27A     -1.066447
      28A     -1.012585    29A     -0.935202    30A     -0.906332
      31A     -0.877332    32A     -0.829839    33A     -0.813488
      34A     -0.766184    35A     -0.749932    36A     -0.733030
      37A     -0.722208    38A     -0.708464    39A     -0.704408
      40A     -0.684684    41A     -0.677676    42A     -0.652844
      43A     -0.648749    44A     -0.634370    45A     -0.620201
      46A     -0.614795    47A     -0.608546    48A     -0.593278
      49A     -0.578396    50A     -0.564539    51A     -0.556227
      52A     -0.551678    53A     -0.535276    54A     -0.530687
      55A     -0.494661    56A     -0.480391    57A     -0.469999
      58A     -0.461279    59A     -0.456955    60A     -0.451311
      61A     -0.441091    62A     -0.429865    63A     -0.391758
      64A     -0.347749

  @DF-RHF Final Energy:  -886.37241653328329

   => Energetics <=

    Nuclear Repulsion Energy =           1333.8126236481250544
    One-Electron Energy =               -3865.3699539174162965
    Two-Electron Energy =                1645.1849137360077293
    Total Energy =                       -886.3724165332832854
  Basis Set: (AUG-CC-PVTZ AUX)
    Blend: AUG-CC-PVTZ-RI
    Molecular point group: c1

    Geometry (in Angstrom), charge = 0, multiplicity = 1:

       Center              X                  Y                   Z               Mass
    ------------   -----------------  -----------------  -----------------  -----------------
         O           -1.329725792680     0.681329321991    -1.083298678954    15.994914619570
         O           -1.584109792680    -2.436591678009     0.529518321046    15.994914619570
         O           -3.571211792680    -1.042449678009    -0.444068678954    15.994914619570
         O           -1.450477792680     3.152955321991     0.142455321046    15.994914619570
         O            1.096004207320    -2.355871678009     0.023539321046    15.994914619570
         N            0.758087207320    -0.130450678009    -0.354697678954    14.003074004430
         N            2.925828207320    -0.966378678009     0.161945321046    14.003074004430
         N            4.695339207320     0.470604321991     0.377063321046    14.003074004430
         C           -1.387409792680    -1.040550678009     0.571215321046    12.000000000000
         C           -2.792994392680    -0.324492278009     0.470602721046    12.000000000000
         C           -0.648297792680    -0.476800678009    -0.663077678954    12.000000000000
         C           -2.381292792680     0.993038321991    -0.142568678954    12.000000000000
         C           -1.909751792680     2.017068321991     0.873075321046    12.000000000000
         C            1.220420207320     1.146573321991    -0.428285678954    12.000000000000
         C            1.599899207320    -1.219565678009    -0.042638678954    12.000000000000
         C            2.536916207320     1.402862321991    -0.183924678954    12.000000000000
         C            3.369660207320     0.279797321991     0.096778321046    12.000000000000
         H           -0.854684792680    -0.741201678009     1.485785321046     1.007825032230
         H           -3.236288792680    -0.250385678009     1.455960321046     1.007825032230
         H           -0.633255792680    -1.215318678009    -1.472434678954     1.007825032230
         H           -3.204723792680     1.406066321991    -0.731269678954     1.007825032230
         H           -1.105761792680     1.597892321991     1.496137321046     1.007825032230
         H           -2.751601792680     2.274154321991     1.532538321046     1.007825032230
         H           -0.681603792680    -2.798580678009     0.370162321046     1.007825032230
         H           -3.316895792680    -1.983028678009    -0.346991678954     1.007825032230
         H            0.482380207320     1.905319321991    -0.668098678954     1.007825032230
         H           -1.220428792680     3.842974321991     0.787971321046     1.007825032230
         H            2.922935207320     2.415050321991    -0.222974678954     1.007825032230
         H            5.148416207320     1.298766321991     0.015097321046     1.007825032230
         H            5.252982207320    -0.375633678009     0.376607321046     1.007825032230

  Basis Set: AUG-CC-PVTZ
    Blend: AUG-CC-PVTZ
  Basis Set: (AUG-CC-PVTZ AUX)
    Blend: AUG-CC-PVTZ-JKFIT
	 Reference Energy          =    -886.3724165332832854 [Eh]
	 Singles Energy            =      -0.0000000000000000 [Eh]
	 Same-Spin Energy          =      -0.9017922540082386 [Eh]
	 Opposite-Spin Energy      =      -2.7157344760142950 [Eh]
	 Correlation Energy        =      -3.6175267300225338 [Eh]
	 Total Energy              =    -889.9899432633058041 [Eh]

	 ================> DF-SCS-MP2 Energies <==================
	-----------------------------------------------------------
	 SCS Same-Spin Scale       =       0.3333333333333333 [-]
	 SCS Opposite-Spin Scale   =       1.2000000000000000 [-]
	 SCS Same-Spin Energy      =      -0.3005974180027462 [Eh]
	 SCS Opposite-Spin Energy  =      -3.2588813712171540 [Eh]
	 SCS Correlation Energy    =      -3.5594787892199000 [Eh]
	 SCS Total Energy          =    -889.9318953225032374 [Eh]
	-----------------------------------------------------------

  Dipole Moment: [D]
     X:     2.6565      Y:     5.7793      Z:     1.9514     Total:     6.6532

*** Psi4 exiting successfully. Buy a developer a beer!
