                               Psi4 1.3.2 release

  ==> Input File <==

--------------------------------------------------------------------------
#psi4
#
memory 32 gb

molecule  {
0 1
  O       -1.2481010    -0.6526680     1.0325150
  O       -1.2449750     2.4828510    -0.6861630
  O       -3.2165300     1.5210990     0.7448870
  O       -2.3570290    -3.0668370     0.0949400
  O        1.3605300     2.2470340    -0.0765420
  N        0.8434040     0.0452230     0.2559430
  N        3.0572260     0.7205030    -0.2937270
  N        4.7164630    -0.8366550    -0.5722980
  C       -1.2894840     1.0784300    -0.5920770
  C       -2.7151710     0.6552070    -0.2573930
  C       -0.5254080     0.4815200     0.6000940
  C       -2.5292560    -0.7168860     0.3610560
  C       -2.5283440    -1.8503930    -0.6392900
  C        1.2197750    -1.2614080     0.3112740
  C        1.7555940     1.0674350    -0.0594030
  C        2.5111010    -1.6091400     0.0469950
  C        3.3486844    -0.6250254    -0.2374302
  H       -0.9376060     0.5914040    -1.5148910
  H       -3.3625820     0.6426650    -1.1464650
  H       -0.4402900     1.2218800     1.4039980
  H       -3.2819570    -0.9087340     1.1307830
  H       -1.7133080    -1.7003050    -1.3694640
  H       -3.4855610    -1.8340040    -1.1841350
  H       -0.2975250     2.7131790    -0.5250000
  H       -2.8475560     2.3997430     0.5086630
  H        0.4343110    -1.9634370     0.5690680
  H       -2.4338740    -3.7984320    -0.5432330
  H        2.8291120    -2.6453980     0.0739220
  H        5.1251800    -1.6708610    -0.1624140
  H        5.3198140    -0.0200540    -0.5682940
units angstrom
no_reorient  #important for SAPT in psi4, default
symmetry c1  #important for SAPT in psi4, default
}

set PROPERTIES_ORIGIN ["COM"]
properties('MP2/aug-cc-pvtz', properties = ['dipole'])
--------------------------------------------------------------------------

    Molecular point group: c1
  Charge       = 0
  Multiplicity = 1
  Basis Set: AUG-CC-PVTZ
    Blend: AUG-CC-PVTZ
  Basis Set: (AUG-CC-PVTZ AUX)
    Blend: AUG-CC-PVTZ-JKFIT

    Orbital Energies [Eh]
    ---------------------

    Doubly Occupied:

       1A    -20.585326     2A    -20.585016     3A    -20.559741
       4A    -20.558414     5A    -20.517049     6A    -15.646993
       7A    -15.591192     8A    -15.554201     9A    -11.382337
      10A    -11.353749    11A    -11.345623    12A    -11.343339
      13A    -11.303945    14A    -11.299721    15A    -11.299475
      16A    -11.295367    17A    -11.245951    18A     -1.432642
      19A     -1.395184    20A     -1.382175    21A     -1.375405
      22A     -1.347781    23A     -1.303732    24A     -1.260234
      25A     -1.163004    26A     -1.100775    27A     -1.070419
      28A     -1.028156    29A     -0.944001    30A     -0.918464
      31A     -0.869013    32A     -0.833783    33A     -0.814559
      34A     -0.765974    35A     -0.757744    36A     -0.738778
      37A     -0.715372    38A     -0.703905    39A     -0.699985
      40A     -0.678648    41A     -0.672517    42A     -0.657613
      43A     -0.650377    44A     -0.640887    45A     -0.628007
      46A     -0.616046    47A     -0.609177    48A     -0.586819
      49A     -0.578245    50A     -0.571162    51A     -0.555350
      52A     -0.545323    53A     -0.539113    54A     -0.527853
      55A     -0.499173    56A     -0.480115    57A     -0.476696
      58A     -0.465146    59A     -0.459226    60A     -0.454942
      61A     -0.443274    62A     -0.434195    63A     -0.388956
      64A     -0.356437

  @DF-RHF Final Energy:  -886.35544794393468

   => Energetics <=

    Nuclear Repulsion Energy =           1324.1827482184858127
    One-Electron Energy =               -3845.8687494934065398
    Two-Electron Energy =                1635.3305533309860493
    Total Energy =                       -886.3554479439346778
  Basis Set: (AUG-CC-PVTZ AUX)
    Blend: AUG-CC-PVTZ-RI
    Molecular point group: c1

    Geometry (in Angstrom), charge = 0, multiplicity = 1:

       Center              X                  Y                   Z               Mass
    ------------   -----------------  -----------------  -----------------  -----------------
         O           -1.244976276862    -0.648996570856     1.031453909315    15.994914619570
         O           -1.241850276862     2.486522429144    -0.687224090685    15.994914619570
         O           -3.213405276862     1.524770429144     0.743825909315    15.994914619570
         O           -2.353904276862    -3.063165570856     0.093878909315    15.994914619570
         O            1.363654723138     2.250705429144    -0.077603090685    15.994914619570
         N            0.846528723138     0.048894429144     0.254881909315    14.003074004430
         N            3.060350723138     0.724174429144    -0.294788090685    14.003074004430
         N            4.719587723138    -0.832983570856    -0.573359090685    14.003074004430
         C           -1.286359276862     1.082101429144    -0.593138090685    12.000000000000
         C           -2.712046276862     0.658878429144    -0.258454090685    12.000000000000
         C           -0.522283276862     0.485191429144     0.599032909315    12.000000000000
         C           -2.526131276862    -0.713214570856     0.359994909315    12.000000000000
         C           -2.525219276862    -1.846721570856    -0.640351090685    12.000000000000
         C            1.222899723138    -1.257736570856     0.310212909315    12.000000000000
         C            1.758718723138     1.071106429144    -0.060464090685    12.000000000000
         C            2.514225723138    -1.605468570856     0.045933909315    12.000000000000
         C            3.351809123138    -0.621353970856    -0.238491290685    12.000000000000
         H           -0.934481276862     0.595075429144    -1.515952090685     1.007825032230
         H           -3.359457276862     0.646336429144    -1.147526090685     1.007825032230
         H           -0.437165276862     1.225551429144     1.402936909315     1.007825032230
         H           -3.278832276862    -0.905062570856     1.129721909315     1.007825032230
         H           -1.710183276862    -1.696633570856    -1.370525090685     1.007825032230
         H           -3.482436276862    -1.830332570856    -1.185196090685     1.007825032230
         H           -0.294400276862     2.716850429144    -0.526061090685     1.007825032230
         H           -2.844431276862     2.403414429144     0.507601909315     1.007825032230
         H            0.437435723138    -1.959765570856     0.568006909315     1.007825032230
         H           -2.430749276862    -3.794760570856    -0.544294090685     1.007825032230
         H            2.832236723138    -2.641726570856     0.072860909315     1.007825032230
         H            5.128304723138    -1.667189570856    -0.163475090685     1.007825032230
         H            5.322938723138    -0.016382570856    -0.569355090685     1.007825032230

  Basis Set: AUG-CC-PVTZ
    Blend: AUG-CC-PVTZ
  Basis Set: (AUG-CC-PVTZ AUX)
    Blend: AUG-CC-PVTZ-JKFIT
	 Reference Energy          =    -886.3554479439346778 [Eh]
	 Singles Energy            =      -0.0000000000000000 [Eh]
	 Same-Spin Energy          =      -0.9029764350911273 [Eh]
	 Opposite-Spin Energy      =      -2.7175652711473663 [Eh]
	 Correlation Energy        =      -3.6205417062384937 [Eh]
	 Total Energy              =    -889.9759896501731191 [Eh]

	 ================> DF-SCS-MP2 Energies <==================
	-----------------------------------------------------------
	 SCS Same-Spin Scale       =       0.3333333333333333 [-]
	 SCS Opposite-Spin Scale   =       1.2000000000000000 [-]
	 SCS Same-Spin Energy      =      -0.3009921450303757 [Eh]
	 SCS Opposite-Spin Energy  =      -3.2610783253768396 [Eh]
	 SCS Correlation Energy    =      -3.5620704704072153 [Eh]
	 SCS Total Energy          =    -889.9175184143418846 [Eh]
	-----------------------------------------------------------

  Dipole Moment: [D]
     X:     1.0210      Y:    -6.1514      Z:    -1.6688     Total:     6.4550

*** Psi4 exiting successfully. Buy a developer a beer!
