                               Psi4 1.3.2 release

  ==> Input File <==

--------------------------------------------------------------------------
#psi4
#
memory 32 gb

molecule  {
0 1
  O       -1.2481010    -0.6526680     1.0325150
  O       -1.2449750     2.4828510    -0.6861630
  O       -3.2165300     1.5210990     0.7448870
  O       -2.3570290    -3.0668370     0.0949400
  O        1.3605300     2.2470340    -0.0765420
  N        0.8434040     0.0452230     0.2559430
  N        3.0786969     0.7261167    -0.2999230
  N        4.7205402    -0.8133125    -0.5757151
  C       -1.2894840     1.0784300    -0.5920770
  C       -2.7151710     0.6552070    -0.2573930
  C       -0.5254080     0.4815200     0.6000940
  C       -2.5292560    -0.7168860     0.3610560
  C       -2.5283440    -1.8503930    -0.6392900
  C        1.2197750    -1.2614080     0.3112740
  C        1.7555940     1.0674350    -0.0594030
  C        2.5111010    -1.6091400     0.0469950
  C        3.4119830    -0.5506530    -0.2589250
  H       -0.9376060     0.5914040    -1.5148910
  H       -3.3625820     0.6426650    -1.1464650
  H       -0.4402900     1.2218800     1.4039980
  H       -3.2819570    -0.9087340     1.1307830
  H       -1.7133080    -1.7003050    -1.3694640
  H       -3.4855610    -1.8340040    -1.1841350
  H       -0.2975250     2.7131790    -0.5250000
  H       -2.8475560     2.3997430     0.5086630
  H        0.4343110    -1.9634370     0.5690680
  H       -2.4338740    -3.7984320    -0.5432330
  H        2.8291120    -2.6453980     0.0739220
  H        5.1251800    -1.6708610    -0.1624140
  H        5.3198140    -0.0200540    -0.5682940
units angstrom
no_reorient  #important for SAPT in psi4, default
symmetry c1  #important for SAPT in psi4, default
}

set PROPERTIES_ORIGIN ["COM"]
properties('MP2/aug-cc-pvtz', properties = ['dipole'])
--------------------------------------------------------------------------

    Molecular point group: c1
  Charge       = 0
  Multiplicity = 1
  Basis Set: AUG-CC-PVTZ
    Blend: AUG-CC-PVTZ
  Basis Set: (AUG-CC-PVTZ AUX)
    Blend: AUG-CC-PVTZ-JKFIT

    Orbital Energies [Eh]
    ---------------------

    Doubly Occupied:

       1A    -20.582559     2A    -20.582234     3A    -20.558193
       4A    -20.557845     5A    -20.523994     6A    -15.638044
       7A    -15.597566     8A    -15.554910     9A    -11.390210
      10A    -11.355957    11A    -11.342352    12A    -11.329338
      13A    -11.301543    14A    -11.297378    15A    -11.297185
      16A    -11.293408    17A    -11.249648    18A     -1.429855
      19A     -1.396357    20A     -1.380554    21A     -1.373219
      22A     -1.346749    23A     -1.305911    24A     -1.274476
      25A     -1.177136    26A     -1.082494    27A     -1.068197
      28A     -1.021727    29A     -0.935182    30A     -0.910812
      31A     -0.874300    32A     -0.831922    33A     -0.812345
      34A     -0.766568    35A     -0.752682    36A     -0.736767
      37A     -0.719062    38A     -0.703433    39A     -0.698988
      40A     -0.683149    41A     -0.673582    42A     -0.653062
      43A     -0.651885    44A     -0.638414    45A     -0.621923
      46A     -0.614639    47A     -0.607450    48A     -0.593113
      49A     -0.576156    50A     -0.570014    51A     -0.554451
      52A     -0.545934    53A     -0.537891    54A     -0.531947
      55A     -0.498448    56A     -0.477917    57A     -0.474954
      58A     -0.463096    59A     -0.461886    60A     -0.453355
      61A     -0.441569    62A     -0.433526    63A     -0.393560
      64A     -0.350387

  @DF-RHF Final Energy:  -886.37136181110100

   => Energetics <=

    Nuclear Repulsion Energy =           1323.0904984098383466
    One-Electron Energy =               -3843.8169084428468523
    Two-Electron Energy =                1634.3550482219075093
    Total Energy =                       -886.3713618111009964
  Basis Set: (AUG-CC-PVTZ AUX)
    Blend: AUG-CC-PVTZ-RI
    Molecular point group: c1

    Geometry (in Angstrom), charge = 0, multiplicity = 1:

       Center              X                  Y                   Z               Mass
    ------------   -----------------  -----------------  -----------------  -----------------
         O           -1.249572746172    -0.654336027557     1.033068775350    15.994914619570
         O           -1.246446746172     2.481182972443    -0.685609224650    15.994914619570
         O           -3.218001746172     1.519430972443     0.745440775350    15.994914619570
         O           -2.358500746172    -3.068505027557     0.095493775350    15.994914619570
         O            1.359058253828     2.245365972443    -0.075988224650    15.994914619570
         N            0.841932253828     0.043554972443     0.256496775350    14.003074004430
         N            3.077225153828     0.724448672443    -0.299369224650    14.003074004430
         N            4.719068453828    -0.814980527557    -0.575161324650    14.003074004430
         C           -1.290955746172     1.076761972443    -0.591523224650    12.000000000000
         C           -2.716642746172     0.653538972443    -0.256839224650    12.000000000000
         C           -0.526879746172     0.479851972443     0.600647775350    12.000000000000
         C           -2.530727746172    -0.718554027557     0.361609775350    12.000000000000
         C           -2.529815746172    -1.852061027557    -0.638736224650    12.000000000000
         C            1.218303253828    -1.263076027557     0.311827775350    12.000000000000
         C            1.754122253828     1.065766972443    -0.058849224650    12.000000000000
         C            2.509629253828    -1.610808027557     0.047548775350    12.000000000000
         C            3.410511253828    -0.552321027557    -0.258371224650    12.000000000000
         H           -0.939077746172     0.589735972443    -1.514337224650     1.007825032230
         H           -3.364053746172     0.640996972443    -1.145911224650     1.007825032230
         H           -0.441761746172     1.220211972443     1.404551775350     1.007825032230
         H           -3.283428746172    -0.910402027557     1.131336775350     1.007825032230
         H           -1.714779746172    -1.701973027557    -1.368910224650     1.007825032230
         H           -3.487032746172    -1.835672027557    -1.183581224650     1.007825032230
         H           -0.298996746172     2.711510972443    -0.524446224650     1.007825032230
         H           -2.849027746172     2.398074972443     0.509216775350     1.007825032230
         H            0.432839253828    -1.965105027557     0.569621775350     1.007825032230
         H           -2.435345746172    -3.800100027557    -0.542679224650     1.007825032230
         H            2.827640253828    -2.647066027557     0.074475775350     1.007825032230
         H            5.123708253828    -1.672529027557    -0.161860224650     1.007825032230
         H            5.318342253828    -0.021722027557    -0.567740224650     1.007825032230

  Basis Set: AUG-CC-PVTZ
    Blend: AUG-CC-PVTZ
  Basis Set: (AUG-CC-PVTZ AUX)
    Blend: AUG-CC-PVTZ-JKFIT
	 Reference Energy          =    -886.3713618111009964 [Eh]
	 Singles Energy            =      -0.0000000000000000 [Eh]
	 Same-Spin Energy          =      -0.9011908310536237 [Eh]
	 Opposite-Spin Energy      =      -2.7153870150472308 [Eh]
	 Correlation Energy        =      -3.6165778461008546 [Eh]
	 Total Energy              =    -889.9879396572018777 [Eh]

	 ================> DF-SCS-MP2 Energies <==================
	-----------------------------------------------------------
	 SCS Same-Spin Scale       =       0.3333333333333333 [-]
	 SCS Opposite-Spin Scale   =       1.2000000000000000 [-]
	 SCS Same-Spin Energy      =      -0.3003969436845412 [Eh]
	 SCS Opposite-Spin Energy  =      -3.2584644180566769 [Eh]
	 SCS Correlation Energy    =      -3.5588613617412181 [Eh]
	 SCS Total Energy          =    -889.9302231728422612 [Eh]
	-----------------------------------------------------------

  Dipole Moment: [D]
     X:     1.5944      Y:    -5.9337      Z:    -1.8055     Total:     6.4040

*** Psi4 exiting successfully. Buy a developer a beer!
