                               Psi4 1.4a3.dev225

  ==> Input File <==

--------------------------------------------------------------------------
#psi4
#
memory 32 gb

molecule  {
0 1
  O       -1.3191770     0.6538360    -1.0992360
  O       -1.5735610    -2.4640850     0.5135810
  O       -3.5606630    -1.0699430    -0.4600060
  O       -1.4399290     3.1254620     0.1265180
  O        1.1065530    -2.3833650     0.0076020
  N        0.7686360    -0.1579440    -0.3706350
  N        2.9363770    -0.9938720     0.1460080
  N        4.7058880     0.4431110     0.3611260
  C       -1.3698880    -1.0185547     0.5567561
  C       -2.7379840    -0.3746360     0.4578480
  C       -0.6377490    -0.5042940    -0.6790150
  C       -2.3707440     0.9655450    -0.1585060
  C       -1.8992030     1.9895750     0.8571380
  C        1.2309690     1.1190800    -0.4442230
  C        1.6104480    -1.2470590    -0.0585760
  C        2.5474650     1.3753690    -0.1998620
  C        3.3802090     0.2523040     0.0808410
  H       -0.8441360    -0.7686950     1.4698480
  H       -3.2257400    -0.2778790     1.4400230
  H       -0.6227070    -1.2428120    -1.4883720
  H       -3.1941750     1.3785730    -0.7472070
  H       -1.0952130     1.5703990     1.4802000
  H       -2.7410530     2.2466610     1.5166010
  H       -0.6710550    -2.8260740     0.3542250
  H       -3.3063470    -2.0105220    -0.3629290
  H        0.4929290     1.8778260    -0.6840360
  H       -1.2098800     3.8154810     0.7720340
  H        2.9334840     2.3875570    -0.2389120
  H        5.1589650     1.2712730    -0.0008400
  H        5.2635310    -0.4031270     0.3606700
units angstrom
no_reorient  #important for SAPT in psi4, default
symmetry c1  #important for SAPT in psi4, default
}

set PROPERTIES_ORIGIN ["COM"]
properties('MP2/aug-cc-pvtz', properties = ['dipole'])
--------------------------------------------------------------------------

    Molecular point group: c1
  Charge       = 0
  Multiplicity = 1
  Basis Set: AUG-CC-PVTZ
    Blend: AUG-CC-PVTZ
  Basis Set: (AUG-CC-PVTZ AUX)
    Blend: AUG-CC-PVTZ-JKFIT

    Orbital Energies [Eh]
    ---------------------

    Doubly Occupied:

       1A    -20.587290     2A    -20.581733     3A    -20.557233
       4A    -20.554549     5A    -20.519327     6A    -15.633202
       7A    -15.599900     8A    -15.551903     9A    -11.385953
      10A    -11.358325    11A    -11.340879    12A    -11.325571
      13A    -11.304342    14A    -11.298360    15A    -11.296239
      16A    -11.294331    17A    -11.246946    18A     -1.430215
      19A     -1.394161    20A     -1.382238    21A     -1.369323
      22A     -1.335721    23A     -1.303723    24A     -1.271811
      25A     -1.181463    26A     -1.080489    27A     -1.071958
      28A     -1.021172    29A     -0.938079    30A     -0.907222
      31A     -0.877176    32A     -0.830449    33A     -0.814111
      34A     -0.766992    35A     -0.751285    36A     -0.732492
      37A     -0.722769    38A     -0.707539    39A     -0.702967
      40A     -0.685454    41A     -0.673959    42A     -0.654165
      43A     -0.648336    44A     -0.633887    45A     -0.617551
      46A     -0.614434    47A     -0.607509    48A     -0.591568
      49A     -0.577279    50A     -0.565061    51A     -0.554351
      52A     -0.545789    53A     -0.532759    54A     -0.528333
      55A     -0.495517    56A     -0.481424    57A     -0.477160
      58A     -0.465185    59A     -0.457669    60A     -0.455073
      61A     -0.445677    62A     -0.430364    63A     -0.392911
      64A     -0.348776

  @DF-RHF Final Energy:  -886.37050457403484

   => Energetics <=

    Nuclear Repulsion Energy =           1334.8751005517867725
    One-Electron Energy =               -3867.4719528830542004
    Two-Electron Energy =                1646.2263477572328156
    Total Energy =                       -886.3705045740348396
  Basis Set: (AUG-CC-PVTZ AUX)
    Blend: AUG-CC-PVTZ-RI
    Molecular point group: c1

    Geometry (in Angstrom), charge = 0, multiplicity = 1:

       Center              X                  Y                   Z               Mass
    ------------   -----------------  -----------------  -----------------  -----------------
         O           -1.332264879330     0.680004410498    -1.083528756006    15.994914619570
         O           -1.586648879330    -2.437916589502     0.529288243994    15.994914619570
         O           -3.573750879330    -1.043774589502    -0.444298756006    15.994914619570
         O           -1.453016879330     3.151630410498     0.142225243994    15.994914619570
         O            1.093465120670    -2.357196589502     0.023309243994    15.994914619570
         N            0.755548120670    -0.131775589502    -0.354927756006    14.003074004430
         N            2.923289120670    -0.967703589502     0.161715243994    14.003074004430
         N            4.692800120670     0.469279410498     0.376833243994    14.003074004430
         C           -1.382975879330    -0.992386289502     0.572463343994    12.000000000000
         C           -2.751071879330    -0.348467589502     0.473555243994    12.000000000000
         C           -0.650836879330    -0.478125589502    -0.663307756006    12.000000000000
         C           -2.383831879330     0.991713410498    -0.142798756006    12.000000000000
         C           -1.912290879330     2.015743410498     0.872845243994    12.000000000000
         C            1.217881120670     1.145248410498    -0.428515756006    12.000000000000
         C            1.597360120670    -1.220890589502    -0.042868756006    12.000000000000
         C            2.534377120670     1.401537410498    -0.184154756006    12.000000000000
         C            3.367121120670     0.278472410498     0.096548243994    12.000000000000
         H           -0.857223879330    -0.742526589502     1.485555243994     1.007825032230
         H           -3.238827879330    -0.251710589502     1.455730243994     1.007825032230
         H           -0.635794879330    -1.216643589502    -1.472664756006     1.007825032230
         H           -3.207262879330     1.404741410498    -0.731499756006     1.007825032230
         H           -1.108300879330     1.596567410498     1.495907243994     1.007825032230
         H           -2.754140879330     2.272829410498     1.532308243994     1.007825032230
         H           -0.684142879330    -2.799905589502     0.369932243994     1.007825032230
         H           -3.319434879330    -1.984353589502    -0.347221756006     1.007825032230
         H            0.479841120670     1.903994410498    -0.668328756006     1.007825032230
         H           -1.222967879330     3.841649410498     0.787741243994     1.007825032230
         H            2.920396120670     2.413725410498    -0.223204756006     1.007825032230
         H            5.145877120670     1.297441410498     0.014867243994     1.007825032230
         H            5.250443120670    -0.376958589502     0.376377243994     1.007825032230

  Basis Set: AUG-CC-PVTZ
    Blend: AUG-CC-PVTZ
  Basis Set: (AUG-CC-PVTZ AUX)
    Blend: AUG-CC-PVTZ-JKFIT
	 Reference Energy          =    -886.3705045740348396 [Eh]
	 Singles Energy            =      -0.0000000000000000 [Eh]
	 Same-Spin Energy          =      -0.9020911641982400 [Eh]
	 Opposite-Spin Energy      =      -2.7169539961651124 [Eh]
	 Correlation Energy        =      -3.6190451603633522 [Eh]
	 Total Energy              =    -889.9895497343982242 [Eh]

	 ================> DF-SCS-MP2 Energies <==================
	-----------------------------------------------------------
	 SCS Same-Spin Scale       =       0.3333333333333333 [-]
	 SCS Opposite-Spin Scale   =       1.2000000000000000 [-]
	 SCS Same-Spin Energy      =      -0.3006970547327467 [Eh]
	 SCS Opposite-Spin Energy  =      -3.2603447953981348 [Eh]
	 SCS Correlation Energy    =      -3.5610418501308816 [Eh]
	 SCS Total Energy          =    -889.9315464241657310 [Eh]
	-----------------------------------------------------------

  Dipole Moment: [D]
     X:     2.7573      Y:     5.9379      Z:     1.9435     Total:     6.8293

*** Psi4 exiting successfully. Buy a developer a beer!
