                               Psi4 1.4a3.dev225

  ==> Input File <==

--------------------------------------------------------------------------
#psi4
#
memory 32 gb

molecule  {
0 1
  O       -1.3191770     0.6538360    -1.0992360
  O       -1.5735610    -2.4640850     0.5135810
  O       -3.5606630    -1.0699430    -0.4600060
  O       -1.4399290     3.1254620     0.1265180
  O        1.1065530    -2.3833650     0.0076020
  N        0.7686360    -0.1579440    -0.3706350
  N        2.9363770    -0.9938720     0.1460080
  N        4.7058880     0.4431110     0.3611260
  C       -1.3768610    -1.0680440     0.5552780
  C       -2.7379840    -0.3746360     0.4578480
  C       -0.6377490    -0.5042940    -0.6790150
  C       -2.4071312     0.9763310    -0.1259540
  C       -1.8992030     1.9895750     0.8571380
  C        1.2309690     1.1190800    -0.4442230
  C        1.6104480    -1.2470590    -0.0585760
  C        2.5474650     1.3753690    -0.1998620
  C        3.3802090     0.2523040     0.0808410
  H       -0.8441360    -0.7686950     1.4698480
  H       -3.2257400    -0.2778790     1.4400230
  H       -0.6227070    -1.2428120    -1.4883720
  H       -3.1941750     1.3785730    -0.7472070
  H       -1.0952130     1.5703990     1.4802000
  H       -2.7410530     2.2466610     1.5166010
  H       -0.6710550    -2.8260740     0.3542250
  H       -3.3063470    -2.0105220    -0.3629290
  H        0.4929290     1.8778260    -0.6840360
  H       -1.2098800     3.8154810     0.7720340
  H        2.9334840     2.3875570    -0.2389120
  H        5.1589650     1.2712730    -0.0008400
  H        5.2635310    -0.4031270     0.3606700
units angstrom
no_reorient  #important for SAPT in psi4, default
symmetry c1  #important for SAPT in psi4, default
}

set PROPERTIES_ORIGIN ["COM"]
properties('MP2/aug-cc-pvtz', properties = ['dipole'])
--------------------------------------------------------------------------

    Molecular point group: c1
  Charge       = 0
  Multiplicity = 1
  Basis Set: AUG-CC-PVTZ
    Blend: AUG-CC-PVTZ
  Basis Set: (AUG-CC-PVTZ AUX)
    Blend: AUG-CC-PVTZ-JKFIT

    Orbital Energies [Eh]
    ---------------------

    Doubly Occupied:

       1A    -20.588600     2A    -20.575750     3A    -20.559296
       4A    -20.557439     5A    -20.518755     6A    -15.631427
       7A    -15.598945     8A    -15.550845     9A    -11.384859
      10A    -11.357171    11A    -11.336728    12A    -11.323930
      13A    -11.305898    14A    -11.299952    15A    -11.297185
      16A    -11.295158    17A    -11.245552    18A     -1.420238
      19A     -1.392163    20A     -1.384010    21A     -1.371932
      22A     -1.346959    23A     -1.302355    24A     -1.269205
      25A     -1.180083    26A     -1.078135    27A     -1.073348
      28A     -1.016251    29A     -0.937556    30A     -0.905021
      31A     -0.877301    32A     -0.829990    33A     -0.811142
      34A     -0.765486    35A     -0.748235    36A     -0.735054
      37A     -0.721207    38A     -0.709470    39A     -0.702682
      40A     -0.684014    41A     -0.675412    42A     -0.653402
      43A     -0.647166    44A     -0.631606    45A     -0.617828
      46A     -0.614514    47A     -0.605406    48A     -0.592749
      49A     -0.577322    50A     -0.563925    51A     -0.554344
      52A     -0.549298    53A     -0.533994    54A     -0.530415
      55A     -0.495810    56A     -0.482361    57A     -0.478088
      58A     -0.463741    59A     -0.457037    60A     -0.452715
      61A     -0.441790    62A     -0.429416    63A     -0.391397
      64A     -0.347211

  @DF-RHF Final Energy:  -886.37115181901436

   => Energetics <=

    Nuclear Repulsion Energy =           1333.7796583707042828
    One-Electron Energy =               -3865.3490779973753888
    Two-Electron Energy =                1645.1982678076569755
    Total Energy =                       -886.3711518190143579
  Basis Set: (AUG-CC-PVTZ AUX)
    Blend: AUG-CC-PVTZ-RI
    Molecular point group: c1

    Geometry (in Angstrom), charge = 0, multiplicity = 1:

       Center              X                  Y                   Z               Mass
    ------------   -----------------  -----------------  -----------------  -----------------
         O           -1.330124388203     0.681915012162    -1.085062729725    15.994914619570
         O           -1.584508388203    -2.436005987838     0.527754270275    15.994914619570
         O           -3.571610388203    -1.041863987838    -0.445832729725    15.994914619570
         O           -1.450876388203     3.153541012162     0.140691270275    15.994914619570
         O            1.095605611797    -2.355285987838     0.021775270275    15.994914619570
         N            0.757688611797    -0.129864987838    -0.356461729725    14.003074004430
         N            2.925429611797    -0.965792987838     0.160181270275    14.003074004430
         N            4.694940611797     0.471190012162     0.375299270275    14.003074004430
         C           -1.387808388203    -1.039964987838     0.569451270275    12.000000000000
         C           -2.748931388203    -0.346556987838     0.472021270275    12.000000000000
         C           -0.648696388203    -0.476214987838    -0.664841729725    12.000000000000
         C           -2.418078588203     1.004410012162    -0.111780729725    12.000000000000
         C           -1.910150388203     2.017654012162     0.871311270275    12.000000000000
         C            1.220021611797     1.147159012162    -0.430049729725    12.000000000000
         C            1.599500611797    -1.218979987838    -0.044402729725    12.000000000000
         C            2.536517611797     1.403448012162    -0.185688729725    12.000000000000
         C            3.369261611797     0.280383012162     0.095014270275    12.000000000000
         H           -0.855083388203    -0.740615987838     1.484021270275     1.007825032230
         H           -3.236687388203    -0.249799987838     1.454196270275     1.007825032230
         H           -0.633654388203    -1.214732987838    -1.474198729725     1.007825032230
         H           -3.205122388203     1.406652012162    -0.733033729725     1.007825032230
         H           -1.106160388203     1.598478012162     1.494373270275     1.007825032230
         H           -2.752000388203     2.274740012162     1.530774270275     1.007825032230
         H           -0.682002388203    -2.797994987838     0.368398270275     1.007825032230
         H           -3.317294388203    -1.982442987838    -0.348755729725     1.007825032230
         H            0.481981611797     1.905905012162    -0.669862729725     1.007825032230
         H           -1.220827388203     3.843560012162     0.786207270275     1.007825032230
         H            2.922536611797     2.415636012162    -0.224738729725     1.007825032230
         H            5.148017611797     1.299352012162     0.013333270275     1.007825032230
         H            5.252583611797    -0.375047987838     0.374843270275     1.007825032230

  Basis Set: AUG-CC-PVTZ
    Blend: AUG-CC-PVTZ
  Basis Set: (AUG-CC-PVTZ AUX)
    Blend: AUG-CC-PVTZ-JKFIT
	 Reference Energy          =    -886.3711518190143579 [Eh]
	 Singles Energy            =      -0.0000000000000000 [Eh]
	 Same-Spin Energy          =      -0.9020862328605307 [Eh]
	 Opposite-Spin Energy      =      -2.7166926153841242 [Eh]
	 Correlation Energy        =      -3.6187788482446548 [Eh]
	 Total Energy              =    -889.9899306672590455 [Eh]

	 ================> DF-SCS-MP2 Energies <==================
	-----------------------------------------------------------
	 SCS Same-Spin Scale       =       0.3333333333333333 [-]
	 SCS Opposite-Spin Scale   =       1.2000000000000000 [-]
	 SCS Same-Spin Energy      =      -0.3006954109535102 [Eh]
	 SCS Opposite-Spin Energy  =      -3.2600311384609491 [Eh]
	 SCS Correlation Energy    =      -3.5607265494144591 [Eh]
	 SCS Total Energy          =    -889.9318783684287837 [Eh]
	-----------------------------------------------------------

  Dipole Moment: [D]
     X:     2.5866      Y:     5.8731      Z:     2.0293     Total:     6.7306

*** Psi4 exiting successfully. Buy a developer a beer!
