                               Psi4 1.3.2 release

  ==> Input File <==

--------------------------------------------------------------------------
#psi4
#
memory 32 gb

molecule  {
0 1
  O       -1.2481010    -0.6526680     1.0325150
  O       -1.2449750     2.4828510    -0.6861630
  O       -3.2165300     1.5210990     0.7448870
  O       -2.3570290    -3.0668370     0.0949400
  O        1.3605300     2.2470340    -0.0765420
  N        0.8434040     0.0452230     0.2559430
  N        3.0572260     0.7205030    -0.2937270
  N        4.7164630    -0.8366550    -0.5722980
  C       -1.2894840     1.0784300    -0.5920770
  C       -2.7151710     0.6552070    -0.2573930
  C       -0.5254080     0.4815200     0.6000940
  C       -2.5292560    -0.7168860     0.3610560
  C       -2.5283440    -1.8503930    -0.6392900
  C        1.2197750    -1.2614080     0.3112740
  C        1.6603969     1.0928085    -0.0422653
  C        2.5111010    -1.6091400     0.0469950
  C        3.4119830    -0.5506530    -0.2589250
  H       -0.9376060     0.5914040    -1.5148910
  H       -3.3625820     0.6426650    -1.1464650
  H       -0.4402900     1.2218800     1.4039980
  H       -3.2819570    -0.9087340     1.1307830
  H       -1.7133080    -1.7003050    -1.3694640
  H       -3.4855610    -1.8340040    -1.1841350
  H       -0.2975250     2.7131790    -0.5250000
  H       -2.8475560     2.3997430     0.5086630
  H        0.4343110    -1.9634370     0.5690680
  H       -2.4338740    -3.7984320    -0.5432330
  H        2.8291120    -2.6453980     0.0739220
  H        5.1251800    -1.6708610    -0.1624140
  H        5.3198140    -0.0200540    -0.5682940
units angstrom
no_reorient  #important for SAPT in psi4, default
symmetry c1  #important for SAPT in psi4, default
}

set PROPERTIES_ORIGIN ["COM"]
properties('MP2/aug-cc-pvtz', properties = ['dipole'])
--------------------------------------------------------------------------

    Molecular point group: c1
  Charge       = 0
  Multiplicity = 1
  Basis Set: AUG-CC-PVTZ
    Blend: AUG-CC-PVTZ
  Basis Set: (AUG-CC-PVTZ AUX)
    Blend: AUG-CC-PVTZ-JKFIT

    Orbital Energies [Eh]
    ---------------------

    Doubly Occupied:

       1A    -20.583291     2A    -20.582989     3A    -20.562810
       4A    -20.560482     5A    -20.537848     6A    -15.637652
       7A    -15.590739     8A    -15.546998     9A    -11.388997
      10A    -11.344411    11A    -11.343891    12A    -11.325649
      13A    -11.302334    14A    -11.300445    15A    -11.298621
      16A    -11.295689    17A    -11.247602    18A     -1.441270
      19A     -1.418108    20A     -1.383605    21A     -1.374661
      22A     -1.350706    23A     -1.314315    24A     -1.271069
      25A     -1.157241    26A     -1.081346    27A     -1.069977
      28A     -1.024499    29A     -0.934860    30A     -0.918662
      31A     -0.867652    32A     -0.827828    33A     -0.813743
      34A     -0.760142    35A     -0.754806    36A     -0.741110
      37A     -0.718730    38A     -0.703944    39A     -0.701057
      40A     -0.684311    41A     -0.674265    42A     -0.659915
      43A     -0.655910    44A     -0.641133    45A     -0.623607
      46A     -0.616906    47A     -0.605781    48A     -0.597725
      49A     -0.577308    50A     -0.570096    51A     -0.555804
      52A     -0.547115    53A     -0.543918    54A     -0.535772
      55A     -0.504122    56A     -0.479562    57A     -0.477478
      58A     -0.472389    59A     -0.462611    60A     -0.456371
      61A     -0.442271    62A     -0.419542    63A     -0.385934
      64A     -0.348613

  @DF-RHF Final Energy:  -886.36163703452723

   => Energetics <=

    Nuclear Repulsion Energy =           1324.6716287731803732
    One-Electron Energy =               -3846.8300545964179946
    Two-Electron Energy =                1635.7967887887107281
    Total Energy =                       -886.3616370345271207
  Basis Set: (AUG-CC-PVTZ AUX)
    Blend: AUG-CC-PVTZ-RI
    Molecular point group: c1

    Geometry (in Angstrom), charge = 0, multiplicity = 1:

       Center              X                  Y                   Z               Mass
    ------------   -----------------  -----------------  -----------------  -----------------
         O           -1.243401596481    -0.653920561381     1.031668999049    15.994914619570
         O           -1.240275596481     2.481598438619    -0.687009000951    15.994914619570
         O           -3.211830596481     1.519846438619     0.744040999049    15.994914619570
         O           -2.352329596481    -3.068089561381     0.094093999049    15.994914619570
         O            1.365229403519     2.245781438619    -0.077388000951    15.994914619570
         N            0.848103403519     0.043970438619     0.255096999049    14.003074004430
         N            3.061925403519     0.719250438619    -0.294573000951    14.003074004430
         N            4.721162403519    -0.837907561381    -0.573144000951    14.003074004430
         C           -1.284784596481     1.077177438619    -0.592923000951    12.000000000000
         C           -2.710471596481     0.653954438619    -0.258239000951    12.000000000000
         C           -0.520708596481     0.480267438619     0.599247999049    12.000000000000
         C           -2.524556596481    -0.718138561381     0.360209999049    12.000000000000
         C           -2.523644596481    -1.851645561381    -0.640136000951    12.000000000000
         C            1.224474403519    -1.262660561381     0.310427999049    12.000000000000
         C            1.665096303519     1.091555938619    -0.043111300951    12.000000000000
         C            2.515800403519    -1.610392561381     0.046148999049    12.000000000000
         C            3.416682403519    -0.551905561381    -0.259771000951    12.000000000000
         H           -0.932906596481     0.590151438619    -1.515737000951     1.007825032230
         H           -3.357882596481     0.641412438619    -1.147311000951     1.007825032230
         H           -0.435590596481     1.220627438619     1.403151999049     1.007825032230
         H           -3.277257596481    -0.909986561381     1.129936999049     1.007825032230
         H           -1.708608596481    -1.701557561381    -1.370310000951     1.007825032230
         H           -3.480861596481    -1.835256561381    -1.184981000951     1.007825032230
         H           -0.292825596481     2.711926438619    -0.525846000951     1.007825032230
         H           -2.842856596481     2.398490438619     0.507816999049     1.007825032230
         H            0.439010403519    -1.964689561381     0.568221999049     1.007825032230
         H           -2.429174596481    -3.799684561381    -0.544079000951     1.007825032230
         H            2.833811403519    -2.646650561381     0.073075999049     1.007825032230
         H            5.129879403519    -1.672113561381    -0.163260000951     1.007825032230
         H            5.324513403519    -0.021306561381    -0.569140000951     1.007825032230

  Basis Set: AUG-CC-PVTZ
    Blend: AUG-CC-PVTZ
  Basis Set: (AUG-CC-PVTZ AUX)
    Blend: AUG-CC-PVTZ-JKFIT
	 Reference Energy          =    -886.3616370345272344 [Eh]
	 Singles Energy            =      -0.0000000000000000 [Eh]
	 Same-Spin Energy          =      -0.9008603373780151 [Eh]
	 Opposite-Spin Energy      =      -2.7157712626873036 [Eh]
	 Correlation Energy        =      -3.6166316000653187 [Eh]
	 Total Energy              =    -889.9782686345926095 [Eh]

	 ================> DF-SCS-MP2 Energies <==================
	-----------------------------------------------------------
	 SCS Same-Spin Scale       =       0.3333333333333333 [-]
	 SCS Opposite-Spin Scale   =       1.2000000000000000 [-]
	 SCS Same-Spin Energy      =      -0.3002867791260050 [Eh]
	 SCS Opposite-Spin Energy  =      -3.2589255152247643 [Eh]
	 SCS Correlation Energy    =      -3.5592122943507691 [Eh]
	 SCS Total Energy          =    -889.9208493288780346 [Eh]
	-----------------------------------------------------------

  Dipole Moment: [D]
     X:     1.0663      Y:    -5.4981      Z:    -1.7530     Total:     5.8685

*** Psi4 exiting successfully. Buy a developer a beer!
