                               Psi4 1.3.2 release

  ==> Input File <==

--------------------------------------------------------------------------
#psi4
#
memory 32 gb

molecule  {
0 1
  O       -1.2521943    -0.6428009     1.0392626
  O       -1.2449750     2.4828510    -0.6861630
  O       -3.2165300     1.5210990     0.7448870
  O       -2.3570290    -3.0668370     0.0949400
  O        1.3605300     2.2470340    -0.0765420
  N        0.8434040     0.0452230     0.2559430
  N        3.0572260     0.7205030    -0.2937270
  N        4.7164630    -0.8366550    -0.5722980
  C       -1.2894840     1.0784300    -0.5920770
  C       -2.7151710     0.6552070    -0.2573930
  C       -0.5254080     0.4815200     0.6000940
  C       -2.5292560    -0.7168860     0.3610560
  C       -2.5407581    -1.8474007    -0.6426049
  C        1.2197750    -1.2614080     0.3112740
  C        1.7555940     1.0674350    -0.0594030
  C        2.5111010    -1.6091400     0.0469950
  C        3.4119830    -0.5506530    -0.2589250
  H       -0.9376060     0.5914040    -1.5148910
  H       -3.3625820     0.6426650    -1.1464650
  H       -0.4402900     1.2218800     1.4039980
  H       -3.2819570    -0.9087340     1.1307830
  H       -1.7133080    -1.7003050    -1.3694640
  H       -3.4855610    -1.8340040    -1.1841350
  H       -0.2975250     2.7131790    -0.5250000
  H       -2.8475560     2.3997430     0.5086630
  H        0.4343110    -1.9634370     0.5690680
  H       -2.4338740    -3.7984320    -0.5432330
  H        2.8291120    -2.6453980     0.0739220
  H        5.1251800    -1.6708610    -0.1624140
  H        5.3198140    -0.0200540    -0.5682940
units angstrom
no_reorient  #important for SAPT in psi4, default
symmetry c1  #important for SAPT in psi4, default
}

set PROPERTIES_ORIGIN ["COM"]
properties('MP2/aug-cc-pvtz', properties = ['dipole'])
--------------------------------------------------------------------------

    Molecular point group: c1
  Charge       = 0
  Multiplicity = 1
  Basis Set: AUG-CC-PVTZ
    Blend: AUG-CC-PVTZ
  Basis Set: (AUG-CC-PVTZ AUX)
    Blend: AUG-CC-PVTZ-JKFIT

    Orbital Energies [Eh]
    ---------------------

    Doubly Occupied:

       1A    -20.581999     2A    -20.581834     3A    -20.557580
       4A    -20.557075     5A    -20.521937     6A    -15.636941
       7A    -15.599879     8A    -15.553383     9A    -11.388278
      10A    -11.357898    11A    -11.341135    12A    -11.328694
      13A    -11.301432    14A    -11.297196    15A    -11.296476
      16A    -11.292770    17A    -11.248645    18A     -1.429941
      19A     -1.396426    20A     -1.379540    21A     -1.371590
      22A     -1.346124    23A     -1.306102    24A     -1.273866
      25A     -1.182271    26A     -1.081980    27A     -1.068253
      28A     -1.021334    29A     -0.935951    30A     -0.909649
      31A     -0.877353    32A     -0.831952    33A     -0.812305
      34A     -0.767183    35A     -0.752504    36A     -0.735770
      37A     -0.720086    38A     -0.702186    39A     -0.699117
      40A     -0.685520    41A     -0.672750    42A     -0.654471
      43A     -0.651941    44A     -0.638346    45A     -0.620898
      46A     -0.614595    47A     -0.606462    48A     -0.593831
      49A     -0.575544    50A     -0.569503    51A     -0.553638
      52A     -0.545992    53A     -0.537386    54A     -0.531890
      55A     -0.498136    56A     -0.478158    57A     -0.474475
      58A     -0.462097    59A     -0.459945    60A     -0.452477
      61A     -0.441073    62A     -0.433145    63A     -0.395192
      64A     -0.350014

  @DF-RHF Final Energy:  -886.37334848090472

   => Energetics <=

    Nuclear Repulsion Energy =           1323.5348321604690227
    One-Electron Energy =               -3844.7321388420991752
    Two-Electron Energy =                1634.8239582007252011
    Total Energy =                       -886.3733484809047241
  Basis Set: (AUG-CC-PVTZ AUX)
    Blend: AUG-CC-PVTZ-RI
    Molecular point group: c1

    Geometry (in Angstrom), charge = 0, multiplicity = 1:

       Center              X                  Y                   Z               Mass
    ------------   -----------------  -----------------  -----------------  -----------------
         O           -1.251312170393    -0.643597856384     1.038982259701    15.994914619570
         O           -1.244092870393     2.482054043616    -0.686443340299    15.994914619570
         O           -3.215647870393     1.520302043616     0.744606659701    15.994914619570
         O           -2.356146870393    -3.067633956384     0.094659659701    15.994914619570
         O            1.361412129607     2.246237043616    -0.076822340299    15.994914619570
         N            0.844286129607     0.044426043616     0.255662659701    14.003074004430
         N            3.058108129607     0.719706043616    -0.294007340299    14.003074004430
         N            4.717345129607    -0.837451956384    -0.572578340299    14.003074004430
         C           -1.288601870393     1.077633043616    -0.592357340299    12.000000000000
         C           -2.714288870393     0.654410043616    -0.257673340299    12.000000000000
         C           -0.524525870393     0.480723043616     0.599813659701    12.000000000000
         C           -2.528373870393    -0.717682956384     0.360775659701    12.000000000000
         C           -2.539875970393    -1.848197656384    -0.642885240299    12.000000000000
         C            1.220657129607    -1.262204956384     0.310993659701    12.000000000000
         C            1.756476129607     1.066638043616    -0.059683340299    12.000000000000
         C            2.511983129607    -1.609936956384     0.046714659701    12.000000000000
         C            3.412865129607    -0.551449956384    -0.259205340299    12.000000000000
         H           -0.936723870393     0.590607043616    -1.515171340299     1.007825032230
         H           -3.361699870393     0.641868043616    -1.146745340299     1.007825032230
         H           -0.439407870393     1.221083043616     1.403717659701     1.007825032230
         H           -3.281074870393    -0.909530956384     1.130502659701     1.007825032230
         H           -1.712425870393    -1.701101956384    -1.369744340299     1.007825032230
         H           -3.484678870393    -1.834800956384    -1.184415340299     1.007825032230
         H           -0.296642870393     2.712382043616    -0.525280340299     1.007825032230
         H           -2.846673870393     2.398946043616     0.508382659701     1.007825032230
         H            0.435193129607    -1.964233956384     0.568787659701     1.007825032230
         H           -2.432991870393    -3.799228956384    -0.543513340299     1.007825032230
         H            2.829994129607    -2.646194956384     0.073641659701     1.007825032230
         H            5.126062129607    -1.671657956384    -0.162694340299     1.007825032230
         H            5.320696129607    -0.020850956384    -0.568574340299     1.007825032230

  Basis Set: AUG-CC-PVTZ
    Blend: AUG-CC-PVTZ
  Basis Set: (AUG-CC-PVTZ AUX)
    Blend: AUG-CC-PVTZ-JKFIT
	 Reference Energy          =    -886.3733484809047241 [Eh]
	 Singles Energy            =      -0.0000000000000000 [Eh]
	 Same-Spin Energy          =      -0.9012178830497759 [Eh]
	 Opposite-Spin Energy      =      -2.7149277277299904 [Eh]
	 Correlation Energy        =      -3.6161456107797663 [Eh]
	 Total Energy              =    -889.9894940916844917 [Eh]

	 ================> DF-SCS-MP2 Energies <==================
	-----------------------------------------------------------
	 SCS Same-Spin Scale       =       0.3333333333333333 [-]
	 SCS Opposite-Spin Scale   =       1.2000000000000000 [-]
	 SCS Same-Spin Energy      =      -0.3004059610165919 [Eh]
	 SCS Opposite-Spin Energy  =      -3.2579132732759883 [Eh]
	 SCS Correlation Energy    =      -3.5583192342925805 [Eh]
	 SCS Total Energy          =    -889.9316677151972499 [Eh]
	-----------------------------------------------------------

  Dipole Moment: [D]
     X:     1.6957      Y:    -5.9584      Z:    -1.8411     Total:     6.4628

*** Psi4 exiting successfully. Buy a developer a beer!
