                               Psi4 1.3.2 release

  ==> Input File <==

--------------------------------------------------------------------------
#psi4
#
memory 32 gb

molecule  {
0 1
  O       -1.2481010    -0.6526680     1.0325150
  O       -1.2449750     2.4828510    -0.6861630
  O       -3.2168062     1.5395811     0.7284770
  O       -2.3570290    -3.0668370     0.0949400
  O        1.3605300     2.2470340    -0.0765420
  N        0.8434040     0.0452230     0.2559430
  N        3.0572260     0.7205030    -0.2937270
  N        4.7164630    -0.8366550    -0.5722980
  C       -1.2894840     1.0784300    -0.5920770
  C       -2.7151710     0.6552070    -0.2573930
  C       -0.5254080     0.4815200     0.6000940
  C       -2.5204867    -0.7259336     0.3377805
  C       -2.5283440    -1.8503930    -0.6392900
  C        1.2197750    -1.2614080     0.3112740
  C        1.7555940     1.0674350    -0.0594030
  C        2.5111010    -1.6091400     0.0469950
  C        3.4119830    -0.5506530    -0.2589250
  H       -0.9376060     0.5914040    -1.5148910
  H       -3.3625820     0.6426650    -1.1464650
  H       -0.4402900     1.2218800     1.4039980
  H       -3.2819570    -0.9087340     1.1307830
  H       -1.7133080    -1.7003050    -1.3694640
  H       -3.4855610    -1.8340040    -1.1841350
  H       -0.2975250     2.7131790    -0.5250000
  H       -2.8475560     2.3997430     0.5086630
  H        0.4343110    -1.9634370     0.5690680
  H       -2.4338740    -3.7984320    -0.5432330
  H        2.8291120    -2.6453980     0.0739220
  H        5.1251800    -1.6708610    -0.1624140
  H        5.3198140    -0.0200540    -0.5682940
units angstrom
no_reorient  #important for SAPT in psi4, default
symmetry c1  #important for SAPT in psi4, default
}

set PROPERTIES_ORIGIN ["COM"]
properties('MP2/aug-cc-pvtz', properties = ['dipole'])
--------------------------------------------------------------------------

    Molecular point group: c1
  Charge       = 0
  Multiplicity = 1
  Basis Set: AUG-CC-PVTZ
    Blend: AUG-CC-PVTZ
  Basis Set: (AUG-CC-PVTZ AUX)
    Blend: AUG-CC-PVTZ-JKFIT

    Orbital Energies [Eh]
    ---------------------

    Doubly Occupied:

       1A    -20.583385     2A    -20.581838     3A    -20.556564
       4A    -20.556059     5A    -20.521877     6A    -15.636779
       7A    -15.599834     8A    -15.553294     9A    -11.388145
      10A    -11.357828    11A    -11.341350    12A    -11.328528
      13A    -11.301809    14A    -11.298373    15A    -11.296446
      16A    -11.293853    17A    -11.248569    18A     -1.429243
      19A     -1.396379    20A     -1.381722    21A     -1.373859
      22A     -1.347538    23A     -1.305984    24A     -1.273718
      25A     -1.182201    26A     -1.082025    27A     -1.071679
      28A     -1.022388    29A     -0.937744    30A     -0.909487
      31A     -0.877447    32A     -0.831995    33A     -0.811197
      34A     -0.766885    35A     -0.752338    36A     -0.736220
      37A     -0.720625    38A     -0.705802    39A     -0.699026
      40A     -0.685702    41A     -0.674602    42A     -0.655183
      43A     -0.651782    44A     -0.638288    45A     -0.620735
      46A     -0.615717    47A     -0.607447    48A     -0.593907
      49A     -0.576511    50A     -0.566537    51A     -0.554634
      52A     -0.547159    53A     -0.536793    54A     -0.532804
      55A     -0.497626    56A     -0.478234    57A     -0.473252
      58A     -0.463475    59A     -0.459810    60A     -0.452897
      61A     -0.441517    62A     -0.433133    63A     -0.395204
      64A     -0.349975

  @DF-RHF Final Energy:  -886.37321290922694

   => Energetics <=

    Nuclear Repulsion Energy =           1323.8988542178794887
    One-Electron Energy =               -3845.4182158602138770
    Two-Electron Energy =                1635.1461487331073386
    Total Energy =                       -886.3732129092270497
  Basis Set: (AUG-CC-PVTZ AUX)
    Blend: AUG-CC-PVTZ-RI
    Molecular point group: c1

    Geometry (in Angstrom), charge = 0, multiplicity = 1:

       Center              X                  Y                   Z               Mass
    ------------   -----------------  -----------------  -----------------  -----------------
         O           -1.248515759603    -0.653437465604     1.034743780909    15.994914619570
         O           -1.245389759603     2.482081534396    -0.683934219091    15.994914619570
         O           -3.217220959603     1.538811634396     0.730705780909    15.994914619570
         O           -2.357443759603    -3.067606465604     0.097168780909    15.994914619570
         O            1.360115240397     2.246264534396    -0.074313219091    15.994914619570
         N            0.842989240397     0.044453534396     0.258171780909    14.003074004430
         N            3.056811240397     0.719733534396    -0.291498219091    14.003074004430
         N            4.716048240397    -0.837424465604    -0.570069219091    14.003074004430
         C           -1.289898759603     1.077660534396    -0.589848219091    12.000000000000
         C           -2.715585759603     0.654437534396    -0.255164219091    12.000000000000
         C           -0.525822759603     0.480750534396     0.602322780909    12.000000000000
         C           -2.520901459603    -0.726703065604     0.340009280909    12.000000000000
         C           -2.528758759603    -1.851162465604    -0.637061219091    12.000000000000
         C            1.219360240397    -1.262177465604     0.313502780909    12.000000000000
         C            1.755179240397     1.066665534396    -0.057174219091    12.000000000000
         C            2.510686240397    -1.609909465604     0.049223780909    12.000000000000
         C            3.411568240397    -0.551422465604    -0.256696219091    12.000000000000
         H           -0.938020759603     0.590634534396    -1.512662219091     1.007825032230
         H           -3.362996759603     0.641895534396    -1.144236219091     1.007825032230
         H           -0.440704759603     1.221110534396     1.406226780909     1.007825032230
         H           -3.282371759603    -0.909503465604     1.133011780909     1.007825032230
         H           -1.713722759603    -1.701074465604    -1.367235219091     1.007825032230
         H           -3.485975759603    -1.834773465604    -1.181906219091     1.007825032230
         H           -0.297939759603     2.712409534396    -0.522771219091     1.007825032230
         H           -2.847970759603     2.398973534396     0.510891780909     1.007825032230
         H            0.433896240397    -1.964206465604     0.571296780909     1.007825032230
         H           -2.434288759603    -3.799201465604    -0.541004219091     1.007825032230
         H            2.828697240397    -2.646167465604     0.076150780909     1.007825032230
         H            5.124765240397    -1.671630465604    -0.160185219091     1.007825032230
         H            5.319399240397    -0.020823465604    -0.566065219091     1.007825032230

  Basis Set: AUG-CC-PVTZ
    Blend: AUG-CC-PVTZ
  Basis Set: (AUG-CC-PVTZ AUX)
    Blend: AUG-CC-PVTZ-JKFIT
	 Reference Energy          =    -886.3732129092269361 [Eh]
	 Singles Energy            =      -0.0000000000000000 [Eh]
	 Same-Spin Energy          =      -0.9011882567628828 [Eh]
	 Opposite-Spin Energy      =      -2.7145184982105910 [Eh]
	 Correlation Energy        =      -3.6157067549734738 [Eh]
	 Total Energy              =    -889.9889196642004663 [Eh]

	 ================> DF-SCS-MP2 Energies <==================
	-----------------------------------------------------------
	 SCS Same-Spin Scale       =       0.3333333333333333 [-]
	 SCS Opposite-Spin Scale   =       1.2000000000000000 [-]
	 SCS Same-Spin Energy      =      -0.3003960855876276 [Eh]
	 SCS Opposite-Spin Energy  =      -3.2574221978527089 [Eh]
	 SCS Correlation Energy    =      -3.5578182834403367 [Eh]
	 SCS Total Energy          =    -889.9310311926673194 [Eh]
	-----------------------------------------------------------

  Dipole Moment: [D]
     X:     1.7080      Y:    -6.0087      Z:    -1.8305     Total:     6.5094

*** Psi4 exiting successfully. Buy a developer a beer!
