                               Psi4 1.3.2 release

  ==> Input File <==

--------------------------------------------------------------------------
#psi4
#
memory 32 gb

molecule  {
0 1
  O       -1.2481010    -0.6526680     1.0325150
  O       -1.2519036     2.4823377    -0.6963002
  O       -3.2165300     1.5210990     0.7448870
  O       -2.3570290    -3.0668370     0.0949400
  O        1.3605300     2.2470340    -0.0765420
  N        0.8434040     0.0452230     0.2559430
  N        3.0572260     0.7205030    -0.2937270
  N        4.7164630    -0.8366550    -0.5722980
  C       -1.2894840     1.0784300    -0.5920770
  C       -2.7151710     0.6552070    -0.2573930
  C       -0.5290220     0.4692155     0.5961741
  C       -2.5292560    -0.7168860     0.3610560
  C       -2.5283440    -1.8503930    -0.6392900
  C        1.2197750    -1.2614080     0.3112740
  C        1.7555940     1.0674350    -0.0594030
  C        2.5111010    -1.6091400     0.0469950
  C        3.4119830    -0.5506530    -0.2589250
  H       -0.9376060     0.5914040    -1.5148910
  H       -3.3625820     0.6426650    -1.1464650
  H       -0.4402900     1.2218800     1.4039980
  H       -3.2819570    -0.9087340     1.1307830
  H       -1.7133080    -1.7003050    -1.3694640
  H       -3.4855610    -1.8340040    -1.1841350
  H       -0.2975250     2.7131790    -0.5250000
  H       -2.8475560     2.3997430     0.5086630
  H        0.4343110    -1.9634370     0.5690680
  H       -2.4338740    -3.7984320    -0.5432330
  H        2.8291120    -2.6453980     0.0739220
  H        5.1251800    -1.6708610    -0.1624140
  H        5.3198140    -0.0200540    -0.5682940
units angstrom
no_reorient  #important for SAPT in psi4, default
symmetry c1  #important for SAPT in psi4, default
}

set PROPERTIES_ORIGIN ["COM"]
properties('MP2/aug-cc-pvtz', properties = ['dipole'])
--------------------------------------------------------------------------

    Molecular point group: c1
  Charge       = 0
  Multiplicity = 1
  Basis Set: AUG-CC-PVTZ
    Blend: AUG-CC-PVTZ
  Basis Set: (AUG-CC-PVTZ AUX)
    Blend: AUG-CC-PVTZ-JKFIT

    Orbital Energies [Eh]
    ---------------------

    Doubly Occupied:

       1A    -20.582854     2A    -20.582536     3A    -20.558031
       4A    -20.557653     5A    -20.522201     6A    -15.636945
       7A    -15.599895     8A    -15.553526     9A    -11.388547
      10A    -11.357925    11A    -11.341863    12A    -11.328486
      13A    -11.301521    14A    -11.297486    15A    -11.296177
      16A    -11.292753    17A    -11.248585    18A     -1.432033
      19A     -1.396954    20A     -1.379853    21A     -1.373463
      22A     -1.345448    23A     -1.306264    24A     -1.274098
      25A     -1.182378    26A     -1.081852    27A     -1.068475
      28A     -1.021251    29A     -0.935174    30A     -0.909874
      31A     -0.877362    32A     -0.831179    33A     -0.812858
      34A     -0.767290    35A     -0.752776    36A     -0.734817
      37A     -0.720494    38A     -0.702909    39A     -0.698795
      40A     -0.685979    41A     -0.672808    42A     -0.654279
      43A     -0.651792    44A     -0.638650    45A     -0.620823
      46A     -0.614932    47A     -0.606840    48A     -0.593634
      49A     -0.576090    50A     -0.569734    51A     -0.554490
      52A     -0.545812    53A     -0.537822    54A     -0.531359
      55A     -0.498096    56A     -0.477899    57A     -0.474390
      58A     -0.462438    59A     -0.460117    60A     -0.452641
      61A     -0.440048    62A     -0.433202    63A     -0.394986
      64A     -0.349850

  @DF-RHF Final Energy:  -886.37266290080856

   => Energetics <=

    Nuclear Repulsion Energy =           1323.6982914956909099
    One-Electron Energy =               -3845.0393240876665004
    Two-Electron Energy =                1634.9683696911672541
    Total Energy =                       -886.3726629008085638
  Basis Set: (AUG-CC-PVTZ AUX)
    Blend: AUG-CC-PVTZ-RI
    Molecular point group: c1

    Geometry (in Angstrom), charge = 0, multiplicity = 1:

       Center              X                  Y                   Z               Mass
    ------------   -----------------  -----------------  -----------------  -----------------
         O           -1.247466728918    -0.652026799101     1.033375537750    15.994914619570
         O           -1.251269328918     2.482978900899    -0.695439662250    15.994914619570
         O           -3.215895728918     1.521740200899     0.745747537750    15.994914619570
         O           -2.356394728918    -3.066195799101     0.095800537750    15.994914619570
         O            1.361164271082     2.247675200899    -0.075681462250    15.994914619570
         N            0.844038271082     0.045864200899     0.256803537750    14.003074004430
         N            3.057860271082     0.721144200899    -0.292866462250    14.003074004430
         N            4.717097271082    -0.836013799101    -0.571437462250    14.003074004430
         C           -1.288849728918     1.079071200899    -0.591216462250    12.000000000000
         C           -2.714536728918     0.655848200899    -0.256532462250    12.000000000000
         C           -0.528387728918     0.469856700899     0.597034637750    12.000000000000
         C           -2.528621728918    -0.716244799101     0.361916537750    12.000000000000
         C           -2.527709728918    -1.849751799101    -0.638429462250    12.000000000000
         C            1.220409271082    -1.260766799101     0.312134537750    12.000000000000
         C            1.756228271082     1.068076200899    -0.058542462250    12.000000000000
         C            2.511735271082    -1.608498799101     0.047855537750    12.000000000000
         C            3.412617271082    -0.550011799101    -0.258064462250    12.000000000000
         H           -0.936971728918     0.592045200899    -1.514030462250     1.007825032230
         H           -3.361947728918     0.643306200899    -1.145604462250     1.007825032230
         H           -0.439655728918     1.222521200899     1.404858537750     1.007825032230
         H           -3.281322728918    -0.908092799101     1.131643537750     1.007825032230
         H           -1.712673728918    -1.699663799101    -1.368603462250     1.007825032230
         H           -3.484926728918    -1.833362799101    -1.183274462250     1.007825032230
         H           -0.296890728918     2.713820200899    -0.524139462250     1.007825032230
         H           -2.846921728918     2.400384200899     0.509523537750     1.007825032230
         H            0.434945271082    -1.962795799101     0.569928537750     1.007825032230
         H           -2.433239728918    -3.797790799101    -0.542372462250     1.007825032230
         H            2.829746271082    -2.644756799101     0.074782537750     1.007825032230
         H            5.125814271082    -1.670219799101    -0.161553462250     1.007825032230
         H            5.320448271082    -0.019412799101    -0.567433462250     1.007825032230

  Basis Set: AUG-CC-PVTZ
    Blend: AUG-CC-PVTZ
  Basis Set: (AUG-CC-PVTZ AUX)
    Blend: AUG-CC-PVTZ-JKFIT
	 Reference Energy          =    -886.3726629008085638 [Eh]
	 Singles Energy            =      -0.0000000000000000 [Eh]
	 Same-Spin Energy          =      -0.9014616774250420 [Eh]
	 Opposite-Spin Energy      =      -2.7151934026743101 [Eh]
	 Correlation Energy        =      -3.6166550800993522 [Eh]
	 Total Energy              =    -889.9893179809079129 [Eh]

	 ================> DF-SCS-MP2 Energies <==================
	-----------------------------------------------------------
	 SCS Same-Spin Scale       =       0.3333333333333333 [-]
	 SCS Opposite-Spin Scale   =       1.2000000000000000 [-]
	 SCS Same-Spin Energy      =      -0.3004872258083473 [Eh]
	 SCS Opposite-Spin Energy  =      -3.2582320832091720 [Eh]
	 SCS Correlation Energy    =      -3.5587193090175191 [Eh]
	 SCS Total Energy          =    -889.9313822098260971 [Eh]
	-----------------------------------------------------------

  Dipole Moment: [D]
     X:     1.7051      Y:    -5.9827      Z:    -1.8086     Total:     6.4785

*** Psi4 exiting successfully. Buy a developer a beer!
