                               Psi4 1.3.2 release

  ==> Input File <==

--------------------------------------------------------------------------
#psi4
#
memory 32 gb

molecule  {
0 1
  O       -1.2369056    -0.6483852     1.0102690
  O       -1.2449750     2.4828510    -0.6861630
  O       -3.2165300     1.5210990     0.7448870
  O       -2.3570290    -3.0668370     0.0949400
  O        1.3605300     2.2470340    -0.0765420
  N        0.8434040     0.0452230     0.2559430
  N        3.0572260     0.7205030    -0.2937270
  N        4.7164630    -0.8366550    -0.5722980
  C       -1.2894840     1.0784300    -0.5920770
  C       -2.7151710     0.6552070    -0.2573930
  C       -0.5254080     0.4815200     0.6000940
  C       -2.5292560    -0.7168860     0.3610560
  C       -2.5283440    -1.8503930    -0.6392900
  C        1.2197750    -1.2614080     0.3112740
  C        1.7555940     1.0674350    -0.0594030
  C        2.5111010    -1.6091400     0.0469950
  C        3.4119830    -0.5506530    -0.2589250
  H       -0.9376060     0.5914040    -1.5148910
  H       -3.3625820     0.6426650    -1.1464650
  H       -0.4402900     1.2218800     1.4039980
  H       -3.2955036    -0.9085733     1.1173395
  H       -1.7133080    -1.7003050    -1.3694640
  H       -3.4855610    -1.8340040    -1.1841350
  H       -0.2975250     2.7131790    -0.5250000
  H       -2.8475560     2.3997430     0.5086630
  H        0.4343110    -1.9634370     0.5690680
  H       -2.4338740    -3.7984320    -0.5432330
  H        2.8291120    -2.6453980     0.0739220
  H        5.1251800    -1.6708610    -0.1624140
  H        5.3198140    -0.0200540    -0.5682940
units angstrom
no_reorient  #important for SAPT in psi4, default
symmetry c1  #important for SAPT in psi4, default
}

set PROPERTIES_ORIGIN ["COM"]
properties('MP2/aug-cc-pvtz', properties = ['dipole'])
--------------------------------------------------------------------------

    Molecular point group: c1
  Charge       = 0
  Multiplicity = 1
  Basis Set: AUG-CC-PVTZ
    Blend: AUG-CC-PVTZ
  Basis Set: (AUG-CC-PVTZ AUX)
    Blend: AUG-CC-PVTZ-JKFIT

    Orbital Energies [Eh]
    ---------------------

    Doubly Occupied:

       1A    -20.582490     2A    -20.581557     3A    -20.557903
       4A    -20.556610     5A    -20.521580     6A    -15.636147
       7A    -15.599572     8A    -15.552953     9A    -11.387760
      10A    -11.357505    11A    -11.340659    12A    -11.328113
      13A    -11.301240    14A    -11.298107    15A    -11.295847
      16A    -11.292840    17A    -11.248204    18A     -1.433440
      19A     -1.396589    20A     -1.380232    21A     -1.373707
      22A     -1.346181    23A     -1.305667    24A     -1.273324
      25A     -1.181879    26A     -1.081674    27A     -1.068608
      28A     -1.021460    29A     -0.935334    30A     -0.909271
      31A     -0.877142    32A     -0.832641    33A     -0.812465
      34A     -0.766716    35A     -0.752857    36A     -0.736923
      37A     -0.720218    38A     -0.703118    39A     -0.698614
      40A     -0.686414    41A     -0.673066    42A     -0.655836
      43A     -0.651205    44A     -0.638507    45A     -0.620783
      46A     -0.614386    47A     -0.607114    48A     -0.593486
      49A     -0.576138    50A     -0.572239    51A     -0.553985
      52A     -0.545379    53A     -0.537281    54A     -0.531675
      55A     -0.497699    56A     -0.477573    57A     -0.474127
      58A     -0.462604    59A     -0.459742    60A     -0.452365
      61A     -0.440217    62A     -0.432601    63A     -0.394816
      64A     -0.349592

  @DF-RHF Final Energy:  -886.37388325083793

   => Energetics <=

    Nuclear Repulsion Energy =           1324.4186656250260512
    One-Electron Energy =               -3846.4931439659626449
    Two-Electron Energy =                1635.7005950900984317
    Total Energy =                       -886.3738832508379346
  Basis Set: (AUG-CC-PVTZ AUX)
    Blend: AUG-CC-PVTZ-RI
    Molecular point group: c1

    Geometry (in Angstrom), charge = 0, multiplicity = 1:

       Center              X                  Y                   Z               Mass
    ------------   -----------------  -----------------  -----------------  -----------------
         O           -1.237586122285    -0.648667662374     1.011788520307    15.994914619570
         O           -1.245655522285     2.482568537626    -0.684643479693    15.994914619570
         O           -3.217210522285     1.520816537626     0.746406520307    15.994914619570
         O           -2.357709522285    -3.067119462374     0.096459520307    15.994914619570
         O            1.359849477715     2.246751537626    -0.075022479693    15.994914619570
         N            0.842723477715     0.044940537626     0.257462520307    14.003074004430
         N            3.056545477715     0.720220537626    -0.292207479693    14.003074004430
         N            4.715782477715    -0.836937462374    -0.570778479693    14.003074004430
         C           -1.290164522285     1.078147537626    -0.590557479693    12.000000000000
         C           -2.715851522285     0.654924537626    -0.255873479693    12.000000000000
         C           -0.526088522285     0.481237537626     0.601613520307    12.000000000000
         C           -2.529936522285    -0.717168462374     0.362575520307    12.000000000000
         C           -2.529024522285    -1.850675462374    -0.637770479693    12.000000000000
         C            1.219094477715    -1.261690462374     0.312793520307    12.000000000000
         C            1.754913477715     1.067152537626    -0.057883479693    12.000000000000
         C            2.510420477715    -1.609422462374     0.048514520307    12.000000000000
         C            3.411302477715    -0.550935462374    -0.257405479693    12.000000000000
         H           -0.938286522285     0.591121537626    -1.513371479693     1.007825032230
         H           -3.363262522285     0.642382537626    -1.144945479693     1.007825032230
         H           -0.440970522285     1.221597537626     1.405517520307     1.007825032230
         H           -3.296184122285    -0.908855762374     1.118859020307     1.007825032230
         H           -1.713988522285    -1.700587462374    -1.367944479693     1.007825032230
         H           -3.486241522285    -1.834286462374    -1.182615479693     1.007825032230
         H           -0.298205522285     2.712896537626    -0.523480479693     1.007825032230
         H           -2.848236522285     2.399460537626     0.510182520307     1.007825032230
         H            0.433630477715    -1.963719462374     0.570587520307     1.007825032230
         H           -2.434554522285    -3.798714462374    -0.541713479693     1.007825032230
         H            2.828431477715    -2.645680462374     0.075441520307     1.007825032230
         H            5.124499477715    -1.671143462374    -0.160894479693     1.007825032230
         H            5.319133477715    -0.020336462374    -0.566774479693     1.007825032230

  Basis Set: AUG-CC-PVTZ
    Blend: AUG-CC-PVTZ
  Basis Set: (AUG-CC-PVTZ AUX)
    Blend: AUG-CC-PVTZ-JKFIT
	 Reference Energy          =    -886.3738832508379346 [Eh]
	 Singles Energy            =      -0.0000000000000000 [Eh]
	 Same-Spin Energy          =      -0.9011826673476209 [Eh]
	 Opposite-Spin Energy      =      -2.7144767810552506 [Eh]
	 Correlation Energy        =      -3.6156594484028712 [Eh]
	 Total Energy              =    -889.9895426992408147 [Eh]

	 ================> DF-SCS-MP2 Energies <==================
	-----------------------------------------------------------
	 SCS Same-Spin Scale       =       0.3333333333333333 [-]
	 SCS Opposite-Spin Scale   =       1.2000000000000000 [-]
	 SCS Same-Spin Energy      =      -0.3003942224492069 [Eh]
	 SCS Opposite-Spin Energy  =      -3.2573721372663007 [Eh]
	 SCS Correlation Energy    =      -3.5577663597155076 [Eh]
	 SCS Total Energy          =    -889.9316496105534497 [Eh]
	-----------------------------------------------------------

  Dipole Moment: [D]
     X:     1.6506      Y:    -5.9780      Z:    -1.7859     Total:     6.4537

*** Psi4 exiting successfully. Buy a developer a beer!
