                               Psi4 1.3.2 release

  ==> Input File <==

--------------------------------------------------------------------------
#psi4
#
memory 32 gb

molecule  {
0 1
  O       -1.2481010    -0.6526680     1.0325150
  O       -1.2449750     2.4828510    -0.6861630
  O       -3.2165300     1.5210990     0.7448870
  O       -2.3570290    -3.0668370     0.0949400
  O        1.3605300     2.2470340    -0.0765420
  N        0.8434040     0.0452230     0.2559430
  N        3.0572260     0.7205030    -0.2937270
  N        4.7164630    -0.8366550    -0.5722980
  C       -1.2894840     1.0784300    -0.5920770
  C       -2.7151710     0.6552070    -0.2573930
  C       -0.5254080     0.4815200     0.6000940
  C       -2.5292560    -0.7168860     0.3610560
  C       -2.5283440    -1.8503930    -0.6392900
  C        1.2254259    -1.2385658     0.3077593
  C        1.7555940     1.0674350    -0.0594030
  C        2.5111010    -1.6091400     0.0469950
  C        3.4119830    -0.5506530    -0.2589250
  H       -0.9376060     0.5914040    -1.5148910
  H       -3.3625820     0.6426650    -1.1464650
  H       -0.4402900     1.2218800     1.4039980
  H       -3.2819570    -0.9087340     1.1307830
  H       -1.7133080    -1.7003050    -1.3694640
  H       -3.4855610    -1.8340040    -1.1841350
  H       -0.2975250     2.7131790    -0.5250000
  H       -2.8475560     2.3997430     0.5086630
  H        0.4343110    -1.9634370     0.5690680
  H       -2.4338740    -3.7984320    -0.5432330
  H        2.8466521    -2.6399613     0.0693489
  H        5.1251800    -1.6708610    -0.1624140
  H        5.3198140    -0.0200540    -0.5682940
units angstrom
no_reorient  #important for SAPT in psi4, default
symmetry c1  #important for SAPT in psi4, default
}

set PROPERTIES_ORIGIN ["COM"]
properties('MP2/aug-cc-pvtz', properties = ['dipole'])
--------------------------------------------------------------------------

    Molecular point group: c1
  Charge       = 0
  Multiplicity = 1
  Basis Set: AUG-CC-PVTZ
    Blend: AUG-CC-PVTZ
  Basis Set: (AUG-CC-PVTZ AUX)
    Blend: AUG-CC-PVTZ-JKFIT

    Orbital Energies [Eh]
    ---------------------

    Doubly Occupied:

       1A    -20.582323     2A    -20.582281     3A    -20.558342
       4A    -20.557943     5A    -20.522482     6A    -15.638607
       7A    -15.598832     8A    -15.552577     9A    -11.388557
      10A    -11.356140    11A    -11.343083    12A    -11.327969
      13A    -11.301419    14A    -11.297650    15A    -11.297391
      16A    -11.293597    17A    -11.246588    18A     -1.430688
      19A     -1.397573    20A     -1.380722    21A     -1.373115
      22A     -1.346937    23A     -1.308094    24A     -1.276784
      25A     -1.182126    26A     -1.081371    27A     -1.068289
      28A     -1.022488    29A     -0.936469    30A     -0.909778
      31A     -0.877619    32A     -0.833187    33A     -0.812238
      34A     -0.767883    35A     -0.753661    36A     -0.737313
      37A     -0.719082    38A     -0.703035    39A     -0.699001
      40A     -0.683861    41A     -0.673251    42A     -0.655504
      43A     -0.652225    44A     -0.639541    45A     -0.619508
      46A     -0.613717    47A     -0.604432    48A     -0.596564
      49A     -0.575393    50A     -0.569891    51A     -0.554379
      52A     -0.546261    53A     -0.538019    54A     -0.532052
      55A     -0.500339    56A     -0.477944    57A     -0.475087
      58A     -0.462689    59A     -0.460193    60A     -0.453472
      61A     -0.440934    62A     -0.432770    63A     -0.395334
      64A     -0.348859

  @DF-RHF Final Energy:  -886.37315039910482

   => Energetics <=

    Nuclear Repulsion Energy =           1324.1938444666850501
    One-Electron Energy =               -3846.0030748644994674
    Two-Electron Energy =                1635.4360799987098289
    Total Energy =                       -886.3731503991048157
  Basis Set: (AUG-CC-PVTZ AUX)
    Blend: AUG-CC-PVTZ-RI
    Molecular point group: c1

    Geometry (in Angstrom), charge = 0, multiplicity = 1:

       Center              X                  Y                   Z               Mass
    ------------   -----------------  -----------------  -----------------  -----------------
         O           -1.248452713262    -0.653818143279     1.032707471781    15.994914619570
         O           -1.245326713262     2.481700856721    -0.685970528219    15.994914619570
         O           -3.216881713262     1.519948856721     0.745079471781    15.994914619570
         O           -2.357380713262    -3.067987143279     0.095132471781    15.994914619570
         O            1.360178286738     2.245883856721    -0.076349528219    15.994914619570
         N            0.843052286738     0.044072856721     0.256135471781    14.003074004430
         N            3.056874286738     0.719352856721    -0.293534528219    14.003074004430
         N            4.716111286738    -0.837805143279    -0.572105528219    14.003074004430
         C           -1.289835713262     1.077279856721    -0.591884528219    12.000000000000
         C           -2.715522713262     0.654056856721    -0.257200528219    12.000000000000
         C           -0.525759713262     0.480369856721     0.600286471781    12.000000000000
         C           -2.529607713262    -0.718036143279     0.361248471781    12.000000000000
         C           -2.528695713262    -1.851543143279    -0.639097528219    12.000000000000
         C            1.225074186738    -1.239715943279     0.307951771781    12.000000000000
         C            1.755242286738     1.066284856721    -0.059210528219    12.000000000000
         C            2.510749286738    -1.610290143279     0.047187471781    12.000000000000
         C            3.411631286738    -0.551803143279    -0.258732528219    12.000000000000
         H           -0.937957713262     0.590253856721    -1.514698528219     1.007825032230
         H           -3.362933713262     0.641514856721    -1.146272528219     1.007825032230
         H           -0.440641713262     1.220729856721     1.404190471781     1.007825032230
         H           -3.282308713262    -0.909884143279     1.130975471781     1.007825032230
         H           -1.713659713262    -1.701455143279    -1.369271528219     1.007825032230
         H           -3.485912713262    -1.835154143279    -1.183942528219     1.007825032230
         H           -0.297876713262     2.712028856721    -0.524807528219     1.007825032230
         H           -2.847907713262     2.398592856721     0.508855471781     1.007825032230
         H            0.433959286738    -1.964587143279     0.569260471781     1.007825032230
         H           -2.434225713262    -3.799582143279    -0.543040528219     1.007825032230
         H            2.846300386738    -2.641111443279     0.069541371781     1.007825032230
         H            5.124828286738    -1.672011143279    -0.162221528219     1.007825032230
         H            5.319462286738    -0.021204143279    -0.568101528219     1.007825032230

  Basis Set: AUG-CC-PVTZ
    Blend: AUG-CC-PVTZ
  Basis Set: (AUG-CC-PVTZ AUX)
    Blend: AUG-CC-PVTZ-JKFIT
	 Reference Energy          =    -886.3731503991048157 [Eh]
	 Singles Energy            =      -0.0000000000000000 [Eh]
	 Same-Spin Energy          =      -0.9013083515787894 [Eh]
	 Opposite-Spin Energy      =      -2.7146716222756835 [Eh]
	 Correlation Energy        =      -3.6159799738544729 [Eh]
	 Total Energy              =    -889.9891303729592664 [Eh]

	 ================> DF-SCS-MP2 Energies <==================
	-----------------------------------------------------------
	 SCS Same-Spin Scale       =       0.3333333333333333 [-]
	 SCS Opposite-Spin Scale   =       1.2000000000000000 [-]
	 SCS Same-Spin Energy      =      -0.3004361171929298 [Eh]
	 SCS Opposite-Spin Energy  =      -3.2576059467308203 [Eh]
	 SCS Correlation Energy    =      -3.5580420639237502 [Eh]
	 SCS Total Energy          =    -889.9311924630285375 [Eh]
	-----------------------------------------------------------

  Dipole Moment: [D]
     X:     1.6337      Y:    -5.9023      Z:    -1.8173     Total:     6.3882

*** Psi4 exiting successfully. Buy a developer a beer!
