                               Psi4 1.3.2 release

  ==> Input File <==

--------------------------------------------------------------------------
#psi4
#
memory 32 gb

molecule  {
0 1
  O       -1.2481010    -0.6526680     1.0325150
  O       -1.2449750     2.4828510    -0.6861630
  O       -3.2165300     1.5210990     0.7448870
  O       -2.3570290    -3.0668370     0.0949400
  O        1.4214623     2.2654421    -0.0903578
  N        0.8434040     0.0452230     0.2559430
  N        3.0721981     0.7899569    -0.3024562
  N        4.7164630    -0.8366550    -0.5722980
  C       -1.2894840     1.0784300    -0.5920770
  C       -2.7151710     0.6552070    -0.2573930
  C       -0.5254080     0.4815200     0.6000940
  C       -2.5292560    -0.7168860     0.3610560
  C       -2.5283440    -1.8503930    -0.6392900
  C        1.2197750    -1.2614080     0.3112740
  C        1.7555940     1.0674350    -0.0594030
  C        2.5111010    -1.6091400     0.0469950
  C        3.4119830    -0.5506530    -0.2589250
  H       -0.9376060     0.5914040    -1.5148910
  H       -3.3625820     0.6426650    -1.1464650
  H       -0.4402900     1.2218800     1.4039980
  H       -3.2819570    -0.9087340     1.1307830
  H       -1.7133080    -1.7003050    -1.3694640
  H       -3.4855610    -1.8340040    -1.1841350
  H       -0.2975250     2.7131790    -0.5250000
  H       -2.8475560     2.3997430     0.5086630
  H        0.4343110    -1.9634370     0.5690680
  H       -2.4338740    -3.7984320    -0.5432330
  H        2.8291120    -2.6453980     0.0739220
  H        5.1251800    -1.6708610    -0.1624140
  H        5.3198140    -0.0200540    -0.5682940
units angstrom
no_reorient  #important for SAPT in psi4, default
symmetry c1  #important for SAPT in psi4, default
}

set PROPERTIES_ORIGIN ["COM"]
properties('MP2/aug-cc-pvtz', properties = ['dipole'])
--------------------------------------------------------------------------

    Molecular point group: c1
  Charge       = 0
  Multiplicity = 1
  Basis Set: AUG-CC-PVTZ
    Blend: AUG-CC-PVTZ
  Basis Set: (AUG-CC-PVTZ AUX)
    Blend: AUG-CC-PVTZ-JKFIT

    Orbital Energies [Eh]
    ---------------------

    Doubly Occupied:

       1A    -20.583467     2A    -20.583349     3A    -20.559151
       4A    -20.558778     5A    -20.513653     6A    -15.640461
       7A    -15.603391     8A    -15.556310     9A    -11.380592
      10A    -11.363815    11A    -11.343726    12A    -11.333132
      13A    -11.302325    14A    -11.298223    15A    -11.297995
      16A    -11.294112    17A    -11.251952    18A     -1.429989
      19A     -1.391517    20A     -1.381264    21A     -1.373854
      22A     -1.347413    23A     -1.299108    24A     -1.272705
      25A     -1.170883    26A     -1.084535    27A     -1.068972
      28A     -1.022351    29A     -0.935663    30A     -0.911842
      31A     -0.868915    32A     -0.833496    33A     -0.812483
      34A     -0.765677    35A     -0.752967    36A     -0.737039
      37A     -0.718119    38A     -0.703701    39A     -0.699660
      40A     -0.683774    41A     -0.674177    42A     -0.653606
      43A     -0.647581    44A     -0.637877    45A     -0.620897
      46A     -0.614043    47A     -0.607057    48A     -0.589397
      49A     -0.576773    50A     -0.570019    51A     -0.554788
      52A     -0.545764    53A     -0.537538    54A     -0.531309
      55A     -0.498006    56A     -0.478617    57A     -0.475545
      58A     -0.463428    59A     -0.454229    60A     -0.451815
      61A     -0.444029    62A     -0.435220    63A     -0.387037
      64A     -0.350419

  @DF-RHF Final Energy:  -886.36376585197638

   => Energetics <=

    Nuclear Repulsion Energy =           1320.9298536585729380
    One-Electron Energy =               -3839.5281913224985146
    Two-Electron Energy =                1632.2345718119493085
    Total Energy =                       -886.3637658519762681
  Basis Set: (AUG-CC-PVTZ AUX)
    Blend: AUG-CC-PVTZ-RI
    Molecular point group: c1

    Geometry (in Angstrom), charge = 0, multiplicity = 1:

       Center              X                  Y                   Z               Mass
    ------------   -----------------  -----------------  -----------------  -----------------
         O           -1.252972827031    -0.657880164106     1.033926931047    15.994914619570
         O           -1.249846827031     2.477638835894    -0.684751068953    15.994914619570
         O           -3.221401827031     1.515886835894     0.746298931047    15.994914619570
         O           -2.361900827031    -3.072049164106     0.096351931047    15.994914619570
         O            1.416590472969     2.260229935894    -0.088945868953    15.994914619570
         N            0.838532172969     0.040010835894     0.257354931047    14.003074004430
         N            3.067326272969     0.784744735894    -0.301044268953    14.003074004430
         N            4.711591172969    -0.841867164106    -0.570886068953    14.003074004430
         C           -1.294355827031     1.073217835894    -0.590665068953    12.000000000000
         C           -2.720042827031     0.649994835894    -0.255981068953    12.000000000000
         C           -0.530279827031     0.476307835894     0.601505931047    12.000000000000
         C           -2.534127827031    -0.722098164106     0.362467931047    12.000000000000
         C           -2.533215827031    -1.855605164106    -0.637878068953    12.000000000000
         C            1.214903172969    -1.266620164106     0.312685931047    12.000000000000
         C            1.750722172969     1.062222835894    -0.057991068953    12.000000000000
         C            2.506229172969    -1.614352164106     0.048406931047    12.000000000000
         C            3.407111172969    -0.555865164106    -0.257513068953    12.000000000000
         H           -0.942477827031     0.586191835894    -1.513479068953     1.007825032230
         H           -3.367453827031     0.637452835894    -1.145053068953     1.007825032230
         H           -0.445161827031     1.216667835894     1.405409931047     1.007825032230
         H           -3.286828827031    -0.913946164106     1.132194931047     1.007825032230
         H           -1.718179827031    -1.705517164106    -1.368052068953     1.007825032230
         H           -3.490432827031    -1.839216164106    -1.182723068953     1.007825032230
         H           -0.302396827031     2.707966835894    -0.523588068953     1.007825032230
         H           -2.852427827031     2.394530835894     0.510074931047     1.007825032230
         H            0.429439172969    -1.968649164106     0.570479931047     1.007825032230
         H           -2.438745827031    -3.803644164106    -0.541821068953     1.007825032230
         H            2.824240172969    -2.650610164106     0.075333931047     1.007825032230
         H            5.120308172969    -1.676073164106    -0.161002068953     1.007825032230
         H            5.314942172969    -0.025266164106    -0.566882068953     1.007825032230

  Basis Set: AUG-CC-PVTZ
    Blend: AUG-CC-PVTZ
  Basis Set: (AUG-CC-PVTZ AUX)
    Blend: AUG-CC-PVTZ-JKFIT
	 Reference Energy          =    -886.3637658519763818 [Eh]
	 Singles Energy            =      -0.0000000000000000 [Eh]
	 Same-Spin Energy          =      -0.9015738052675561 [Eh]
	 Opposite-Spin Energy      =      -2.7166181351019905 [Eh]
	 Correlation Energy        =      -3.6181919403695466 [Eh]
	 Total Energy              =    -889.9819577923459519 [Eh]

	 ================> DF-SCS-MP2 Energies <==================
	-----------------------------------------------------------
	 SCS Same-Spin Scale       =       0.3333333333333333 [-]
	 SCS Opposite-Spin Scale   =       1.2000000000000000 [-]
	 SCS Same-Spin Energy      =      -0.3005246017558520 [Eh]
	 SCS Opposite-Spin Energy  =      -3.2599417621223883 [Eh]
	 SCS Correlation Energy    =      -3.5604663638782403 [Eh]
	 SCS Total Energy          =    -889.9242322158546585 [Eh]
	-----------------------------------------------------------

  Dipole Moment: [D]
     X:     1.5904      Y:    -6.2201      Z:    -1.8030     Total:     6.6686

*** Psi4 exiting successfully. Buy a developer a beer!
