                               Psi4 1.3.2 release

  ==> Input File <==

--------------------------------------------------------------------------
#psi4
#
memory 32 gb

molecule  {
0 1
  O       -1.2481010    -0.6526680     1.0325150
  O       -1.2449750     2.4828510    -0.6861630
  O       -3.2165300     1.5210990     0.7448870
  O       -2.3570290    -3.0668370     0.0949400
  O        1.3605300     2.2470340    -0.0765420
  N        0.8434040     0.0452230     0.2559430
  N        3.0572260     0.7205030    -0.2937270
  N        4.7164630    -0.8366550    -0.5722980
  C       -1.2894840     1.0784300    -0.5920770
  C       -2.7151710     0.6552070    -0.2573930
  C       -0.5630397     0.4931109     0.5704140
  C       -2.5174265    -0.6744292     0.3363264
  C       -2.5283440    -1.8503930    -0.6392900
  C        1.2197750    -1.2614080     0.3112740
  C        1.7555940     1.0674350    -0.0594030
  C        2.5111010    -1.6091400     0.0469950
  C        3.4119830    -0.5506530    -0.2589250
  H       -0.9376060     0.5914040    -1.5148910
  H       -3.3625820     0.6426650    -1.1464650
  H       -0.4402900     1.2218800     1.4039980
  H       -3.2819570    -0.9087340     1.1307830
  H       -1.7133080    -1.7003050    -1.3694640
  H       -3.4855610    -1.8340040    -1.1841350
  H       -0.2975250     2.7131790    -0.5250000
  H       -2.8475560     2.3997430     0.5086630
  H        0.4343110    -1.9634370     0.5690680
  H       -2.4338740    -3.7984320    -0.5432330
  H        2.8291120    -2.6453980     0.0739220
  H        5.1251800    -1.6708610    -0.1624140
  H        5.3198140    -0.0200540    -0.5682940
units angstrom
no_reorient  #important for SAPT in psi4, default
symmetry c1  #important for SAPT in psi4, default
}

set PROPERTIES_ORIGIN ["COM"]
properties('MP2/aug-cc-pvtz', properties = ['dipole'])
--------------------------------------------------------------------------

    Molecular point group: c1
  Charge       = 0
  Multiplicity = 1
  Basis Set: AUG-CC-PVTZ
    Blend: AUG-CC-PVTZ
  Basis Set: (AUG-CC-PVTZ AUX)
    Blend: AUG-CC-PVTZ-JKFIT

    Orbital Energies [Eh]
    ---------------------

    Doubly Occupied:

       1A    -20.585869     2A    -20.583444     3A    -20.560167
       4A    -20.559546     5A    -20.520616     6A    -15.634750
       7A    -15.598812     8A    -15.552012     9A    -11.386471
      10A    -11.356593    11A    -11.344162    12A    -11.327276
      13A    -11.302841    14A    -11.298574    15A    -11.297781
      16A    -11.293718    17A    -11.247219    18A     -1.433616
      19A     -1.395718    20A     -1.382379    21A     -1.373850
      22A     -1.349203    23A     -1.304242    24A     -1.270057
      25A     -1.180265    26A     -1.081582    27A     -1.076528
      28A     -1.026316    29A     -0.934458    30A     -0.907479
      31A     -0.878466    32A     -0.833268    33A     -0.813415
      34A     -0.764548    35A     -0.752341    36A     -0.736804
      37A     -0.720862    38A     -0.703899    39A     -0.700352
      40A     -0.684322    41A     -0.671987    42A     -0.653264
      43A     -0.651354    44A     -0.640700    45A     -0.621348
      46A     -0.613123    47A     -0.607179    48A     -0.592113
      49A     -0.577432    50A     -0.563726    51A     -0.558233
      52A     -0.547591    53A     -0.540254    54A     -0.529235
      55A     -0.497260    56A     -0.483570    57A     -0.477826
      58A     -0.460747    59A     -0.460450    60A     -0.456667
      61A     -0.442181    62A     -0.430683    63A     -0.394843
      64A     -0.349204

  @DF-RHF Final Energy:  -886.36557150959482

   => Energetics <=

    Nuclear Repulsion Energy =           1324.7467070571140084
    One-Electron Energy =               -3847.0749753265040454
    Two-Electron Energy =                1635.9626967597951079
    Total Energy =                       -886.3655715095947016
  Basis Set: (AUG-CC-PVTZ AUX)
    Blend: AUG-CC-PVTZ-RI
    Molecular point group: c1

    Geometry (in Angstrom), charge = 0, multiplicity = 1:

       Center              X                  Y                   Z               Mass
    ------------   -----------------  -----------------  -----------------  -----------------
         O           -1.246827299494    -0.655336073088     1.035200956025    15.994914619570
         O           -1.243701299494     2.480182926912    -0.683477043975    15.994914619570
         O           -3.215256299494     1.518430926912     0.747572956025    15.994914619570
         O           -2.355755299494    -3.069505073088     0.097625956025    15.994914619570
         O            1.361803700506     2.244365926912    -0.073856043975    15.994914619570
         N            0.844677700506     0.042554926912     0.258628956025    14.003074004430
         N            3.058499700506     0.717834926912    -0.291041043975    14.003074004430
         N            4.717736700506    -0.839323073088    -0.569612043975    14.003074004430
         C           -1.288210299494     1.075761926912    -0.589391043975    12.000000000000
         C           -2.713897299494     0.652538926912    -0.254707043975    12.000000000000
         C           -0.561765999494     0.490442826912     0.573099956025    12.000000000000
         C           -2.516152799494    -0.677097273088     0.339012356025    12.000000000000
         C           -2.527070299494    -1.853061073088    -0.636604043975    12.000000000000
         C            1.221048700506    -1.264076073088     0.313959956025    12.000000000000
         C            1.756867700506     1.064766926912    -0.056717043975    12.000000000000
         C            2.512374700506    -1.611808073088     0.049680956025    12.000000000000
         C            3.413256700506    -0.553321073088    -0.256239043975    12.000000000000
         H           -0.936332299494     0.588735926912    -1.512205043975     1.007825032230
         H           -3.361308299494     0.639996926912    -1.143779043975     1.007825032230
         H           -0.439016299494     1.219211926912     1.406683956025     1.007825032230
         H           -3.280683299494    -0.911402073088     1.133468956025     1.007825032230
         H           -1.712034299494    -1.702973073088    -1.366778043975     1.007825032230
         H           -3.484287299494    -1.836672073088    -1.181449043975     1.007825032230
         H           -0.296251299494     2.710510926912    -0.522314043975     1.007825032230
         H           -2.846282299494     2.397074926912     0.511348956025     1.007825032230
         H            0.435584700506    -1.966105073088     0.571753956025     1.007825032230
         H           -2.432600299494    -3.801100073088    -0.540547043975     1.007825032230
         H            2.830385700506    -2.648066073088     0.076607956025     1.007825032230
         H            5.126453700506    -1.673529073088    -0.159728043975     1.007825032230
         H            5.321087700506    -0.022722073088    -0.565608043975     1.007825032230

  Basis Set: AUG-CC-PVTZ
    Blend: AUG-CC-PVTZ
  Basis Set: (AUG-CC-PVTZ AUX)
    Blend: AUG-CC-PVTZ-JKFIT
	 Reference Energy          =    -886.3655715095948153 [Eh]
	 Singles Energy            =      -0.0000000000000000 [Eh]
	 Same-Spin Energy          =      -0.9022290604426790 [Eh]
	 Opposite-Spin Energy      =      -2.7163420570725858 [Eh]
	 Correlation Energy        =      -3.6185711175152648 [Eh]
	 Total Energy              =    -889.9841426271100318 [Eh]

	 ================> DF-SCS-MP2 Energies <==================
	-----------------------------------------------------------
	 SCS Same-Spin Scale       =       0.3333333333333333 [-]
	 SCS Opposite-Spin Scale   =       1.2000000000000000 [-]
	 SCS Same-Spin Energy      =      -0.3007430201475597 [Eh]
	 SCS Opposite-Spin Energy  =      -3.2596104684871028 [Eh]
	 SCS Correlation Energy    =      -3.5603534886346626 [Eh]
	 SCS Total Energy          =    -889.9259249982294477 [Eh]
	-----------------------------------------------------------

  Dipole Moment: [D]
     X:     1.5623      Y:    -5.8850      Z:    -1.8607     Total:     6.3668

*** Psi4 exiting successfully. Buy a developer a beer!
