                               Psi4 1.3.2 release

  ==> Input File <==

--------------------------------------------------------------------------
#psi4
#
memory 32 gb

molecule  {
0 1
  O       -1.2481010    -0.6526680     1.0325150
  O       -1.2449750     2.4828510    -0.6861630
  O       -3.2165300     1.5210990     0.7448870
  O       -2.3570290    -3.0668370     0.0949400
  O        1.3605300     2.2470340    -0.0765420
  N        0.8434040     0.0452230     0.2559430
  N        3.0572260     0.7205030    -0.2937270
  N        4.7164630    -0.8366550    -0.5722980
  C       -1.2894840     1.0784300    -0.5920770
  C       -2.6216449     0.6829707    -0.2793485
  C       -0.5254080     0.4815200     0.6000940
  C       -2.5292560    -0.7168860     0.3610560
  C       -2.5283440    -1.8503930    -0.6392900
  C        1.2197750    -1.2614080     0.3112740
  C        1.7555940     1.0674350    -0.0594030
  C        2.5111010    -1.6091400     0.0469950
  C        3.4119830    -0.5506530    -0.2589250
  H       -0.9376060     0.5914040    -1.5148910
  H       -3.3625820     0.6426650    -1.1464650
  H       -0.4402900     1.2218800     1.4039980
  H       -3.2819570    -0.9087340     1.1307830
  H       -1.7133080    -1.7003050    -1.3694640
  H       -3.4855610    -1.8340040    -1.1841350
  H       -0.2975250     2.7131790    -0.5250000
  H       -2.8475560     2.3997430     0.5086630
  H        0.4343110    -1.9634370     0.5690680
  H       -2.4338740    -3.7984320    -0.5432330
  H        2.8291120    -2.6453980     0.0739220
  H        5.1251800    -1.6708610    -0.1624140
  H        5.3198140    -0.0200540    -0.5682940
units angstrom
no_reorient  #important for SAPT in psi4, default
symmetry c1  #important for SAPT in psi4, default
}

set PROPERTIES_ORIGIN ["COM"]
properties('MP2/aug-cc-pvtz', properties = ['dipole'])
--------------------------------------------------------------------------

    Molecular point group: c1
  Charge       = 0
  Multiplicity = 1
  Basis Set: AUG-CC-PVTZ
    Blend: AUG-CC-PVTZ
  Basis Set: (AUG-CC-PVTZ AUX)
    Blend: AUG-CC-PVTZ-JKFIT

    Orbital Energies [Eh]
    ---------------------

    Doubly Occupied:

       1A    -20.582589     2A    -20.580918     3A    -20.558629
       4A    -20.556588     5A    -20.522810     6A    -15.637673
       7A    -15.600354     8A    -15.553957     9A    -11.389010
      10A    -11.358456    11A    -11.343131    12A    -11.329115
      13A    -11.300972    14A    -11.298824    15A    -11.294454
      16A    -11.293247    17A    -11.249157    18A     -1.430840
      19A     -1.396963    20A     -1.380115    21A     -1.373193
      22A     -1.339225    23A     -1.306741    24A     -1.274438
      25A     -1.182844    26A     -1.084507    27A     -1.073988
      28A     -1.029786    29A     -0.938996    30A     -0.909917
      31A     -0.875426    32A     -0.834203    33A     -0.807935
      34A     -0.767694    35A     -0.753979    36A     -0.741235
      37A     -0.720607    38A     -0.702812    39A     -0.696086
      40A     -0.686225    41A     -0.667439    42A     -0.655589
      43A     -0.652628    44A     -0.637115    45A     -0.622162
      46A     -0.614198    47A     -0.606251    48A     -0.593852
      49A     -0.574445    50A     -0.570627    51A     -0.551694
      52A     -0.539586    53A     -0.538042    54A     -0.532211
      55A     -0.501966    56A     -0.485802    57A     -0.477330
      58A     -0.462914    59A     -0.458297    60A     -0.454760
      61A     -0.438806    62A     -0.433601    63A     -0.395799
      64A     -0.350857

  @DF-RHF Final Energy:  -886.36073801549060

   => Energetics <=

    Nuclear Repulsion Energy =           1325.2374419850173126
    One-Electron Energy =               -3848.0491425751174575
    Two-Electron Energy =                1636.4509625746097754
    Total Energy =                       -886.3607380154905968
  Basis Set: (AUG-CC-PVTZ AUX)
    Blend: AUG-CC-PVTZ-RI
    Molecular point group: c1

    Geometry (in Angstrom), charge = 0, multiplicity = 1:

       Center              X                  Y                   Z               Mass
    ------------   -----------------  -----------------  -----------------  -----------------
         O           -1.252717981904    -0.654038554423     1.033598848260    15.994914619570
         O           -1.249591981904     2.481480445577    -0.685079151740    15.994914619570
         O           -3.221146981904     1.519728445577     0.745970848260    15.994914619570
         O           -2.361645981904    -3.068207554423     0.096023848260    15.994914619570
         O            1.355913018096     2.245663445577    -0.075458151740    15.994914619570
         N            0.838787018096     0.043852445577     0.257026848260    14.003074004430
         N            3.052609018096     0.719132445577    -0.292643151740    14.003074004430
         N            4.711846018096    -0.838025554423    -0.571214151740    14.003074004430
         C           -1.294100981904     1.077059445577    -0.590993151740    12.000000000000
         C           -2.626261881904     0.681600145577    -0.278264651740    12.000000000000
         C           -0.530024981904     0.480149445577     0.601177848260    12.000000000000
         C           -2.533872981904    -0.718256554423     0.362139848260    12.000000000000
         C           -2.532960981904    -1.851763554423    -0.638206151740    12.000000000000
         C            1.215158018096    -1.262778554423     0.312357848260    12.000000000000
         C            1.750977018096     1.066064445577    -0.058319151740    12.000000000000
         C            2.506484018096    -1.610510554423     0.048078848260    12.000000000000
         C            3.407366018096    -0.552023554423    -0.257841151740    12.000000000000
         H           -0.942222981904     0.590033445577    -1.513807151740     1.007825032230
         H           -3.367198981904     0.641294445577    -1.145381151740     1.007825032230
         H           -0.444906981904     1.220509445577     1.405081848260     1.007825032230
         H           -3.286573981904    -0.910104554423     1.131866848260     1.007825032230
         H           -1.717924981904    -1.701675554423    -1.368380151740     1.007825032230
         H           -3.490177981904    -1.835374554423    -1.183051151740     1.007825032230
         H           -0.302141981904     2.711808445577    -0.523916151740     1.007825032230
         H           -2.852172981904     2.398372445577     0.509746848260     1.007825032230
         H            0.429694018096    -1.964807554423     0.570151848260     1.007825032230
         H           -2.438490981904    -3.799802554423    -0.542149151740     1.007825032230
         H            2.824495018096    -2.646768554423     0.075005848260     1.007825032230
         H            5.120563018096    -1.672231554423    -0.161330151740     1.007825032230
         H            5.315197018096    -0.021424554423    -0.567210151740     1.007825032230

  Basis Set: AUG-CC-PVTZ
    Blend: AUG-CC-PVTZ
  Basis Set: (AUG-CC-PVTZ AUX)
    Blend: AUG-CC-PVTZ-JKFIT
	 Reference Energy          =    -886.3607380154905968 [Eh]
	 Singles Energy            =      -0.0000000000000000 [Eh]
	 Same-Spin Energy          =      -0.9020811289553252 [Eh]
	 Opposite-Spin Energy      =      -2.7165909778936488 [Eh]
	 Correlation Energy        =      -3.6186721068489742 [Eh]
	 Total Energy              =    -889.9794101223395728 [Eh]

	 ================> DF-SCS-MP2 Energies <==================
	-----------------------------------------------------------
	 SCS Same-Spin Scale       =       0.3333333333333333 [-]
	 SCS Opposite-Spin Scale   =       1.2000000000000000 [-]
	 SCS Same-Spin Energy      =      -0.3006937096517751 [Eh]
	 SCS Opposite-Spin Energy  =      -3.2599091734723786 [Eh]
	 SCS Correlation Energy    =      -3.5606028831241536 [Eh]
	 SCS Total Energy          =    -889.9213408986147442 [Eh]
	-----------------------------------------------------------

  Dipole Moment: [D]
     X:     1.8609      Y:    -6.0127      Z:    -1.8267     Total:     6.5538

*** Psi4 exiting successfully. Buy a developer a beer!
