                               Psi4 1.3.2 release

  ==> Input File <==

--------------------------------------------------------------------------
#psi4
#
memory 32 gb

molecule  {
0 1
  O       -1.2481010    -0.6526680     1.0325150
  O       -1.2449750     2.4828510    -0.6861630
  O       -3.2165300     1.5210990     0.7448870
  O       -2.3570290    -3.0668370     0.0949400
  O        1.3605300     2.2470340    -0.0765420
  N        0.8434040     0.0452230     0.2559430
  N        3.0572260     0.7205030    -0.2937270
  N        4.7164630    -0.8366550    -0.5722980
  C       -1.2894840     1.0784300    -0.5920770
  C       -2.7236865     0.6671957    -0.2795646
  C       -0.5025285     0.4911718     0.5899612
  C       -2.5292560    -0.7168860     0.3610560
  C       -2.5283440    -1.8503930    -0.6392900
  C        1.2197750    -1.2614080     0.3112740
  C        1.7555940     1.0674350    -0.0594030
  C        2.5111010    -1.6091400     0.0469950
  C        3.4119830    -0.5506530    -0.2589250
  H       -0.9376060     0.5914040    -1.5148910
  H       -3.3625820     0.6426650    -1.1464650
  H       -0.4402900     1.2218800     1.4039980
  H       -3.2819570    -0.9087340     1.1307830
  H       -1.7133080    -1.7003050    -1.3694640
  H       -3.4855610    -1.8340040    -1.1841350
  H       -0.2975250     2.7131790    -0.5250000
  H       -2.8475560     2.3997430     0.5086630
  H        0.4343110    -1.9634370     0.5690680
  H       -2.4338740    -3.7984320    -0.5432330
  H        2.8291120    -2.6453980     0.0739220
  H        5.1251800    -1.6708610    -0.1624140
  H        5.3198140    -0.0200540    -0.5682940
units angstrom
no_reorient  #important for SAPT in psi4, default
symmetry c1  #important for SAPT in psi4, default
}

set PROPERTIES_ORIGIN ["COM"]
properties('MP2/aug-cc-pvtz', properties = ['dipole'])
--------------------------------------------------------------------------

    Molecular point group: c1
  Charge       = 0
  Multiplicity = 1
  Basis Set: AUG-CC-PVTZ
    Blend: AUG-CC-PVTZ
  Basis Set: (AUG-CC-PVTZ AUX)
    Blend: AUG-CC-PVTZ-JKFIT

    Orbital Energies [Eh]
    ---------------------

    Doubly Occupied:

       1A    -20.580881     2A    -20.578543     3A    -20.556841
       4A    -20.556431     5A    -20.523539     6A    -15.639080
       7A    -15.600866     8A    -15.554467     9A    -11.389669
      10A    -11.359100    11A    -11.341211    12A    -11.330044
      13A    -11.299359    14A    -11.296643    15A    -11.295558
      16A    -11.291861    17A    -11.249951    18A     -1.424481
      19A     -1.395777    20A     -1.378537    21A     -1.370206
      22A     -1.344541    23A     -1.307629    24A     -1.276514
      25A     -1.183921    26A     -1.084290    27A     -1.062941
      28A     -1.020123    29A     -0.936780    30A     -0.910533
      31A     -0.877462    32A     -0.831233    33A     -0.812089
      34A     -0.768377    35A     -0.753671    36A     -0.735815
      37A     -0.720631    38A     -0.701907    39A     -0.695392
      40A     -0.685851    41A     -0.672760    42A     -0.653967
      43A     -0.651422    44A     -0.638717    45A     -0.620224
      46A     -0.613861    47A     -0.605186    48A     -0.596435
      49A     -0.575435    50A     -0.567895    51A     -0.552496
      52A     -0.544878    53A     -0.536488    54A     -0.531065
      55A     -0.498442    56A     -0.475968    57A     -0.471695
      58A     -0.461642    59A     -0.461212    60A     -0.450907
      61A     -0.442013    62A     -0.434289    63A     -0.396245
      64A     -0.351544

  @DF-RHF Final Energy:  -886.37153622267385

   => Energetics <=

    Nuclear Repulsion Energy =           1323.2528248771504877
    One-Electron Energy =               -3844.1936589425595230
    Two-Electron Energy =                1634.5692978427352955
    Total Energy =                       -886.3715362226737398
  Basis Set: (AUG-CC-PVTZ AUX)
    Blend: AUG-CC-PVTZ-RI
    Molecular point group: c1

    Geometry (in Angstrom), charge = 0, multiplicity = 1:

       Center              X                  Y                   Z               Mass
    ------------   -----------------  -----------------  -----------------  -----------------
         O           -1.248810117717    -0.653736280558     1.034109725254    15.994914619570
         O           -1.245684117717     2.481782719442    -0.684568274746    15.994914619570
         O           -3.217239117717     1.520030719442     0.746481725254    15.994914619570
         O           -2.357738117717    -3.067905280558     0.096534725254    15.994914619570
         O            1.359820882283     2.245965719442    -0.074947274746    15.994914619570
         N            0.842694882283     0.044154719442     0.257537725254    14.003074004430
         N            3.056516882283     0.719434719442    -0.292132274746    14.003074004430
         N            4.715753882283    -0.837723280558    -0.570703274746    14.003074004430
         C           -1.290193117717     1.077361719442    -0.590482274746    12.000000000000
         C           -2.724395617717     0.666127419442    -0.277969874746    12.000000000000
         C           -0.503237617717     0.490103519442     0.591555925254    12.000000000000
         C           -2.529965117717    -0.717954280558     0.362650725254    12.000000000000
         C           -2.529053117717    -1.851461280558    -0.637695274746    12.000000000000
         C            1.219065882283    -1.262476280558     0.312868725254    12.000000000000
         C            1.754884882283     1.066366719442    -0.057808274746    12.000000000000
         C            2.510391882283    -1.610208280558     0.048589725254    12.000000000000
         C            3.411273882283    -0.551721280558    -0.257330274746    12.000000000000
         H           -0.938315117717     0.590335719442    -1.513296274746     1.007825032230
         H           -3.363291117717     0.641596719442    -1.144870274746     1.007825032230
         H           -0.440999117717     1.220811719442     1.405592725254     1.007825032230
         H           -3.282666117717    -0.909802280558     1.132377725254     1.007825032230
         H           -1.714017117717    -1.701373280558    -1.367869274746     1.007825032230
         H           -3.486270117717    -1.835072280558    -1.182540274746     1.007825032230
         H           -0.298234117717     2.712110719442    -0.523405274746     1.007825032230
         H           -2.848265117717     2.398674719442     0.510257725254     1.007825032230
         H            0.433601882283    -1.964505280558     0.570662725254     1.007825032230
         H           -2.434583117717    -3.799500280558    -0.541638274746     1.007825032230
         H            2.828402882283    -2.646466280558     0.075516725254     1.007825032230
         H            5.124470882283    -1.671929280558    -0.160819274746     1.007825032230
         H            5.319104882283    -0.021122280558    -0.566699274746     1.007825032230

  Basis Set: AUG-CC-PVTZ
    Blend: AUG-CC-PVTZ
  Basis Set: (AUG-CC-PVTZ AUX)
    Blend: AUG-CC-PVTZ-JKFIT
	 Reference Energy          =    -886.3715362226738534 [Eh]
	 Singles Energy            =      -0.0000000000000000 [Eh]
	 Same-Spin Energy          =      -0.9011989364842086 [Eh]
	 Opposite-Spin Energy      =      -2.7153934700525708 [Eh]
	 Correlation Energy        =      -3.6165924065367792 [Eh]
	 Total Energy              =    -889.9881286292106779 [Eh]

	 ================> DF-SCS-MP2 Energies <==================
	-----------------------------------------------------------
	 SCS Same-Spin Scale       =       0.3333333333333333 [-]
	 SCS Opposite-Spin Scale   =       1.2000000000000000 [-]
	 SCS Same-Spin Energy      =      -0.3003996454947362 [Eh]
	 SCS Opposite-Spin Energy  =      -3.2584721640630847 [Eh]
	 SCS Correlation Energy    =      -3.5588718095578207 [Eh]
	 SCS Total Energy          =    -889.9304080322316395 [Eh]
	-----------------------------------------------------------

  Dipole Moment: [D]
     X:     1.8741      Y:    -5.9085      Z:    -1.8744     Total:     6.4758

*** Psi4 exiting successfully. Buy a developer a beer!
