                               Psi4 1.3.2 release

  ==> Input File <==

--------------------------------------------------------------------------
#psi4
#
memory 32 gb

molecule  {
0 1
  O       -1.2481010    -0.6526680     1.0325150
  O       -1.2449750     2.4828510    -0.6861630
  O       -3.2165300     1.5210990     0.7448870
  O       -2.3570290    -3.0668370     0.0949400
  O        1.3605300     2.2470340    -0.0765420
  N        0.8434040     0.0452230     0.2559430
  N        3.0572260     0.7205030    -0.2937270
  N        4.7164630    -0.8366550    -0.5722980
  C       -1.2964996     1.0810372    -0.6176076
  C       -2.7151710     0.6552070    -0.2573930
  C       -0.5254080     0.4815200     0.6000940
  C       -2.5292560    -0.7168860     0.3610560
  C       -2.5283440    -1.8503930    -0.6392900
  C        1.2197750    -1.2614080     0.3112740
  C        1.7555940     1.0674350    -0.0594030
  C        2.5111010    -1.6091400     0.0469950
  C        3.4119830    -0.5506530    -0.2589250
  H       -0.9376060     0.5914040    -1.5148910
  H       -3.3476947     0.6483300    -1.1571784
  H       -0.4402900     1.2218800     1.4039980
  H       -3.2819570    -0.9087340     1.1307830
  H       -1.7133080    -1.7003050    -1.3694640
  H       -3.4855610    -1.8340040    -1.1841350
  H       -0.2975250     2.7131790    -0.5250000
  H       -2.8475560     2.3997430     0.5086630
  H        0.4343110    -1.9634370     0.5690680
  H       -2.4338740    -3.7984320    -0.5432330
  H        2.8291120    -2.6453980     0.0739220
  H        5.1251800    -1.6708610    -0.1624140
  H        5.3198140    -0.0200540    -0.5682940
units angstrom
no_reorient  #important for SAPT in psi4, default
symmetry c1  #important for SAPT in psi4, default
}

set PROPERTIES_ORIGIN ["COM"]
properties('MP2/aug-cc-pvtz', properties = ['dipole'])
--------------------------------------------------------------------------

    Molecular point group: c1
  Charge       = 0
  Multiplicity = 1
  Basis Set: AUG-CC-PVTZ
    Blend: AUG-CC-PVTZ
  Basis Set: (AUG-CC-PVTZ AUX)
    Blend: AUG-CC-PVTZ-JKFIT

    Orbital Energies [Eh]
    ---------------------

    Doubly Occupied:

       1A    -20.582283     2A    -20.581185     3A    -20.558463
       4A    -20.557268     5A    -20.521753     6A    -15.636526
       7A    -15.599671     8A    -15.553151     9A    -11.387978
      10A    -11.357624    11A    -11.341293    12A    -11.328199
      13A    -11.301277    14A    -11.297126    15A    -11.296368
      16A    -11.292960    17A    -11.248303    18A     -1.428433
      19A     -1.396045    20A     -1.380546    21A     -1.372874
      22A     -1.346908    23A     -1.305805    24A     -1.273442
      25A     -1.181980    26A     -1.081111    27A     -1.067723
      28A     -1.018885    29A     -0.935066    30A     -0.909179
      31A     -0.876911    32A     -0.833498    33A     -0.810718
      34A     -0.766750    35A     -0.751462    36A     -0.736536
      37A     -0.720113    38A     -0.702761    39A     -0.699914
      40A     -0.685345    41A     -0.673771    42A     -0.654499
      43A     -0.651622    44A     -0.637949    45A     -0.620510
      46A     -0.614912    47A     -0.606760    48A     -0.593307
      49A     -0.575334    50A     -0.569624    51A     -0.553781
      52A     -0.545978    53A     -0.537277    54A     -0.531706
      55A     -0.498086    56A     -0.477170    57A     -0.476076
      58A     -0.461924    59A     -0.459632    60A     -0.453623
      61A     -0.438380    62A     -0.432898    63A     -0.394530
      64A     -0.349363

  @DF-RHF Final Energy:  -886.37286682474939

   => Energetics <=

    Nuclear Repulsion Energy =           1323.2942420660472180
    One-Electron Energy =               -3844.2699213880896423
    Two-Electron Energy =                1634.6028124972926889
    Total Energy =                       -886.3728668247495079
  Basis Set: (AUG-CC-PVTZ AUX)
    Blend: AUG-CC-PVTZ-RI
    Molecular point group: c1

    Geometry (in Angstrom), charge = 0, multiplicity = 1:

       Center              X                  Y                   Z               Mass
    ------------   -----------------  -----------------  -----------------  -----------------
         O           -1.247816428723    -0.652820182097     1.033819751721    15.994914619570
         O           -1.244690428723     2.482698817903    -0.684858248279    15.994914619570
         O           -3.216245428723     1.520946817903     0.746191751721    15.994914619570
         O           -2.356744428723    -3.066989182097     0.096244751721    15.994914619570
         O            1.360814571277     2.246881817903    -0.075237248279    15.994914619570
         N            0.843688571277     0.045070817903     0.257247751721    14.003074004430
         N            3.057510571277     0.720350817903    -0.292422248279    14.003074004430
         N            4.716747571277    -0.836807182097    -0.570993248279    14.003074004430
         C           -1.296215028723     1.080885017903    -0.616302848279    12.000000000000
         C           -2.714886428723     0.655054817903    -0.256088248279    12.000000000000
         C           -0.525123428723     0.481367817903     0.601398751721    12.000000000000
         C           -2.528971428723    -0.717038182097     0.362360751721    12.000000000000
         C           -2.528059428723    -1.850545182097    -0.637985248279    12.000000000000
         C            1.220059571277    -1.261560182097     0.312578751721    12.000000000000
         C            1.755878571277     1.067282817903    -0.058098248279    12.000000000000
         C            2.511385571277    -1.609292182097     0.048299751721    12.000000000000
         C            3.412267571277    -0.550805182097    -0.257620248279    12.000000000000
         H           -0.937321428723     0.591251817903    -1.513586248279     1.007825032230
         H           -3.347410128723     0.648177817903    -1.155873648279     1.007825032230
         H           -0.440005428723     1.221727817903     1.405302751721     1.007825032230
         H           -3.281672428723    -0.908886182097     1.132087751721     1.007825032230
         H           -1.713023428723    -1.700457182097    -1.368159248279     1.007825032230
         H           -3.485276428723    -1.834156182097    -1.182830248279     1.007825032230
         H           -0.297240428723     2.713026817903    -0.523695248279     1.007825032230
         H           -2.847271428723     2.399590817903     0.509967751721     1.007825032230
         H            0.434595571277    -1.963589182097     0.570372751721     1.007825032230
         H           -2.433589428723    -3.798584182097    -0.541928248279     1.007825032230
         H            2.829396571277    -2.645550182097     0.075226751721     1.007825032230
         H            5.125464571277    -1.671013182097    -0.161109248279     1.007825032230
         H            5.320098571277    -0.020206182097    -0.566989248279     1.007825032230

  Basis Set: AUG-CC-PVTZ
    Blend: AUG-CC-PVTZ
  Basis Set: (AUG-CC-PVTZ AUX)
    Blend: AUG-CC-PVTZ-JKFIT
	 Reference Energy          =    -886.3728668247493943 [Eh]
	 Singles Energy            =      -0.0000000000000000 [Eh]
	 Same-Spin Energy          =      -0.9011827556460247 [Eh]
	 Opposite-Spin Energy      =      -2.7148620763484423 [Eh]
	 Correlation Energy        =      -3.6160448319944671 [Eh]
	 Total Energy              =    -889.9889116567438805 [Eh]

	 ================> DF-SCS-MP2 Energies <==================
	-----------------------------------------------------------
	 SCS Same-Spin Scale       =       0.3333333333333333 [-]
	 SCS Opposite-Spin Scale   =       1.2000000000000000 [-]
	 SCS Same-Spin Energy      =      -0.3003942518820082 [Eh]
	 SCS Opposite-Spin Energy  =      -3.2578344916181305 [Eh]
	 SCS Correlation Energy    =      -3.5582287435001385 [Eh]
	 SCS Total Energy          =    -889.9310955682495887 [Eh]
	-----------------------------------------------------------

  Dipole Moment: [D]
     X:     1.6943      Y:    -5.9360      Z:    -1.8463     Total:     6.4432

*** Psi4 exiting successfully. Buy a developer a beer!
