                               Psi4 1.3.2 release

  ==> Input File <==

--------------------------------------------------------------------------
#psi4
#
memory 32 gb

molecule  {
0 1
  O       -1.2481010    -0.6526680     1.0325150
  O       -1.2449750     2.4828510    -0.6861630
  O       -3.2165300     1.5210990     0.7448870
  O       -2.3570290    -3.0668370     0.0949400
  O        1.3605300     2.2470340    -0.0765420
  N        0.8434040     0.0452230     0.2559430
  N        3.0572260     0.7205030    -0.2937270
  N        4.7164630    -0.8366550    -0.5722980
  C       -1.2894840     1.0784300    -0.5920770
  C       -2.7151710     0.6552070    -0.2573930
  C       -0.5254080     0.4815200     0.6000940
  C       -2.5415157    -0.6264066     0.3202739
  C       -2.5283440    -1.8503930    -0.6392900
  C        1.2197750    -1.2614080     0.3112740
  C        1.7555940     1.0674350    -0.0594030
  C        2.5111010    -1.6091400     0.0469950
  C        3.4119830    -0.5506530    -0.2589250
  H       -0.9376060     0.5914040    -1.5148910
  H       -3.3625820     0.6426650    -1.1464650
  H       -0.4402900     1.2218800     1.4039980
  H       -3.2819570    -0.9087340     1.1307830
  H       -1.7133080    -1.7003050    -1.3694640
  H       -3.4855610    -1.8340040    -1.1841350
  H       -0.2975250     2.7131790    -0.5250000
  H       -2.8475560     2.3997430     0.5086630
  H        0.4343110    -1.9634370     0.5690680
  H       -2.4338740    -3.7984320    -0.5432330
  H        2.8291120    -2.6453980     0.0739220
  H        5.1251800    -1.6708610    -0.1624140
  H        5.3198140    -0.0200540    -0.5682940
units angstrom
no_reorient  #important for SAPT in psi4, default
symmetry c1  #important for SAPT in psi4, default
}

set PROPERTIES_ORIGIN ["COM"]
properties('MP2/aug-cc-pvtz', properties = ['dipole'])
--------------------------------------------------------------------------

    Molecular point group: c1
  Charge       = 0
  Multiplicity = 1
  Basis Set: AUG-CC-PVTZ
    Blend: AUG-CC-PVTZ
  Basis Set: (AUG-CC-PVTZ AUX)
    Blend: AUG-CC-PVTZ-JKFIT

    Orbital Energies [Eh]
    ---------------------

    Doubly Occupied:

       1A    -20.583739     2A    -20.581055     3A    -20.559376
       4A    -20.558331     5A    -20.521859     6A    -15.636511
       7A    -15.599683     8A    -15.553112     9A    -11.387964
      10A    -11.357651    11A    -11.339984    12A    -11.328219
      13A    -11.304288    14A    -11.299340    15A    -11.298974
      16A    -11.290157    17A    -11.248294    18A     -1.427695
      19A     -1.395808    20A     -1.380634    21A     -1.372202
      22A     -1.348638    23A     -1.305663    24A     -1.273047
      25A     -1.181909    26A     -1.083065    27A     -1.080990
      28A     -1.017078    29A     -0.935194    30A     -0.908638
      31A     -0.881731    32A     -0.836836    33A     -0.807939
      34A     -0.766071    35A     -0.752513    36A     -0.735149
      37A     -0.720782    38A     -0.704719    39A     -0.698584
      40A     -0.684518    41A     -0.674247    42A     -0.652659
      43A     -0.651329    44A     -0.640481    45A     -0.620492
      46A     -0.611870    47A     -0.604768    48A     -0.594003
      49A     -0.575751    50A     -0.563958    51A     -0.561791
      52A     -0.545656    53A     -0.536605    54A     -0.526929
      55A     -0.500503    56A     -0.486948    57A     -0.476667
      58A     -0.460769    59A     -0.459125    60A     -0.452119
      61A     -0.439555    62A     -0.431329    63A     -0.395005
      64A     -0.349831

  @DF-RHF Final Energy:  -886.35956912079087

   => Energetics <=

    Nuclear Repulsion Energy =           1324.4663499342875639
    One-Electron Energy =               -3846.5311772744157679
    Two-Electron Energy =                1635.7052582193375656
    Total Energy =                       -886.3595691207908658
  Basis Set: (AUG-CC-PVTZ AUX)
    Blend: AUG-CC-PVTZ-RI
    Molecular point group: c1

    Geometry (in Angstrom), charge = 0, multiplicity = 1:

       Center              X                  Y                   Z               Mass
    ------------   -----------------  -----------------  -----------------  -----------------
         O           -1.247495829646    -0.657134536440     1.034528229819    15.994914619570
         O           -1.244369829646     2.478384463560    -0.684149770181    15.994914619570
         O           -3.215924829646     1.516632463560     0.746900229819    15.994914619570
         O           -2.356423829646    -3.071303536440     0.096953229819    15.994914619570
         O            1.361135170354     2.242567463560    -0.074528770181    15.994914619570
         N            0.844009170354     0.040756463560     0.257956229819    14.003074004430
         N            3.057831170354     0.716036463560    -0.291713770181    14.003074004430
         N            4.717068170354    -0.841121536440    -0.570284770181    14.003074004430
         C           -1.288878829646     1.073963463560    -0.590063770181    12.000000000000
         C           -2.714565829646     0.650740463560    -0.255379770181    12.000000000000
         C           -0.524802829646     0.477053463560     0.602107229819    12.000000000000
         C           -2.540910529646    -0.630873136440     0.322287129819    12.000000000000
         C           -2.527738829646    -1.854859536440    -0.637276770181    12.000000000000
         C            1.220380170354    -1.265874536440     0.313287229819    12.000000000000
         C            1.756199170354     1.062968463560    -0.057389770181    12.000000000000
         C            2.511706170354    -1.613606536440     0.049008229819    12.000000000000
         C            3.412588170354    -0.555119536440    -0.256911770181    12.000000000000
         H           -0.937000829646     0.586937463560    -1.512877770181     1.007825032230
         H           -3.361976829646     0.638198463560    -1.144451770181     1.007825032230
         H           -0.439684829646     1.217413463560     1.406011229819     1.007825032230
         H           -3.281351829646    -0.913200536440     1.132796229819     1.007825032230
         H           -1.712702829646    -1.704771536440    -1.367450770181     1.007825032230
         H           -3.484955829646    -1.838470536440    -1.182121770181     1.007825032230
         H           -0.296919829646     2.708712463560    -0.522986770181     1.007825032230
         H           -2.846950829646     2.395276463560     0.510676229819     1.007825032230
         H            0.434916170354    -1.967903536440     0.571081229819     1.007825032230
         H           -2.433268829646    -3.802898536440    -0.541219770181     1.007825032230
         H            2.829717170354    -2.649864536440     0.075935229819     1.007825032230
         H            5.125785170354    -1.675327536440    -0.160400770181     1.007825032230
         H            5.320419170354    -0.024520536440    -0.566280770181     1.007825032230

  Basis Set: AUG-CC-PVTZ
    Blend: AUG-CC-PVTZ
  Basis Set: (AUG-CC-PVTZ AUX)
    Blend: AUG-CC-PVTZ-JKFIT
	 Reference Energy          =    -886.3595691207908658 [Eh]
	 Singles Energy            =      -0.0000000000000000 [Eh]
	 Same-Spin Energy          =      -0.9024853309966461 [Eh]
	 Opposite-Spin Energy      =      -2.7169685200857536 [Eh]
	 Correlation Energy        =      -3.6194538510823997 [Eh]
	 Total Energy              =    -889.9790229718732917 [Eh]

	 ================> DF-SCS-MP2 Energies <==================
	-----------------------------------------------------------
	 SCS Same-Spin Scale       =       0.3333333333333333 [-]
	 SCS Opposite-Spin Scale   =       1.2000000000000000 [-]
	 SCS Same-Spin Energy      =      -0.3008284436655487 [Eh]
	 SCS Opposite-Spin Energy  =      -3.2603622241029044 [Eh]
	 SCS Correlation Energy    =      -3.5611906677684533 [Eh]
	 SCS Total Energy          =    -889.9207597885592804 [Eh]
	-----------------------------------------------------------

  Dipole Moment: [D]
     X:     1.6866      Y:    -5.8734      Z:    -1.8670     Total:     6.3896

*** Psi4 exiting successfully. Buy a developer a beer!
