                               Psi4 1.3.2 release

  ==> Input File <==

--------------------------------------------------------------------------
#psi4
#
memory 32 gb

molecule  {
0 1
  O       -1.2481010    -0.6526680     1.0325150
  O       -1.2449750     2.4828510    -0.6861630
  O       -3.2165300     1.5210990     0.7448870
  O       -2.3570290    -3.0668370     0.0949400
  O        1.3605300     2.2470340    -0.0765420
  N        0.8434040     0.0452230     0.2559430
  N        3.0572260     0.7205030    -0.2937270
  N        4.7164630    -0.8366550    -0.5722980
  C       -1.2894840     1.0784300    -0.5920770
  C       -2.7151710     0.6552070    -0.2573930
  C       -0.5254080     0.4815200     0.6000940
  C       -2.5292560    -0.7168860     0.3610560
  C       -2.5283440    -1.8503930    -0.6392900
  C        1.2379007    -1.1932270     0.3004928
  C        1.7555940     1.0674350    -0.0594030
  C        2.5111010    -1.6091400     0.0469950
  C        3.4119830    -0.5506530    -0.2589250
  H       -0.9376060     0.5914040    -1.5148910
  H       -3.3625820     0.6426650    -1.1464650
  H       -0.4402900     1.2218800     1.4039980
  H       -3.2819570    -0.9087340     1.1307830
  H       -1.7133080    -1.7003050    -1.3694640
  H       -3.4855610    -1.8340040    -1.1841350
  H       -0.2975250     2.7131790    -0.5250000
  H       -2.8475560     2.3997430     0.5086630
  H        0.4343110    -1.9634370     0.5690680
  H       -2.4338740    -3.7984320    -0.5432330
  H        2.8814203    -2.6281475     0.0601837
  H        5.1251800    -1.6708610    -0.1624140
  H        5.3198140    -0.0200540    -0.5682940
units angstrom
no_reorient  #important for SAPT in psi4, default
symmetry c1  #important for SAPT in psi4, default
}

set PROPERTIES_ORIGIN ["COM"]
properties('MP2/aug-cc-pvtz', properties = ['dipole'])
--------------------------------------------------------------------------

    Molecular point group: c1
  Charge       = 0
  Multiplicity = 1
  Basis Set: AUG-CC-PVTZ
    Blend: AUG-CC-PVTZ
  Basis Set: (AUG-CC-PVTZ AUX)
    Blend: AUG-CC-PVTZ-JKFIT

    Orbital Energies [Eh]
    ---------------------

    Doubly Occupied:

       1A    -20.583606     2A    -20.582431     3A    -20.559447
       4A    -20.559360     5A    -20.523498     6A    -15.641738
       7A    -15.596830     8A    -15.551098     9A    -11.389123
      10A    -11.352752    11A    -11.346129    12A    -11.326994
      13A    -11.301850    14A    -11.299656    15A    -11.298301
      16A    -11.294853    17A    -11.242973    18A     -1.433643
      19A     -1.400246    20A     -1.381994    21A     -1.373623
      22A     -1.348217    23A     -1.314166    24A     -1.281017
      25A     -1.181855    26A     -1.080478    27A     -1.069375
      28A     -1.024766    29A     -0.938873    30A     -0.911437
      31A     -0.877892    32A     -0.834760    33A     -0.813016
      34A     -0.769836    35A     -0.756523    36A     -0.739462
      37A     -0.717061    38A     -0.703159    39A     -0.700078
      40A     -0.680980    41A     -0.673566    42A     -0.657772
      43A     -0.653696    44A     -0.641682    45A     -0.619762
      46A     -0.613513    47A     -0.602177    48A     -0.596348
      49A     -0.573939    50A     -0.569174    51A     -0.554590
      52A     -0.547363    53A     -0.538801    54A     -0.532413
      55A     -0.504876    56A     -0.478966    57A     -0.476179
      58A     -0.463583    59A     -0.460569    60A     -0.454710
      61A     -0.441608    62A     -0.431512    63A     -0.395556
      64A     -0.346618

  @DF-RHF Final Energy:  -886.36742837941449

   => Energetics <=

    Nuclear Repulsion Energy =           1325.1710011673824283
    One-Electron Energy =               -3847.8527283430221360
    Two-Electron Energy =                1636.3142987962255575
    Total Energy =                       -886.3674283794143776
  Basis Set: (AUG-CC-PVTZ AUX)
    Blend: AUG-CC-PVTZ-RI
    Molecular point group: c1

    Geometry (in Angstrom), charge = 0, multiplicity = 1:

       Center              X                  Y                   Z               Mass
    ------------   -----------------  -----------------  -----------------  -----------------
         O           -1.249212683917    -0.656105288323     1.033104183678    15.994914619570
         O           -1.246086683917     2.479413711677    -0.685573816322    15.994914619570
         O           -3.217641683917     1.517661711677     0.745476183678    15.994914619570
         O           -2.358140683917    -3.070274288323     0.095529183678    15.994914619570
         O            1.359418316083     2.243596711677    -0.075952816322    15.994914619570
         N            0.842292316083     0.041785711677     0.256532183678    14.003074004430
         N            3.056114316083     0.717065711677    -0.293137816322    14.003074004430
         N            4.715351316083    -0.840092288323    -0.571708816322    14.003074004430
         C           -1.290595683917     1.074992711677    -0.591487816322    12.000000000000
         C           -2.716282683917     0.651769711677    -0.256803816322    12.000000000000
         C           -0.526519683917     0.478082711677     0.600683183678    12.000000000000
         C           -2.530367683917    -0.720323288323     0.361645183678    12.000000000000
         C           -2.529455683917    -1.853830288323    -0.638700816322    12.000000000000
         C            1.236789016083    -1.196664288323     0.301081983678    12.000000000000
         C            1.754482316083     1.063997711677    -0.058813816322    12.000000000000
         C            2.509989316083    -1.612577288323     0.047584183678    12.000000000000
         C            3.410871316083    -0.554090288323    -0.258335816322    12.000000000000
         H           -0.938717683917     0.587966711677    -1.514301816322     1.007825032230
         H           -3.363693683917     0.639227711677    -1.145875816322     1.007825032230
         H           -0.441401683917     1.218442711677     1.404587183678     1.007825032230
         H           -3.283068683917    -0.912171288323     1.131372183678     1.007825032230
         H           -1.714419683917    -1.703742288323    -1.368874816322     1.007825032230
         H           -3.486672683917    -1.837441288323    -1.183545816322     1.007825032230
         H           -0.298636683917     2.709741711677    -0.524410816322     1.007825032230
         H           -2.848667683917     2.396305711677     0.509252183678     1.007825032230
         H            0.433199316083    -1.966874288323     0.569657183678     1.007825032230
         H           -2.434985683917    -3.801869288323    -0.542643816322     1.007825032230
         H            2.880308616083    -2.631584788323     0.060772883678     1.007825032230
         H            5.124068316083    -1.674298288323    -0.161824816322     1.007825032230
         H            5.318702316083    -0.023491288323    -0.567704816322     1.007825032230

  Basis Set: AUG-CC-PVTZ
    Blend: AUG-CC-PVTZ
  Basis Set: (AUG-CC-PVTZ AUX)
    Blend: AUG-CC-PVTZ-JKFIT
	 Reference Energy          =    -886.3674283794144912 [Eh]
	 Singles Energy            =      -0.0000000000000000 [Eh]
	 Same-Spin Energy          =      -0.9015524309577144 [Eh]
	 Opposite-Spin Energy      =      -2.7144493820358790 [Eh]
	 Correlation Energy        =      -3.6160018129935936 [Eh]
	 Total Energy              =    -889.9834301924080364 [Eh]

	 ================> DF-SCS-MP2 Energies <==================
	-----------------------------------------------------------
	 SCS Same-Spin Scale       =       0.3333333333333333 [-]
	 SCS Opposite-Spin Scale   =       1.2000000000000000 [-]
	 SCS Same-Spin Energy      =      -0.3005174769859048 [Eh]
	 SCS Opposite-Spin Energy  =      -3.2573392584430549 [Eh]
	 SCS Correlation Energy    =      -3.5578567354289596 [Eh]
	 SCS Total Energy          =    -889.9252851148434047 [Eh]
	-----------------------------------------------------------

  Dipole Moment: [D]
     X:     1.4838      Y:    -5.8030      Z:    -1.8071     Total:     6.2564

*** Psi4 exiting successfully. Buy a developer a beer!
