                               Psi4 1.3.2 release

  ==> Input File <==

--------------------------------------------------------------------------
#psi4
#
memory 32 gb

molecule  {
0 1
  O       -1.2481010    -0.6526680     1.0325150
  O       -1.2449750     2.4828510    -0.6861630
  O       -3.2165300     1.5210990     0.7448870
  O       -2.3570290    -3.0668370     0.0949400
  O        1.3605300     2.2470340    -0.0765420
  N        0.8434040     0.0452230     0.2559430
  N        3.0572260     0.7205030    -0.2937270
  N        4.7164630    -0.8366550    -0.5722980
  C       -1.2894840     1.0784300    -0.5920770
  C       -2.7151710     0.6552070    -0.2573930
  C       -0.5254080     0.4815200     0.6000940
  C       -2.4828820    -0.6834698     0.4161566
  C       -2.5283440    -1.8503930    -0.6392900
  C        1.2197750    -1.2614080     0.3112740
  C        1.7555940     1.0674350    -0.0594030
  C        2.5111010    -1.6091400     0.0469950
  C        3.4119830    -0.5506530    -0.2589250
  H       -0.9376060     0.5914040    -1.5148910
  H       -3.3549482     0.6995626    -1.1509617
  H       -0.4402900     1.2218800     1.4039980
  H       -3.2819570    -0.9087340     1.1307830
  H       -1.7133080    -1.7003050    -1.3694640
  H       -3.4855610    -1.8340040    -1.1841350
  H       -0.2975250     2.7131790    -0.5250000
  H       -2.8475560     2.3997430     0.5086630
  H        0.4343110    -1.9634370     0.5690680
  H       -2.4338740    -3.7984320    -0.5432330
  H        2.8291120    -2.6453980     0.0739220
  H        5.1251800    -1.6708610    -0.1624140
  H        5.3198140    -0.0200540    -0.5682940
units angstrom
no_reorient  #important for SAPT in psi4, default
symmetry c1  #important for SAPT in psi4, default
}

set PROPERTIES_ORIGIN ["COM"]
properties('MP2/aug-cc-pvtz', properties = ['dipole'])
--------------------------------------------------------------------------

    Molecular point group: c1
  Charge       = 0
  Multiplicity = 1
  Basis Set: AUG-CC-PVTZ
    Blend: AUG-CC-PVTZ
  Basis Set: (AUG-CC-PVTZ AUX)
    Blend: AUG-CC-PVTZ-JKFIT

    Orbital Energies [Eh]
    ---------------------

    Doubly Occupied:

       1A    -20.589633     2A    -20.578677     3A    -20.557831
       4A    -20.555079     5A    -20.523525     6A    -15.639337
       7A    -15.601010     8A    -15.554812     9A    -11.390018
      10A    -11.359293    11A    -11.345838    12A    -11.330433
      13A    -11.297704    14A    -11.296460    15A    -11.296135
      16A    -11.290294    17A    -11.250182    18A     -1.447180
      19A     -1.400830    20A     -1.380767    21A     -1.370858
      22A     -1.345963    23A     -1.308239    24A     -1.276848
      25A     -1.183979    26A     -1.084433    27A     -1.059775
      28A     -1.021511    29A     -0.931499    30A     -0.912040
      31A     -0.877025    32A     -0.834439    33A     -0.815718
      34A     -0.768288    35A     -0.756290    36A     -0.736948
      37A     -0.722121    38A     -0.700146    39A     -0.699535
      40A     -0.687617    41A     -0.670986    42A     -0.658549
      43A     -0.650902    44A     -0.641972    45A     -0.621826
      46A     -0.619192    47A     -0.608719    48A     -0.594028
      49A     -0.582078    50A     -0.571766    51A     -0.554072
      52A     -0.542261    53A     -0.541482    54A     -0.531231
      55A     -0.498568    56A     -0.474375    57A     -0.473218
      58A     -0.461474    59A     -0.456013    60A     -0.452169
      61A     -0.438259    62A     -0.431306    63A     -0.396360
      64A     -0.351565

  @DF-RHF Final Energy:  -886.36875286583802

   => Energetics <=

    Nuclear Repulsion Energy =           1324.6509726415099522
    One-Electron Energy =               -3846.8380902176400014
    Two-Electron Energy =                1635.8183647102916893
    Total Energy =                       -886.3687528658381325
  Basis Set: (AUG-CC-PVTZ AUX)
    Blend: AUG-CC-PVTZ-RI
    Molecular point group: c1

    Geometry (in Angstrom), charge = 0, multiplicity = 1:

       Center              X                  Y                   Z               Mass
    ------------   -----------------  -----------------  -----------------  -----------------
         O           -1.250421951832    -0.654553487708     1.029813590663    15.994914619570
         O           -1.247295951832     2.480965512292    -0.688864409337    15.994914619570
         O           -3.218850951832     1.519213512292     0.742185590663    15.994914619570
         O           -2.359349951832    -3.068722487708     0.092238590663    15.994914619570
         O            1.358209048168     2.245148512292    -0.079243409337    15.994914619570
         N            0.841083048168     0.043337512292     0.253241590663    14.003074004430
         N            3.054905048168     0.718617512292    -0.296428409337    14.003074004430
         N            4.714142048168    -0.838540487708    -0.574999409337    14.003074004430
         C           -1.291804951832     1.076544512292    -0.594778409337    12.000000000000
         C           -2.717491951832     0.653321512292    -0.260094409337    12.000000000000
         C           -0.527728951832     0.479634512292     0.597392590663    12.000000000000
         C           -2.485202951832    -0.685355287708     0.413455190663    12.000000000000
         C           -2.530664951832    -1.852278487708    -0.641991409337    12.000000000000
         C            1.217454048168    -1.263293487708     0.308572590663    12.000000000000
         C            1.753273048168     1.065549512292    -0.062104409337    12.000000000000
         C            2.508780048168    -1.611025487708     0.044293590663    12.000000000000
         C            3.409662048168    -0.552538487708    -0.261626409337    12.000000000000
         H           -0.939926951832     0.589518512292    -1.517592409337     1.007825032230
         H           -3.357269151832     0.697677112292    -1.153663109337     1.007825032230
         H           -0.442610951832     1.219994512292     1.401296590663     1.007825032230
         H           -3.284277951832    -0.910619487708     1.128081590663     1.007825032230
         H           -1.715628951832    -1.702190487708    -1.372165409337     1.007825032230
         H           -3.487881951832    -1.835889487708    -1.186836409337     1.007825032230
         H           -0.299845951832     2.711293512292    -0.527701409337     1.007825032230
         H           -2.849876951832     2.397857512292     0.505961590663     1.007825032230
         H            0.431990048168    -1.965322487708     0.566366590663     1.007825032230
         H           -2.436194951832    -3.800317487708    -0.545934409337     1.007825032230
         H            2.826791048168    -2.647283487708     0.071220590663     1.007825032230
         H            5.122859048168    -1.672746487708    -0.165115409337     1.007825032230
         H            5.317493048168    -0.021939487708    -0.570995409337     1.007825032230

  Basis Set: AUG-CC-PVTZ
    Blend: AUG-CC-PVTZ
  Basis Set: (AUG-CC-PVTZ AUX)
    Blend: AUG-CC-PVTZ-JKFIT
	 Reference Energy          =    -886.3687528658380188 [Eh]
	 Singles Energy            =      -0.0000000000000000 [Eh]
	 Same-Spin Energy          =      -0.9010541308634854 [Eh]
	 Opposite-Spin Energy      =      -2.7142956699060750 [Eh]
	 Correlation Energy        =      -3.6153498007695601 [Eh]
	 Total Energy              =    -889.9841026666075550 [Eh]

	 ================> DF-SCS-MP2 Energies <==================
	-----------------------------------------------------------
	 SCS Same-Spin Scale       =       0.3333333333333333 [-]
	 SCS Opposite-Spin Scale   =       1.2000000000000000 [-]
	 SCS Same-Spin Energy      =      -0.3003513769544951 [Eh]
	 SCS Opposite-Spin Energy  =      -3.2571548038872900 [Eh]
	 SCS Correlation Energy    =      -3.5575061808417852 [Eh]
	 SCS Total Energy          =    -889.9262590466797747 [Eh]
	-----------------------------------------------------------

  Dipole Moment: [D]
     X:     1.9923      Y:    -5.8155      Z:    -1.7140     Total:     6.3817

*** Psi4 exiting successfully. Buy a developer a beer!
