                               Psi4 1.4a3.dev225

  ==> Input File <==

--------------------------------------------------------------------------
#psi4
#
memory 32 gb

molecule  {
0 1
  O       -1.3191770     0.6538360    -1.0992360
  O       -1.5735610    -2.4640850     0.5135810
  O       -3.5606630    -1.0699430    -0.4600060
  O       -1.4399290     3.1254620     0.1265180
  O        1.1065530    -2.3833650     0.0076020
  N        0.7686360    -0.1579440    -0.3706350
  N        2.9363770    -0.9938720     0.1460080
  N        4.7058880     0.4431110     0.3611260
  C       -1.3768610    -1.0680440     0.5552780
  C       -2.7379840    -0.3746360     0.4578480
  C       -0.6567430    -0.5089717    -0.6831798
  C       -2.3707440     0.9655450    -0.1585060
  C       -1.8992030     1.9895750     0.8571380
  C        1.2309690     1.1190800    -0.4442230
  C        1.6104480    -1.2470590    -0.0585760
  C        2.5474650     1.3753690    -0.1998620
  C        3.3802090     0.2523040     0.0808410
  H       -0.8441360    -0.7686950     1.4698480
  H       -3.2257400    -0.2778790     1.4400230
  H       -0.6227070    -1.2428120    -1.4883720
  H       -3.1941750     1.3785730    -0.7472070
  H       -1.0952130     1.5703990     1.4802000
  H       -2.7410530     2.2466610     1.5166010
  H       -0.6710550    -2.8260740     0.3542250
  H       -3.3063470    -2.0105220    -0.3629290
  H        0.4929290     1.8778260    -0.6840360
  H       -1.2098800     3.8154810     0.7720340
  H        2.9334840     2.3875570    -0.2389120
  H        5.1589650     1.2712730    -0.0008400
  H        5.2635310    -0.4031270     0.3606700
units angstrom
no_reorient  #important for SAPT in psi4, default
symmetry c1  #important for SAPT in psi4, default
}

set PROPERTIES_ORIGIN ["COM"]
properties('MP2/aug-cc-pvtz', properties = ['dipole'])
--------------------------------------------------------------------------

    Molecular point group: c1
  Charge       = 0
  Multiplicity = 1
  Basis Set: AUG-CC-PVTZ
    Blend: AUG-CC-PVTZ
  Basis Set: (AUG-CC-PVTZ AUX)
    Blend: AUG-CC-PVTZ-JKFIT

    Orbital Energies [Eh]
    ---------------------

    Doubly Occupied:

       1A    -20.587042     2A    -20.583026     3A    -20.559716
       4A    -20.557255     5A    -20.518651     6A    -15.631213
       7A    -15.598866     8A    -15.550765     9A    -11.384704
      10A    -11.357083    11A    -11.340601    12A    -11.324018
      13A    -11.304047    14A    -11.298766    15A    -11.297402
      16A    -11.294212    17A    -11.245476    18A     -1.431213
      19A     -1.393254    20A     -1.383386    21A     -1.376548
      22A     -1.347242    23A     -1.302351    24A     -1.268648
      25A     -1.179739    26A     -1.077691    27A     -1.069354
      28A     -1.018780    29A     -0.935925    30A     -0.905233
      31A     -0.875849    32A     -0.830452    33A     -0.813598
      34A     -0.764995    35A     -0.749451    36A     -0.735860
      37A     -0.721899    38A     -0.708429    39A     -0.703457
      40A     -0.684617    41A     -0.674551    42A     -0.653888
      43A     -0.648848    44A     -0.633444    45A     -0.620383
      46A     -0.615012    47A     -0.608060    48A     -0.591929
      49A     -0.577738    50A     -0.565599    51A     -0.555853
      52A     -0.548466    53A     -0.537053    54A     -0.531473
      55A     -0.494939    56A     -0.481226    57A     -0.474344
      58A     -0.463920    59A     -0.457333    60A     -0.454535
      61A     -0.443115    62A     -0.428826    63A     -0.391777
      64A     -0.347340

  @DF-RHF Final Energy:  -886.37390984131036

   => Energetics <=

    Nuclear Repulsion Energy =           1334.4723996920142781
    One-Electron Energy =               -3866.6716837912545088
    Two-Electron Energy =                1645.8253742579297523
    Total Energy =                       -886.3739098413104784
  Basis Set: (AUG-CC-PVTZ AUX)
    Blend: AUG-CC-PVTZ-RI
    Molecular point group: c1

    Geometry (in Angstrom), charge = 0, multiplicity = 1:

       Center              X                  Y                   Z               Mass
    ------------   -----------------  -----------------  -----------------  -----------------
         O           -1.330983009479     0.682678383010    -1.083250192315    15.994914619570
         O           -1.585367009479    -2.435242616990     0.529566807685    15.994914619570
         O           -3.572469009479    -1.041100616990    -0.444020192315    15.994914619570
         O           -1.451735009479     3.154304383010     0.142503807685    15.994914619570
         O            1.094746990521    -2.354522616990     0.023587807685    15.994914619570
         N            0.756829990521    -0.129101616990    -0.354649192315    14.003074004430
         N            2.924570990521    -0.965029616990     0.161993807685    14.003074004430
         N            4.694081990521     0.471953383010     0.377111807685    14.003074004430
         C           -1.388667009479    -1.039201616990     0.571263807685    12.000000000000
         C           -2.749790009479    -0.345793616990     0.473833807685    12.000000000000
         C           -0.668549009479    -0.480129316990    -0.667193992315    12.000000000000
         C           -2.382550009479     0.994387383010    -0.142520192315    12.000000000000
         C           -1.911009009479     2.018417383010     0.873123807685    12.000000000000
         C            1.219162990521     1.147922383010    -0.428237192315    12.000000000000
         C            1.598641990521    -1.218216616990    -0.042590192315    12.000000000000
         C            2.535658990521     1.404211383010    -0.183876192315    12.000000000000
         C            3.368402990521     0.281146383010     0.096826807685    12.000000000000
         H           -0.855942009479    -0.739852616990     1.485833807685     1.007825032230
         H           -3.237546009479    -0.249036616990     1.456008807685     1.007825032230
         H           -0.634513009479    -1.213969616990    -1.472386192315     1.007825032230
         H           -3.205981009479     1.407415383010    -0.731221192315     1.007825032230
         H           -1.107019009479     1.599241383010     1.496185807685     1.007825032230
         H           -2.752859009479     2.275503383010     1.532586807685     1.007825032230
         H           -0.682861009479    -2.797231616990     0.370210807685     1.007825032230
         H           -3.318153009479    -1.981679616990    -0.346943192315     1.007825032230
         H            0.481122990521     1.906668383010    -0.668050192315     1.007825032230
         H           -1.221686009479     3.844323383010     0.788019807685     1.007825032230
         H            2.921677990521     2.416399383010    -0.222926192315     1.007825032230
         H            5.147158990521     1.300115383010     0.015145807685     1.007825032230
         H            5.251724990521    -0.374284616990     0.376655807685     1.007825032230

  Basis Set: AUG-CC-PVTZ
    Blend: AUG-CC-PVTZ
  Basis Set: (AUG-CC-PVTZ AUX)
    Blend: AUG-CC-PVTZ-JKFIT
	 Reference Energy          =    -886.3739098413103648 [Eh]
	 Singles Energy            =      -0.0000000000000000 [Eh]
	 Same-Spin Energy          =      -0.9018081208425484 [Eh]
	 Opposite-Spin Energy      =      -2.7158679154876086 [Eh]
	 Correlation Energy        =      -3.6176760363301570 [Eh]
	 Total Energy              =    -889.9915858776405457 [Eh]

	 ================> DF-SCS-MP2 Energies <==================
	-----------------------------------------------------------
	 SCS Same-Spin Scale       =       0.3333333333333333 [-]
	 SCS Opposite-Spin Scale   =       1.2000000000000000 [-]
	 SCS Same-Spin Energy      =      -0.3006027069475161 [Eh]
	 SCS Opposite-Spin Energy  =      -3.2590414985851304 [Eh]
	 SCS Correlation Energy    =      -3.5596442055326465 [Eh]
	 SCS Total Energy          =    -889.9335540468430281 [Eh]
	-----------------------------------------------------------

  Dipole Moment: [D]
     X:     2.6158      Y:     5.8026      Z:     1.9349     Total:     6.6526

*** Psi4 exiting successfully. Buy a developer a beer!
