                               Psi4 1.3.2 release

  ==> Input File <==

--------------------------------------------------------------------------
#psi4
#
memory 32 gb

molecule  {
0 1
  O       -1.2481010    -0.6526680     1.0325150
  O       -1.2449750     2.4828510    -0.6861630
  O       -3.2165300     1.5210990     0.7448870
  O       -2.3570290    -3.0668370     0.0949400
  O        1.3605300     2.2470340    -0.0765420
  N        0.8434040     0.0452230     0.2559430
  N        3.0572260     0.7205030    -0.2937270
  N        4.7164630    -0.8366550    -0.5722980
  C       -1.2894840     1.0784300    -0.5920770
  C       -2.7151710     0.6552070    -0.2573930
  C       -0.5254080     0.4815200     0.6000940
  C       -2.5292560    -0.7168860     0.3610560
  C       -2.5283440    -1.8503930    -0.6392900
  C        1.2197750    -1.2614080     0.3112740
  C        1.6920848     1.2570636    -0.0621582
  C        2.5111010    -1.6091400     0.0469950
  C        3.4119830    -0.5506530    -0.2589250
  H       -0.9376060     0.5914040    -1.5148910
  H       -3.3625820     0.6426650    -1.1464650
  H       -0.4402900     1.2218800     1.4039980
  H       -3.2819570    -0.9087340     1.1307830
  H       -1.7133080    -1.7003050    -1.3694640
  H       -3.4855610    -1.8340040    -1.1841350
  H       -0.2975250     2.7131790    -0.5250000
  H       -2.8475560     2.3997430     0.5086630
  H        0.4343110    -1.9634370     0.5690680
  H       -2.4338740    -3.7984320    -0.5432330
  H        2.8291120    -2.6453980     0.0739220
  H        5.1251800    -1.6708610    -0.1624140
  H        5.3198140    -0.0200540    -0.5682940
units angstrom
no_reorient  #important for SAPT in psi4, default
symmetry c1  #important for SAPT in psi4, default
}

set PROPERTIES_ORIGIN ["COM"]
properties('MP2/aug-cc-pvtz', properties = ['dipole'])
--------------------------------------------------------------------------

    Molecular point group: c1
  Charge       = 0
  Multiplicity = 1
  Basis Set: AUG-CC-PVTZ
    Blend: AUG-CC-PVTZ
  Basis Set: (AUG-CC-PVTZ AUX)
    Blend: AUG-CC-PVTZ-JKFIT

    Orbital Energies [Eh]
    ---------------------

    Doubly Occupied:

       1A    -20.581248     2A    -20.579683     3A    -20.577183
       4A    -20.573392     5A    -20.561169     6A    -15.611546
       7A    -15.582817     8A    -15.532483     9A    -11.393797
      10A    -11.338191    11A    -11.335498    12A    -11.312935
      13A    -11.299907    14A    -11.299190    15A    -11.295612
      16A    -11.294880    17A    -11.227481    18A     -1.560748
      19A     -1.422364    20A     -1.386863    21A     -1.371391
      22A     -1.355079    23A     -1.290781    24A     -1.251180
      25A     -1.143431    26A     -1.067951    27A     -1.065907
      28A     -1.013047    29A     -0.927323    30A     -0.888277
      31A     -0.861472    32A     -0.824001    33A     -0.811243
      34A     -0.767311    35A     -0.758533    36A     -0.739128
      37A     -0.730405    38A     -0.703189    39A     -0.700867
      40A     -0.691301    41A     -0.680385    42A     -0.676018
      43A     -0.668245    44A     -0.647300    45A     -0.628875
      46A     -0.617221    47A     -0.603287    48A     -0.596821
      49A     -0.577906    50A     -0.569988    51A     -0.561554
      52A     -0.551314    53A     -0.546312    54A     -0.535572
      55A     -0.504225    56A     -0.500403    57A     -0.477233
      58A     -0.476050    59A     -0.458919    60A     -0.457833
      61A     -0.438515    62A     -0.388418    63A     -0.377990
      64A     -0.332095

  @DF-RHF Final Energy:  -886.29493816794138

   => Energetics <=

    Nuclear Repulsion Energy =           1323.7092169641805413
    One-Electron Energy =               -3844.8057502736537572
    Two-Electron Energy =                1634.8015951415318341
    Total Energy =                       -886.2949381679413818
  Basis Set: (AUG-CC-PVTZ AUX)
    Blend: AUG-CC-PVTZ-RI
    Molecular point group: c1

    Geometry (in Angstrom), charge = 0, multiplicity = 1:

       Center              X                  Y                   Z               Mass
    ------------   -----------------  -----------------  -----------------  -----------------
         O           -1.244965880521    -0.662029070665     1.032651018873    15.994914619570
         O           -1.241839880521     2.473489929335    -0.686026981127    15.994914619570
         O           -3.213394880521     1.511737929335     0.745023018873    15.994914619570
         O           -2.353893880521    -3.076198070665     0.095076018873    15.994914619570
         O            1.363665119479     2.237672929335    -0.076405981127    15.994914619570
         N            0.846539119479     0.035861929335     0.256079018873    14.003074004430
         N            3.060361119479     0.711141929335    -0.293590981127    14.003074004430
         N            4.719598119479    -0.846016070665    -0.572161981127    14.003074004430
         C           -1.286348880521     1.069068929335    -0.591940981127    12.000000000000
         C           -2.712035880521     0.645845929335    -0.257256981127    12.000000000000
         C           -0.522272880521     0.472158929335     0.600230018873    12.000000000000
         C           -2.526120880521    -0.726247070665     0.361192018873    12.000000000000
         C           -2.525208880521    -1.859754070665    -0.639153981127    12.000000000000
         C            1.222910119479    -1.270769070665     0.311410018873    12.000000000000
         C            1.695219919479     1.247702529335    -0.062022181127    12.000000000000
         C            2.514236119479    -1.618501070665     0.047131018873    12.000000000000
         C            3.415118119479    -0.560014070665    -0.258788981127    12.000000000000
         H           -0.934470880521     0.582042929335    -1.514754981127     1.007825032230
         H           -3.359446880521     0.633303929335    -1.146328981127     1.007825032230
         H           -0.437154880521     1.212518929335     1.404134018873     1.007825032230
         H           -3.278821880521    -0.918095070665     1.130919018873     1.007825032230
         H           -1.710172880521    -1.709666070665    -1.369327981127     1.007825032230
         H           -3.482425880521    -1.843365070665    -1.183998981127     1.007825032230
         H           -0.294389880521     2.703817929335    -0.524863981127     1.007825032230
         H           -2.844420880521     2.390381929335     0.508799018873     1.007825032230
         H            0.437446119479    -1.972798070665     0.569204018873     1.007825032230
         H           -2.430738880521    -3.807793070665    -0.543096981127     1.007825032230
         H            2.832247119479    -2.654759070665     0.074058018873     1.007825032230
         H            5.128315119479    -1.680222070665    -0.162277981127     1.007825032230
         H            5.322949119479    -0.029415070665    -0.568157981127     1.007825032230

  Basis Set: AUG-CC-PVTZ
    Blend: AUG-CC-PVTZ
  Basis Set: (AUG-CC-PVTZ AUX)
    Blend: AUG-CC-PVTZ-JKFIT
	 Reference Energy          =    -886.2949381679413818 [Eh]
	 Singles Energy            =      -0.0000000000000000 [Eh]
	 Same-Spin Energy          =      -0.8986271193757118 [Eh]
	 Opposite-Spin Energy      =      -2.7120108150685880 [Eh]
	 Correlation Energy        =      -3.6106379344442998 [Eh]
	 Total Energy              =    -889.9055761023856803 [Eh]

	 ================> DF-SCS-MP2 Energies <==================
	-----------------------------------------------------------
	 SCS Same-Spin Scale       =       0.3333333333333333 [-]
	 SCS Opposite-Spin Scale   =       1.2000000000000000 [-]
	 SCS Same-Spin Energy      =      -0.2995423731252372 [Eh]
	 SCS Opposite-Spin Energy  =      -3.2544129780823057 [Eh]
	 SCS Correlation Energy    =      -3.5539553512075428 [Eh]
	 SCS Total Energy          =    -889.8488935191488736 [Eh]
	-----------------------------------------------------------

  Dipole Moment: [D]
     X:     0.7416      Y:    -3.7528      Z:    -1.8695     Total:     4.2578

*** Psi4 exiting successfully. Buy a developer a beer!
