                               Psi4 1.3.2 release

  ==> Input File <==

--------------------------------------------------------------------------
#psi4
#
memory 32 gb

molecule  {
0 1
  O       -1.2481010    -0.6526680     1.0325150
  O       -1.2449750     2.4828510    -0.6861630
  O       -3.2165300     1.5210990     0.7448870
  O       -2.3570290    -3.0668370     0.0949400
  O        1.3605300     2.2470340    -0.0765420
  N        0.8434040     0.0452230     0.2559430
  N        3.0572260     0.7205030    -0.2937270
  N        4.7164630    -0.8366550    -0.5722980
  C       -1.2894840     1.0784300    -0.5920770
  C       -2.7151710     0.6552070    -0.2573930
  C       -0.5254080     0.4815200     0.6000940
  C       -2.5292560    -0.7168860     0.3610560
  C       -2.5283440    -1.8503930    -0.6392900
  C        1.2197750    -1.2614080     0.3112740
  C        1.7555940     1.0674350    -0.0594030
  C        2.5111010    -1.6091400     0.0469950
  C        3.4119830    -0.5506530    -0.2589250
  H       -0.9376060     0.5914040    -1.5148910
  H       -3.3625820     0.6426650    -1.1464650
  H       -0.4402900     1.2218800     1.4039980
  H       -3.2819570    -0.9087340     1.1307830
  H       -1.7870990    -1.7138935    -1.3033562
  H       -3.4855610    -1.8340040    -1.1841350
  H       -0.2975250     2.7131790    -0.5250000
  H       -2.8475560     2.3997430     0.5086630
  H        0.4343110    -1.9634370     0.5690680
  H       -2.4338740    -3.7984320    -0.5432330
  H        2.8291120    -2.6453980     0.0739220
  H        5.1251800    -1.6708610    -0.1624140
  H        5.3198140    -0.0200540    -0.5682940
units angstrom
no_reorient  #important for SAPT in psi4, default
symmetry c1  #important for SAPT in psi4, default
}

set PROPERTIES_ORIGIN ["COM"]
properties('MP2/aug-cc-pvtz', properties = ['dipole'])
--------------------------------------------------------------------------

    Molecular point group: c1
  Charge       = 0
  Multiplicity = 1
  Basis Set: AUG-CC-PVTZ
    Blend: AUG-CC-PVTZ
  Basis Set: (AUG-CC-PVTZ AUX)
    Blend: AUG-CC-PVTZ-JKFIT

    Orbital Energies [Eh]
    ---------------------

    Doubly Occupied:

       1A    -20.581628     2A    -20.580256     3A    -20.557711
       4A    -20.557529     5A    -20.522185     6A    -15.637143
       7A    -15.600015     8A    -15.553542     9A    -11.388458
      10A    -11.358051    11A    -11.341724    12A    -11.328755
      13A    -11.297051    14A    -11.295882    15A    -11.292875
      16A    -11.288388    17A    -11.248787    18A     -1.429453
      19A     -1.396512    20A     -1.379963    21A     -1.371983
      22A     -1.346375    23A     -1.306253    24A     -1.273986
      25A     -1.182433    26A     -1.082232    27A     -1.069389
      28A     -1.022439    29A     -0.940347    30A     -0.910890
      31A     -0.879266    32A     -0.833234    33A     -0.814180
      34A     -0.767874    35A     -0.753171    36A     -0.737434
      37A     -0.721447    38A     -0.702230    39A     -0.698181
      40A     -0.687381    41A     -0.676247    42A     -0.657178
      43A     -0.651873    44A     -0.638662    45A     -0.621856
      46A     -0.614273    47A     -0.607193    48A     -0.593980
      49A     -0.575723    50A     -0.570265    51A     -0.554396
      52A     -0.545727    53A     -0.537682    54A     -0.532711
      55A     -0.498443    56A     -0.480269    57A     -0.474360
      58A     -0.462418    59A     -0.460462    60A     -0.453705
      61A     -0.440718    62A     -0.433233    63A     -0.395376
      64A     -0.350211

  @DF-RHF Final Energy:  -886.36886514850664

   => Energetics <=

    Nuclear Repulsion Energy =           1324.1345993146587716
    One-Electron Energy =               -3845.8797404493370777
    Two-Electron Energy =                1635.3762759861717768
    Total Energy =                       -886.3688651485065293
  Basis Set: (AUG-CC-PVTZ AUX)
    Blend: AUG-CC-PVTZ-RI
    Molecular point group: c1

    Geometry (in Angstrom), charge = 0, multiplicity = 1:

       Center              X                  Y                   Z               Mass
    ------------   -----------------  -----------------  -----------------  -----------------
         O           -1.247795098738    -0.652611652361     1.032240926591    15.994914619570
         O           -1.244669098738     2.482907347639    -0.686437073409    15.994914619570
         O           -3.216224098738     1.521155347639     0.744612926591    15.994914619570
         O           -2.356723098738    -3.066780652361     0.094665926591    15.994914619570
         O            1.360835901262     2.247090347639    -0.076816073409    15.994914619570
         N            0.843709901262     0.045279347639     0.255668926591    14.003074004430
         N            3.057531901262     0.720559347639    -0.294001073409    14.003074004430
         N            4.716768901262    -0.836598652361    -0.572572073409    14.003074004430
         C           -1.289178098738     1.078486347639    -0.592351073409    12.000000000000
         C           -2.714865098738     0.655263347639    -0.257667073409    12.000000000000
         C           -0.525102098738     0.481576347639     0.599819926591    12.000000000000
         C           -2.528950098738    -0.716829652361     0.360781926591    12.000000000000
         C           -2.528038098738    -1.850336652361    -0.639564073409    12.000000000000
         C            1.220080901262    -1.261351652361     0.310999926591    12.000000000000
         C            1.755899901262     1.067491347639    -0.059677073409    12.000000000000
         C            2.511406901262    -1.609083652361     0.046720926591    12.000000000000
         C            3.412288901262    -0.550596652361    -0.259199073409    12.000000000000
         H           -0.937300098738     0.591460347639    -1.515165073409     1.007825032230
         H           -3.362276098738     0.642721347639    -1.146739073409     1.007825032230
         H           -0.439984098738     1.221936347639     1.403723926591     1.007825032230
         H           -3.281651098738    -0.908677652361     1.130508926591     1.007825032230
         H           -1.786793098738    -1.713837152361    -1.303630273409     1.007825032230
         H           -3.485255098738    -1.833947652361    -1.184409073409     1.007825032230
         H           -0.297219098738     2.713235347639    -0.525274073409     1.007825032230
         H           -2.847250098738     2.399799347639     0.508388926591     1.007825032230
         H            0.434616901262    -1.963380652361     0.568793926591     1.007825032230
         H           -2.433568098738    -3.798375652361    -0.543507073409     1.007825032230
         H            2.829417901262    -2.645341652361     0.073647926591     1.007825032230
         H            5.125485901262    -1.670804652361    -0.162688073409     1.007825032230
         H            5.320119901262    -0.019997652361    -0.568568073409     1.007825032230

  Basis Set: AUG-CC-PVTZ
    Blend: AUG-CC-PVTZ
  Basis Set: (AUG-CC-PVTZ AUX)
    Blend: AUG-CC-PVTZ-JKFIT
	 Reference Energy          =    -886.3688651485066430 [Eh]
	 Singles Energy            =      -0.0000000000000000 [Eh]
	 Same-Spin Energy          =      -0.9010979232778640 [Eh]
	 Opposite-Spin Energy      =      -2.7142711925065717 [Eh]
	 Correlation Energy        =      -3.6153691157844356 [Eh]
	 Total Energy              =    -889.9842342642911035 [Eh]

	 ================> DF-SCS-MP2 Energies <==================
	-----------------------------------------------------------
	 SCS Same-Spin Scale       =       0.3333333333333333 [-]
	 SCS Opposite-Spin Scale   =       1.2000000000000000 [-]
	 SCS Same-Spin Energy      =      -0.3003659744259546 [Eh]
	 SCS Opposite-Spin Energy  =      -3.2571254310078861 [Eh]
	 SCS Correlation Energy    =      -3.5574914054338409 [Eh]
	 SCS Total Energy          =    -889.9263565539405363 [Eh]
	-----------------------------------------------------------

  Dipole Moment: [D]
     X:     1.7511      Y:    -5.9158      Z:    -1.8690     Total:     6.4464

*** Psi4 exiting successfully. Buy a developer a beer!
