                               Psi4 1.3.2 release

  ==> Input File <==

--------------------------------------------------------------------------
#psi4
#
memory 32 gb

molecule  {
0 1
  O       -1.2481010    -0.6526680     1.0325150
  O       -1.2449750     2.4828510    -0.6861630
  O       -3.2165300     1.5210990     0.7448870
  O       -2.3570290    -3.0668370     0.0949400
  O        1.3605300     2.2470340    -0.0765420
  N        0.8434040     0.0452230     0.2559430
  N        3.0572260     0.7205030    -0.2937270
  N        4.7164630    -0.8366550    -0.5722980
  C       -1.2894840     1.0784300    -0.5920770
  C       -2.7151710     0.6552070    -0.2573930
  C       -0.5254080     0.4815200     0.6000940
  C       -2.5292560    -0.7168860     0.3610560
  C       -2.5283440    -1.8503930    -0.6392900
  C        1.2474314    -1.3574215     0.3153398
  C        1.7555940     1.0674350    -0.0594030
  C        2.5111010    -1.6091400     0.0469950
  C        3.4119830    -0.5506530    -0.2589250
  H       -0.9376060     0.5914040    -1.5148910
  H       -3.3625820     0.6426650    -1.1464650
  H       -0.4402900     1.2218800     1.4039980
  H       -3.2819570    -0.9087340     1.1307830
  H       -1.7133080    -1.7003050    -1.3694640
  H       -3.4855610    -1.8340040    -1.1841350
  H       -0.2975250     2.7131790    -0.5250000
  H       -2.8475560     2.3997430     0.5086630
  H        0.4343110    -1.9634370     0.5690680
  H       -2.4338740    -3.7984320    -0.5432330
  H        2.8291120    -2.6453980     0.0739220
  H        5.1251800    -1.6708610    -0.1624140
  H        5.3198140    -0.0200540    -0.5682940
units angstrom
no_reorient  #important for SAPT in psi4, default
symmetry c1  #important for SAPT in psi4, default
}

set PROPERTIES_ORIGIN ["COM"]
properties('MP2/aug-cc-pvtz', properties = ['dipole'])
--------------------------------------------------------------------------

    Molecular point group: c1
  Charge       = 0
  Multiplicity = 1
  Basis Set: AUG-CC-PVTZ
    Blend: AUG-CC-PVTZ
  Basis Set: (AUG-CC-PVTZ AUX)
    Blend: AUG-CC-PVTZ-JKFIT

    Orbital Energies [Eh]
    ---------------------

    Doubly Occupied:

       1A    -20.580976     2A    -20.577670     3A    -20.554837
       4A    -20.553656     5A    -20.519025     6A    -15.625432
       7A    -15.606102     8A    -15.556528     9A    -11.385111
      10A    -11.365226    11A    -11.335023    12A    -11.327108
      13A    -11.299260    14A    -11.293990    15A    -11.291729
      16A    -11.289580    17A    -11.254766    18A     -1.423041
      19A     -1.391243    20A     -1.377080    21A     -1.370293
      22A     -1.343025    23A     -1.304318    24A     -1.255205
      25A     -1.182308    26A     -1.095150    27A     -1.064446
      28A     -1.016713    29A     -0.931829    30A     -0.906044
      31A     -0.874688    32A     -0.828387    33A     -0.809527
      34A     -0.766405    35A     -0.745580    36A     -0.730380
      37A     -0.723652    38A     -0.701339    39A     -0.695487
      40A     -0.689121    41A     -0.669691    42A     -0.650921
      43A     -0.648881    44A     -0.637813    45A     -0.632845
      46A     -0.613866    47A     -0.606646    48A     -0.581346
      49A     -0.574628    50A     -0.567994    51A     -0.551704
      52A     -0.542891    53A     -0.534911    54A     -0.529321
      55A     -0.489921    56A     -0.475200    57A     -0.471022
      58A     -0.459124    59A     -0.458156    60A     -0.449338
      61A     -0.440689    62A     -0.432052    63A     -0.394219
      64A     -0.360667

  @DF-RHF Final Energy:  -886.36184316262086

   => Energetics <=

    Nuclear Repulsion Energy =           1321.7241661720465800
    One-Electron Energy =               -3841.3417655500024921
    Two-Electron Energy =                1633.2557562153351682
    Total Energy =                       -886.3618431626209713
  Basis Set: (AUG-CC-PVTZ AUX)
    Blend: AUG-CC-PVTZ-RI
    Molecular point group: c1

    Geometry (in Angstrom), charge = 0, multiplicity = 1:

       Center              X                  Y                   Z               Mass
    ------------   -----------------  -----------------  -----------------  -----------------
         O           -1.249466301597    -0.647928250540     1.032314297871    15.994914619570
         O           -1.246340301597     2.487590749460    -0.686363702129    15.994914619570
         O           -3.217895301597     1.525838749460     0.744686297871    15.994914619570
         O           -2.358394301597    -3.062097250540     0.094739297871    15.994914619570
         O            1.359164698403     2.251773749460    -0.076742702129    15.994914619570
         N            0.842038698403     0.049962749460     0.255742297871    14.003074004430
         N            3.055860698403     0.725242749460    -0.293927702129    14.003074004430
         N            4.715097698403    -0.831915250540    -0.572498702129    14.003074004430
         C           -1.290849301597     1.083169749460    -0.592277702129    12.000000000000
         C           -2.716536301597     0.659946749460    -0.257593702129    12.000000000000
         C           -0.526773301597     0.486259749460     0.599893297871    12.000000000000
         C           -2.530621301597    -0.712146250540     0.360855297871    12.000000000000
         C           -2.529709301597    -1.845653250540    -0.639490702129    12.000000000000
         C            1.246066098403    -1.352681750540     0.315139097871    12.000000000000
         C            1.754228698403     1.072174749460    -0.059603702129    12.000000000000
         C            2.509735698403    -1.604400250540     0.046794297871    12.000000000000
         C            3.410617698403    -0.545913250540    -0.259125702129    12.000000000000
         H           -0.938971301597     0.596143749460    -1.515091702129     1.007825032230
         H           -3.363947301597     0.647404749460    -1.146665702129     1.007825032230
         H           -0.441655301597     1.226619749460     1.403797297871     1.007825032230
         H           -3.283322301597    -0.903994250540     1.130582297871     1.007825032230
         H           -1.714673301597    -1.695565250540    -1.369664702129     1.007825032230
         H           -3.486926301597    -1.829264250540    -1.184335702129     1.007825032230
         H           -0.298890301597     2.717918749460    -0.525200702129     1.007825032230
         H           -2.848921301597     2.404482749460     0.508462297871     1.007825032230
         H            0.432945698403    -1.958697250540     0.568867297871     1.007825032230
         H           -2.435239301597    -3.793692250540    -0.543433702129     1.007825032230
         H            2.827746698403    -2.640658250540     0.073721297871     1.007825032230
         H            5.123814698403    -1.666121250540    -0.162614702129     1.007825032230
         H            5.318448698403    -0.015314250540    -0.568494702129     1.007825032230

  Basis Set: AUG-CC-PVTZ
    Blend: AUG-CC-PVTZ
  Basis Set: (AUG-CC-PVTZ AUX)
    Blend: AUG-CC-PVTZ-JKFIT
	 Reference Energy          =    -886.3618431626208576 [Eh]
	 Singles Energy            =      -0.0000000000000000 [Eh]
	 Same-Spin Energy          =      -0.9006283844161620 [Eh]
	 Opposite-Spin Energy      =      -2.7159318288278027 [Eh]
	 Correlation Energy        =      -3.6165602132439645 [Eh]
	 Total Energy              =    -889.9784033758647865 [Eh]

	 ================> DF-SCS-MP2 Energies <==================
	-----------------------------------------------------------
	 SCS Same-Spin Scale       =       0.3333333333333333 [-]
	 SCS Opposite-Spin Scale   =       1.2000000000000000 [-]
	 SCS Same-Spin Energy      =      -0.3002094614720540 [Eh]
	 SCS Opposite-Spin Energy  =      -3.2591181945933632 [Eh]
	 SCS Correlation Energy    =      -3.5593276560654172 [Eh]
	 SCS Total Energy          =    -889.9211708186862779 [Eh]
	-----------------------------------------------------------

  Dipole Moment: [D]
     X:     2.1625      Y:    -6.1919      Z:    -1.8686     Total:     6.8196

*** Psi4 exiting successfully. Buy a developer a beer!
