                               Psi4 1.3.2 release

  ==> Input File <==

--------------------------------------------------------------------------
#psi4
#
memory 32 gb

molecule  {
0 1
  O       -1.2481010    -0.6526680     1.0325150
  O       -1.2449750     2.4828510    -0.6861630
  O       -3.2165300     1.5210990     0.7448870
  O       -2.3570290    -3.0668370     0.0949400
  O        1.3605300     2.2470340    -0.0765420
  N        0.8434040     0.0452230     0.2559430
  N        3.0572260     0.7205030    -0.2937270
  N        4.7164630    -0.8366550    -0.5722980
  C       -1.2894840     1.0784300    -0.5920770
  C       -2.7151710     0.6552070    -0.2573930
  C       -0.5254080     0.4815200     0.6000940
  C       -2.5292560    -0.7168860     0.3610560
  C       -2.5283440    -1.8503930    -0.6392900
  C        1.2197750    -1.2614080     0.3112740
  C        1.7555940     1.0674350    -0.0594030
  C        2.5111010    -1.6091400     0.0469950
  C        3.4108008    -0.6097513    -0.2181389
  H       -0.9376060     0.5914040    -1.5148910
  H       -3.3625820     0.6426650    -1.1464650
  H       -0.4402900     1.2218800     1.4039980
  H       -3.2819570    -0.9087340     1.1307830
  H       -1.7133080    -1.7003050    -1.3694640
  H       -3.4855610    -1.8340040    -1.1841350
  H       -0.2975250     2.7131790    -0.5250000
  H       -2.8475560     2.3997430     0.5086630
  H        0.4343110    -1.9634370     0.5690680
  H       -2.4338740    -3.7984320    -0.5432330
  H        2.8291120    -2.6453980     0.0739220
  H        5.0787834    -1.6799613    -0.1381177
  H        5.3198140    -0.0200540    -0.5682940
units angstrom
no_reorient  #important for SAPT in psi4, default
symmetry c1  #important for SAPT in psi4, default
}

set PROPERTIES_ORIGIN ["COM"]
properties('MP2/aug-cc-pvtz', properties = ['dipole'])
--------------------------------------------------------------------------

    Molecular point group: c1
  Charge       = 0
  Multiplicity = 1
  Basis Set: AUG-CC-PVTZ
    Blend: AUG-CC-PVTZ
  Basis Set: (AUG-CC-PVTZ AUX)
    Blend: AUG-CC-PVTZ-JKFIT

    Orbital Energies [Eh]
    ---------------------

    Doubly Occupied:

       1A    -20.583378     2A    -20.582886     3A    -20.558181
       4A    -20.556787     5A    -20.516365     6A    -15.640939
       7A    -15.601679     8A    -15.551270     9A    -11.382021
      10A    -11.356941    11A    -11.342676    12A    -11.336969
      13A    -11.302200    14A    -11.297835    15A    -11.297252
      16A    -11.293563    17A    -11.247550    18A     -1.430027
      19A     -1.392973    20A     -1.380427    21A     -1.373641
      22A     -1.346156    23A     -1.302708    24A     -1.272753
      25A     -1.169987    26A     -1.090259    27A     -1.068502
      28A     -1.024353    29A     -0.939171    30A     -0.913676
      31A     -0.870116    32A     -0.832316    33A     -0.812825
      34A     -0.769087    35A     -0.753998    36A     -0.736666
      37A     -0.719253    38A     -0.704228    39A     -0.699211
      40A     -0.683457    41A     -0.673671    42A     -0.652828
      43A     -0.650709    44A     -0.638030    45A     -0.626904
      46A     -0.614314    47A     -0.608177    48A     -0.589156
      49A     -0.576426    50A     -0.570154    51A     -0.554278
      52A     -0.545385    53A     -0.537838    54A     -0.532533
      55A     -0.497650    56A     -0.478345    57A     -0.474820
      58A     -0.462764    59A     -0.455586    60A     -0.453063
      61A     -0.441697    62A     -0.430778    63A     -0.388703
      64A     -0.352670

  @DF-RHF Final Energy:  -886.36423167056262

   => Energetics <=

    Nuclear Repulsion Energy =           1323.5082583134831111
    One-Electron Energy =               -3844.6634572039206432
    Two-Electron Energy =                1634.7909672198748012
    Total Energy =                       -886.3642316705627309
  Basis Set: (AUG-CC-PVTZ AUX)
    Blend: AUG-CC-PVTZ-RI
    Molecular point group: c1

    Geometry (in Angstrom), charge = 0, multiplicity = 1:

       Center              X                  Y                   Z               Mass
    ------------   -----------------  -----------------  -----------------  -----------------
         O           -1.247850315363    -0.649712852473     1.030400855975    15.994914619570
         O           -1.244724315363     2.485806147527    -0.688277144025    15.994914619570
         O           -3.216279315363     1.524054147527     0.742772855975    15.994914619570
         O           -2.356778315363    -3.063881852473     0.092825855975    15.994914619570
         O            1.360780684637     2.249989147527    -0.078656144025    15.994914619570
         N            0.843654684637     0.048178147527     0.253828855975    14.003074004430
         N            3.057476684637     0.723458147527    -0.295841144025    14.003074004430
         N            4.716713684637    -0.833699852473    -0.574412144025    14.003074004430
         C           -1.289233315363     1.081385147527    -0.594191144025    12.000000000000
         C           -2.714920315363     0.658162147527    -0.259507144025    12.000000000000
         C           -0.525157315363     0.484475147527     0.597979855975    12.000000000000
         C           -2.529005315363    -0.713930852473     0.358941855975    12.000000000000
         C           -2.528093315363    -1.847437852473    -0.641404144025    12.000000000000
         C            1.220025684637    -1.258452852473     0.309159855975    12.000000000000
         C            1.755844684637     1.070390147527    -0.061517144025    12.000000000000
         C            2.511351684637    -1.606184852473     0.044880855975    12.000000000000
         C            3.411051484637    -0.606796152473    -0.220253044025    12.000000000000
         H           -0.937355315363     0.594359147527    -1.517005144025     1.007825032230
         H           -3.362331315363     0.645620147527    -1.148579144025     1.007825032230
         H           -0.440039315363     1.224835147527     1.401883855975     1.007825032230
         H           -3.281706315363    -0.905778852473     1.128668855975     1.007825032230
         H           -1.713057315363    -1.697349852473    -1.371578144025     1.007825032230
         H           -3.485310315363    -1.831048852473    -1.186249144025     1.007825032230
         H           -0.297274315363     2.716134147527    -0.527114144025     1.007825032230
         H           -2.847305315363     2.402698147527     0.506548855975     1.007825032230
         H            0.434561684637    -1.960481852473     0.566953855975     1.007825032230
         H           -2.433623315363    -3.795476852473    -0.545347144025     1.007825032230
         H            2.829362684637    -2.642442852473     0.071807855975     1.007825032230
         H            5.079034084637    -1.677006152473    -0.140231844025     1.007825032230
         H            5.320064684637    -0.017098852473    -0.570408144025     1.007825032230

  Basis Set: AUG-CC-PVTZ
    Blend: AUG-CC-PVTZ
  Basis Set: (AUG-CC-PVTZ AUX)
    Blend: AUG-CC-PVTZ-JKFIT
	 Reference Energy          =    -886.3642316705626172 [Eh]
	 Singles Energy            =      -0.0000000000000000 [Eh]
	 Same-Spin Energy          =      -0.9025275056858476 [Eh]
	 Opposite-Spin Energy      =      -2.7167377694096846 [Eh]
	 Correlation Energy        =      -3.6192652750955321 [Eh]
	 Total Energy              =    -889.9834969456582030 [Eh]

	 ================> DF-SCS-MP2 Energies <==================
	-----------------------------------------------------------
	 SCS Same-Spin Scale       =       0.3333333333333333 [-]
	 SCS Opposite-Spin Scale   =       1.2000000000000000 [-]
	 SCS Same-Spin Energy      =      -0.3008425018952825 [Eh]
	 SCS Opposite-Spin Energy  =      -3.2600853232916216 [Eh]
	 SCS Correlation Energy    =      -3.5609278251869041 [Eh]
	 SCS Total Energy          =    -889.9251594957495399 [Eh]
	-----------------------------------------------------------

  Dipole Moment: [D]
     X:     1.5640      Y:    -6.1756      Z:    -1.7431     Total:     6.6047

*** Psi4 exiting successfully. Buy a developer a beer!
