                               Psi4 1.4a3.dev225

  ==> Input File <==

--------------------------------------------------------------------------
#psi4
#
memory 32 gb

molecule  {
0 1
  O       -1.3191770     0.6538360    -1.0992360
  O       -1.5735610    -2.4640850     0.5135810
  O       -3.5606630    -1.0699430    -0.4600060
  O       -1.4399290     3.1254620     0.1265180
  O        1.1065530    -2.3833650     0.0076020
  N        0.7686360    -0.1579440    -0.3706350
  N        2.9363770    -0.9938720     0.1460080
  N        4.7058880     0.4431110     0.3611260
  C       -1.3768610    -1.0680440     0.5552780
  C       -2.7379840    -0.3746360     0.4578480
  C       -0.6377490    -0.5042940    -0.6790150
  C       -2.3707440     0.9655450    -0.1585060
  C       -1.8992030     1.9895750     0.8571380
  C        1.2309690     1.1190800    -0.4442230
  C        1.6104480    -1.2470590    -0.0585760
  C        2.5474650     1.3753690    -0.1998620
  C        3.3802090     0.2523040     0.0808410
  H       -0.8441360    -0.7686950     1.4698480
  H       -3.2478930    -0.2734845     1.4846317
  H       -0.6227070    -1.2428120    -1.4883720
  H       -3.1941750     1.3785730    -0.7472070
  H       -1.0952130     1.5703990     1.4802000
  H       -2.7410530     2.2466610     1.5166010
  H       -0.6710550    -2.8260740     0.3542250
  H       -3.3063470    -2.0105220    -0.3629290
  H        0.4929290     1.8778260    -0.6840360
  H       -1.2098800     3.8154810     0.7720340
  H        2.9334840     2.3875570    -0.2389120
  H        5.1589650     1.2712730    -0.0008400
  H        5.2635310    -0.4031270     0.3606700
units angstrom
no_reorient  #important for SAPT in psi4, default
symmetry c1  #important for SAPT in psi4, default
}

set PROPERTIES_ORIGIN ["COM"]
properties('MP2/aug-cc-pvtz', properties = ['dipole'])
--------------------------------------------------------------------------

    Molecular point group: c1
  Charge       = 0
  Multiplicity = 1
  Basis Set: AUG-CC-PVTZ
    Blend: AUG-CC-PVTZ
  Basis Set: (AUG-CC-PVTZ AUX)
    Blend: AUG-CC-PVTZ-JKFIT

    Orbital Energies [Eh]
    ---------------------

    Doubly Occupied:

       1A    -20.586611     2A    -20.581867     3A    -20.559524
       4A    -20.557604     5A    -20.519844     6A    -15.633147
       7A    -15.599748     8A    -15.551856     9A    -11.386093
      10A    -11.358164    11A    -11.339967    12A    -11.325237
      13A    -11.303407    14A    -11.299636    15A    -11.298320
      16A    -11.297388    17A    -11.246665    18A     -1.429604
      19A     -1.394236    20A     -1.383129    21A     -1.375750
      22A     -1.347040    23A     -1.303774    24A     -1.271474
      25A     -1.181299    26A     -1.079487    27A     -1.067161
      28A     -1.017397    29A     -0.935934    30A     -0.906794
      31A     -0.876617    32A     -0.830123    33A     -0.809070
      34A     -0.766552    35A     -0.749312    36A     -0.735312
      37A     -0.721084    38A     -0.708007    39A     -0.703700
      40A     -0.685182    41A     -0.673741    42A     -0.653325
      43A     -0.649074    44A     -0.632243    45A     -0.620256
      46A     -0.614948    47A     -0.607904    48A     -0.592819
      49A     -0.575562    50A     -0.565229    51A     -0.555867
      52A     -0.548294    53A     -0.536963    54A     -0.531131
      55A     -0.495853    56A     -0.480747    57A     -0.473836
      58A     -0.463263    59A     -0.457740    60A     -0.452901
      61A     -0.440810    62A     -0.430391    63A     -0.392323
      64A     -0.348345

  @DF-RHF Final Energy:  -886.37179182441832

   => Energetics <=

    Nuclear Repulsion Energy =           1334.2612673050525700
    One-Electron Energy =               -3866.2327532758199595
    Two-Electron Energy =                1645.5996941463490657
    Total Energy =                       -886.3717918244183238
  Basis Set: (AUG-CC-PVTZ AUX)
    Blend: AUG-CC-PVTZ-RI
    Molecular point group: c1

    Geometry (in Angstrom), charge = 0, multiplicity = 1:

       Center              X                  Y                   Z               Mass
    ------------   -----------------  -----------------  -----------------  -----------------
         O           -1.331828809145     0.682429247286    -1.083640735381    15.994914619570
         O           -1.586212809145    -2.435491752714     0.529176264619    15.994914619570
         O           -3.573314809145    -1.041349752714    -0.444410735381    15.994914619570
         O           -1.452580809145     3.154055247286     0.142113264619    15.994914619570
         O            1.093901190855    -2.354771752714     0.023197264619    15.994914619570
         N            0.755984190855    -0.129350752714    -0.355039735381    14.003074004430
         N            2.923725190855    -0.965278752714     0.161603264619    14.003074004430
         N            4.693236190855     0.471704247286     0.376721264619    14.003074004430
         C           -1.389512809145    -1.039450752714     0.570873264619    12.000000000000
         C           -2.750635809145    -0.346042752714     0.473443264619    12.000000000000
         C           -0.650400809145    -0.475700752714    -0.663419735381    12.000000000000
         C           -2.383395809145     0.994138247286    -0.142910735381    12.000000000000
         C           -1.911854809145     2.018168247286     0.872733264619    12.000000000000
         C            1.218317190855     1.147673247286    -0.428627735381    12.000000000000
         C            1.597796190855    -1.218465752714    -0.042980735381    12.000000000000
         C            2.534813190855     1.403962247286    -0.184266735381    12.000000000000
         C            3.367557190855     0.280897247286     0.096436264619    12.000000000000
         H           -0.856787809145    -0.740101752714     1.485443264619     1.007825032230
         H           -3.260544809145    -0.244891252714     1.500226964619     1.007825032230
         H           -0.635358809145    -1.214218752714    -1.472776735381     1.007825032230
         H           -3.206826809145     1.407166247286    -0.731611735381     1.007825032230
         H           -1.107864809145     1.598992247286     1.495795264619     1.007825032230
         H           -2.753704809145     2.275254247286     1.532196264619     1.007825032230
         H           -0.683706809145    -2.797480752714     0.369820264619     1.007825032230
         H           -3.318998809145    -1.981928752714    -0.347333735381     1.007825032230
         H            0.480277190855     1.906419247286    -0.668440735381     1.007825032230
         H           -1.222531809145     3.844074247286     0.787629264619     1.007825032230
         H            2.920832190855     2.416150247286    -0.223316735381     1.007825032230
         H            5.146313190855     1.299866247286     0.014755264619     1.007825032230
         H            5.250879190855    -0.374533752714     0.376265264619     1.007825032230

  Basis Set: AUG-CC-PVTZ
    Blend: AUG-CC-PVTZ
  Basis Set: (AUG-CC-PVTZ AUX)
    Blend: AUG-CC-PVTZ-JKFIT
	 Reference Energy          =    -886.3717918244183238 [Eh]
	 Singles Energy            =      -0.0000000000000000 [Eh]
	 Same-Spin Energy          =      -0.9019191739352015 [Eh]
	 Opposite-Spin Energy      =      -2.7163870989420831 [Eh]
	 Correlation Energy        =      -3.6183062728772848 [Eh]
	 Total Energy              =    -889.9900980972955722 [Eh]

	 ================> DF-SCS-MP2 Energies <==================
	-----------------------------------------------------------
	 SCS Same-Spin Scale       =       0.3333333333333333 [-]
	 SCS Opposite-Spin Scale   =       1.2000000000000000 [-]
	 SCS Same-Spin Energy      =      -0.3006397246450672 [Eh]
	 SCS Opposite-Spin Energy  =      -3.2596645187304998 [Eh]
	 SCS Correlation Energy    =      -3.5603042433755667 [Eh]
	 SCS Total Energy          =    -889.9320960677938501 [Eh]
	-----------------------------------------------------------

  Dipole Moment: [D]
     X:     2.7503      Y:     5.7858      Z:     1.9098     Total:     6.6848

*** Psi4 exiting successfully. Buy a developer a beer!
