                               Psi4 1.3.2 release

  ==> Input File <==

--------------------------------------------------------------------------
#psi4
#
memory 32 gb

molecule  {
0 1
  O       -1.2441052    -0.6625400     1.0257163
  O       -1.2449750     2.4828510    -0.6861630
  O       -3.2165300     1.5210990     0.7448870
  O       -2.3570290    -3.0668370     0.0949400
  O        1.3605300     2.2470340    -0.0765420
  N        0.8434040     0.0452230     0.2559430
  N        3.0572260     0.7205030    -0.2937270
  N        4.7164630    -0.8366550    -0.5722980
  C       -1.2894840     1.0784300    -0.5920770
  C       -2.7151710     0.6552070    -0.2573930
  C       -0.5254080     0.4815200     0.6000940
  C       -2.5292560    -0.7168860     0.3610560
  C       -2.5159300    -1.8532990    -0.6358989
  C        1.2197750    -1.2614080     0.3112740
  C        1.7555940     1.0674350    -0.0594030
  C        2.5111010    -1.6091400     0.0469950
  C        3.4119830    -0.5506530    -0.2589250
  H       -0.9376060     0.5914040    -1.5148910
  H       -3.3625820     0.6426650    -1.1464650
  H       -0.4402900     1.2218800     1.4039980
  H       -3.2819570    -0.9087340     1.1307830
  H       -1.7133080    -1.7003050    -1.3694640
  H       -3.4855610    -1.8340040    -1.1841350
  H       -0.2975250     2.7131790    -0.5250000
  H       -2.8475560     2.3997430     0.5086630
  H        0.4343110    -1.9634370     0.5690680
  H       -2.4338740    -3.7984320    -0.5432330
  H        2.8291120    -2.6453980     0.0739220
  H        5.1251800    -1.6708610    -0.1624140
  H        5.3198140    -0.0200540    -0.5682940
units angstrom
no_reorient  #important for SAPT in psi4, default
symmetry c1  #important for SAPT in psi4, default
}

set PROPERTIES_ORIGIN ["COM"]
properties('MP2/aug-cc-pvtz', properties = ['dipole'])
--------------------------------------------------------------------------

    Molecular point group: c1
  Charge       = 0
  Multiplicity = 1
  Basis Set: AUG-CC-PVTZ
    Blend: AUG-CC-PVTZ
  Basis Set: (AUG-CC-PVTZ AUX)
    Blend: AUG-CC-PVTZ-JKFIT

    Orbital Energies [Eh]
    ---------------------

    Doubly Occupied:

       1A    -20.582509     2A    -20.581421     3A    -20.557993
       4A    -20.557411     5A    -20.522065     6A    -15.636941
       7A    -15.599850     8A    -15.553333     9A    -11.388270
      10A    -11.357846    11A    -11.342012    12A    -11.328389
      13A    -11.300998    14A    -11.296835    15A    -11.296677
      16A    -11.293158    17A    -11.248501    18A     -1.428814
      19A     -1.396394    20A     -1.380858    21A     -1.373833
      22A     -1.346482    23A     -1.306047    24A     -1.273759
      25A     -1.182254    26A     -1.081988    27A     -1.067232
      28A     -1.021422    29A     -0.934995    30A     -0.909331
      31A     -0.877265    32A     -0.832729    33A     -0.811401
      34A     -0.766792    35A     -0.752310    36A     -0.736665
      37A     -0.720435    38A     -0.703791    39A     -0.697793
      40A     -0.685771    41A     -0.672882    42A     -0.654624
      43A     -0.651148    44A     -0.638592    45A     -0.620501
      46A     -0.614260    47A     -0.606983    48A     -0.593886
      49A     -0.575972    50A     -0.570058    51A     -0.554405
      52A     -0.545345    53A     -0.537694    54A     -0.531716
      55A     -0.498092    56A     -0.476954    57A     -0.474172
      58A     -0.462262    59A     -0.460138    60A     -0.453176
      61A     -0.440275    62A     -0.433146    63A     -0.395234
      64A     -0.350027

  @DF-RHF Final Energy:  -886.37306686945806

   => Energetics <=

    Nuclear Repulsion Energy =           1323.8852963076358265
    One-Electron Energy =               -3845.4285082235087430
    Two-Electron Energy =                1635.1701450464152003
    Total Energy =                       -886.3730668694579435
  Basis Set: (AUG-CC-PVTZ AUX)
    Blend: AUG-CC-PVTZ-RI
    Molecular point group: c1

    Geometry (in Angstrom), charge = 0, multiplicity = 1:

       Center              X                  Y                   Z               Mass
    ------------   -----------------  -----------------  -----------------  -----------------
         O           -1.244980977088    -0.661746961150     1.025996255977    15.994914619570
         O           -1.245850777088     2.483644038850    -0.685883044023    15.994914619570
         O           -3.217405777088     1.521892038850     0.745166955977    15.994914619570
         O           -2.357904777088    -3.066043961150     0.095219955977    15.994914619570
         O            1.359654222912     2.247827038850    -0.076262044023    15.994914619570
         N            0.842528222912     0.046016038850     0.256222955977    14.003074004430
         N            3.056350222912     0.721296038850    -0.293447044023    14.003074004430
         N            4.715587222912    -0.835861961150    -0.572018044023    14.003074004430
         C           -1.290359777088     1.079223038850    -0.591797044023    12.000000000000
         C           -2.716046777088     0.656000038850    -0.257113044023    12.000000000000
         C           -0.526283777088     0.482313038850     0.600373955977    12.000000000000
         C           -2.530131777088    -0.716092961150     0.361335955977    12.000000000000
         C           -2.516805777088    -1.852505961150    -0.635618944023    12.000000000000
         C            1.218899222912    -1.260614961150     0.311553955977    12.000000000000
         C            1.754718222912     1.068228038850    -0.059123044023    12.000000000000
         C            2.510225222912    -1.608346961150     0.047274955977    12.000000000000
         C            3.411107222912    -0.549859961150    -0.258645044023    12.000000000000
         H           -0.938481777088     0.592197038850    -1.514611044023     1.007825032230
         H           -3.363457777088     0.643458038850    -1.146185044023     1.007825032230
         H           -0.441165777088     1.222673038850     1.404277955977     1.007825032230
         H           -3.282832777088    -0.907940961150     1.131062955977     1.007825032230
         H           -1.714183777088    -1.699511961150    -1.369184044023     1.007825032230
         H           -3.486436777088    -1.833210961150    -1.183855044023     1.007825032230
         H           -0.298400777088     2.713972038850    -0.524720044023     1.007825032230
         H           -2.848431777088     2.400536038850     0.508942955977     1.007825032230
         H            0.433435222912    -1.962643961150     0.569347955977     1.007825032230
         H           -2.434749777088    -3.797638961150    -0.542953044023     1.007825032230
         H            2.828236222912    -2.644604961150     0.074201955977     1.007825032230
         H            5.124304222912    -1.670067961150    -0.162134044023     1.007825032230
         H            5.318938222912    -0.019260961150    -0.568014044023     1.007825032230

  Basis Set: AUG-CC-PVTZ
    Blend: AUG-CC-PVTZ
  Basis Set: (AUG-CC-PVTZ AUX)
    Blend: AUG-CC-PVTZ-JKFIT
	 Reference Energy          =    -886.3730668694580572 [Eh]
	 Singles Energy            =      -0.0000000000000000 [Eh]
	 Same-Spin Energy          =      -0.9012840929870078 [Eh]
	 Opposite-Spin Energy      =      -2.7149947350684327 [Eh]
	 Correlation Energy        =      -3.6162788280554405 [Eh]
	 Total Energy              =    -889.9893456975134995 [Eh]

	 ================> DF-SCS-MP2 Energies <==================
	-----------------------------------------------------------
	 SCS Same-Spin Scale       =       0.3333333333333333 [-]
	 SCS Opposite-Spin Scale   =       1.2000000000000000 [-]
	 SCS Same-Spin Energy      =      -0.3004280309956693 [Eh]
	 SCS Opposite-Spin Energy  =      -3.2579936820821191 [Eh]
	 SCS Correlation Energy    =      -3.5584217130777884 [Eh]
	 SCS Total Energy          =    -889.9314885825358488 [Eh]
	-----------------------------------------------------------

  Dipole Moment: [D]
     X:     1.7262      Y:    -5.9421      Z:    -1.8032     Total:     6.4451

*** Psi4 exiting successfully. Buy a developer a beer!
