                               Psi4 1.3.2 release

  ==> Input File <==

--------------------------------------------------------------------------
#psi4
#
memory 32 gb

molecule  {
0 1
  O       -1.2481010    -0.6526680     1.0325150
  O       -1.2449750     2.4828510    -0.6861630
  O       -3.2165300     1.5210990     0.7448870
  O       -2.3570290    -3.0668370     0.0949400
  O        1.3605300     2.2470340    -0.0765420
  N        0.8434040     0.0452230     0.2559430
  N        3.0572260     0.7205030    -0.2937270
  N        4.7164630    -0.8366550    -0.5722980
  C       -1.2894840     1.0784300    -0.5920770
  C       -2.7151710     0.6552070    -0.2573930
  C       -0.5254080     0.4815200     0.6000940
  C       -2.5292560    -0.7168860     0.3610560
  C       -2.5283440    -1.8503930    -0.6392900
  C        1.1526110    -1.2780948     0.3282078
  C        1.7007211     1.1159626    -0.0522375
  C        2.5111010    -1.6091400     0.0469950
  C        3.4119830    -0.5506530    -0.2589250
  H       -0.9376060     0.5914040    -1.5148910
  H       -3.3625820     0.6426650    -1.1464650
  H       -0.4402900     1.2218800     1.4039980
  H       -3.2819570    -0.9087340     1.1307830
  H       -1.7133080    -1.7003050    -1.3694640
  H       -3.4855610    -1.8340040    -1.1841350
  H       -0.2975250     2.7131790    -0.5250000
  H       -2.8475560     2.3997430     0.5086630
  H        0.4343110    -1.9634370     0.5690680
  H       -2.4338740    -3.7984320    -0.5432330
  H        2.8291120    -2.6453980     0.0739220
  H        5.1251800    -1.6708610    -0.1624140
  H        5.3198140    -0.0200540    -0.5682940
units angstrom
no_reorient  #important for SAPT in psi4, default
symmetry c1  #important for SAPT in psi4, default
}

set PROPERTIES_ORIGIN ["COM"]
properties('MP2/aug-cc-pvtz', properties = ['dipole'])
--------------------------------------------------------------------------

    Molecular point group: c1
  Charge       = 0
  Multiplicity = 1
  Basis Set: AUG-CC-PVTZ
    Blend: AUG-CC-PVTZ
  Basis Set: (AUG-CC-PVTZ AUX)
    Blend: AUG-CC-PVTZ-JKFIT

    Orbital Energies [Eh]
    ---------------------

    Doubly Occupied:

       1A    -20.583236     2A    -20.582939     3A    -20.563415
       4A    -20.560292     5A    -20.541842     6A    -15.637681
       7A    -15.590703     8A    -15.546208     9A    -11.392656
      10A    -11.346728    11A    -11.341238    12A    -11.331915
      13A    -11.302448    14A    -11.299697    15A    -11.298564
      16A    -11.295355    17A    -11.248788    18A     -1.445261
      19A     -1.421598    20A     -1.383685    21A     -1.374853
      22A     -1.350935    23A     -1.308789    24A     -1.269467
      25A     -1.162720    26A     -1.070643    27A     -1.068532
      28A     -1.019359    29A     -0.934228    30A     -0.917260
      31A     -0.868982    32A     -0.827579    33A     -0.813499
      34A     -0.759790    35A     -0.756552    36A     -0.740367
      37A     -0.721940    38A     -0.705073    39A     -0.700840
      40A     -0.690905    41A     -0.674313    42A     -0.661953
      43A     -0.654941    44A     -0.639435    45A     -0.624214
      46A     -0.620936    47A     -0.608478    48A     -0.593708
      49A     -0.576179    50A     -0.569847    51A     -0.554363
      52A     -0.546600    53A     -0.544933    54A     -0.535818
      55A     -0.504414    56A     -0.480773    57A     -0.478394
      58A     -0.475382    59A     -0.462476    60A     -0.456384
      61A     -0.440714    62A     -0.420456    63A     -0.387736
      64A     -0.338267

  @DF-RHF Final Energy:  -886.35539829295021

   => Energetics <=

    Nuclear Repulsion Energy =           1323.7394788576659721
    One-Electron Energy =               -3844.9352026549504444
    Two-Electron Energy =                1634.8403255043344871
    Total Energy =                       -886.3553982929502126
  Basis Set: (AUG-CC-PVTZ AUX)
    Blend: AUG-CC-PVTZ-RI
    Molecular point group: c1

    Geometry (in Angstrom), charge = 0, multiplicity = 1:

       Center              X                  Y                   Z               Mass
    ------------   -----------------  -----------------  -----------------  -----------------
         O           -1.242076640559    -0.654239821862     1.031325337280    15.994914619570
         O           -1.238950640559     2.481279178138    -0.687352662720    15.994914619570
         O           -3.210505640559     1.519527178138     0.743697337280    15.994914619570
         O           -2.351004640559    -3.068408821862     0.093750337280    15.994914619570
         O            1.366554359441     2.245462178138    -0.077731662720    15.994914619570
         N            0.849428359441     0.043651178138     0.254753337280    14.003074004430
         N            3.063250359441     0.718931178138    -0.294916662720    14.003074004430
         N            4.722487359441    -0.838226821862    -0.573487662720    14.003074004430
         C           -1.283459640559     1.076858178138    -0.593266662720    12.000000000000
         C           -2.709146640559     0.653635178138    -0.258582662720    12.000000000000
         C           -0.519383640559     0.479948178138     0.598904337280    12.000000000000
         C           -2.523231640559    -0.718457821862     0.359866337280    12.000000000000
         C           -2.522319640559    -1.851964821862    -0.640479662720    12.000000000000
         C            1.158635359441    -1.279666621862     0.327018137280    12.000000000000
         C            1.706745459441     1.114390778138    -0.053427162720    12.000000000000
         C            2.517125359441    -1.610711821862     0.045805337280    12.000000000000
         C            3.418007359441    -0.552224821862    -0.260114662720    12.000000000000
         H           -0.931581640559     0.589832178138    -1.516080662720     1.007825032230
         H           -3.356557640559     0.641093178138    -1.147654662720     1.007825032230
         H           -0.434265640559     1.220308178138     1.402808337280     1.007825032230
         H           -3.275932640559    -0.910305821862     1.129593337280     1.007825032230
         H           -1.707283640559    -1.701876821862    -1.370653662720     1.007825032230
         H           -3.479536640559    -1.835575821862    -1.185324662720     1.007825032230
         H           -0.291500640559     2.711607178138    -0.526189662720     1.007825032230
         H           -2.841531640559     2.398171178138     0.507473337280     1.007825032230
         H            0.440335359441    -1.965008821862     0.567878337280     1.007825032230
         H           -2.427849640559    -3.800003821862    -0.544422662720     1.007825032230
         H            2.835136359441    -2.646969821862     0.072732337280     1.007825032230
         H            5.131204359441    -1.672432821862    -0.163603662720     1.007825032230
         H            5.325838359441    -0.021625821862    -0.569483662720     1.007825032230

  Basis Set: AUG-CC-PVTZ
    Blend: AUG-CC-PVTZ
  Basis Set: (AUG-CC-PVTZ AUX)
    Blend: AUG-CC-PVTZ-JKFIT
	 Reference Energy          =    -886.3553982929502126 [Eh]
	 Singles Energy            =      -0.0000000000000000 [Eh]
	 Same-Spin Energy          =      -0.9013567321552870 [Eh]
	 Opposite-Spin Energy      =      -2.7162439491683021 [Eh]
	 Correlation Energy        =      -3.6176006813235890 [Eh]
	 Total Energy              =    -889.9729989742737644 [Eh]

	 ================> DF-SCS-MP2 Energies <==================
	-----------------------------------------------------------
	 SCS Same-Spin Scale       =       0.3333333333333333 [-]
	 SCS Opposite-Spin Scale   =       1.2000000000000000 [-]
	 SCS Same-Spin Energy      =      -0.3004522440517623 [Eh]
	 SCS Opposite-Spin Energy  =      -3.2594927390019626 [Eh]
	 SCS Correlation Energy    =      -3.5599449830537249 [Eh]
	 SCS Total Energy          =    -889.9153432760039095 [Eh]
	-----------------------------------------------------------

  Dipole Moment: [D]
     X:     1.1425      Y:    -5.3126      Z:    -1.7824     Total:     5.7189

*** Psi4 exiting successfully. Buy a developer a beer!
