                               Psi4 1.3.2 release

  ==> Input File <==

--------------------------------------------------------------------------
#psi4
#
memory 32 gb

molecule  {
0 1
  O       -1.2481010    -0.6526680     1.0325150
  O       -1.2449750     2.4828510    -0.6861630
  O       -3.2165300     1.5210990     0.7448870
  O       -2.3570290    -3.0668370     0.0949400
  O        1.3605300     2.2470340    -0.0765420
  N        0.8434040     0.0452230     0.2559430
  N        3.0572260     0.7205030    -0.2937270
  N        4.7164630    -0.8366550    -0.5722980
  C       -1.2894840     1.0784300    -0.5920770
  C       -2.7151710     0.6552070    -0.2573930
  C       -0.5254080     0.4815200     0.6000940
  C       -2.5292560    -0.7168860     0.3610560
  C       -2.5090780    -1.8382836    -0.6526458
  C        1.2197750    -1.2614080     0.3112740
  C        1.7555940     1.0674350    -0.0594030
  C        2.5111010    -1.6091400     0.0469950
  C        3.4119830    -0.5506530    -0.2589250
  H       -0.9376060     0.5914040    -1.5148910
  H       -3.3625820     0.6426650    -1.1464650
  H       -0.4402900     1.2218800     1.4039980
  H       -3.2771898    -0.8923309     1.1392965
  H       -1.7133080    -1.7003050    -1.3694640
  H       -3.4855610    -1.8340040    -1.1841350
  H       -0.2975250     2.7131790    -0.5250000
  H       -2.8475560     2.3997430     0.5086630
  H        0.4343110    -1.9634370     0.5690680
  H       -2.4338740    -3.7984320    -0.5432330
  H        2.8291120    -2.6453980     0.0739220
  H        5.1251800    -1.6708610    -0.1624140
  H        5.3198140    -0.0200540    -0.5682940
units angstrom
no_reorient  #important for SAPT in psi4, default
symmetry c1  #important for SAPT in psi4, default
}

set PROPERTIES_ORIGIN ["COM"]
properties('MP2/aug-cc-pvtz', properties = ['dipole'])
--------------------------------------------------------------------------

    Molecular point group: c1
  Charge       = 0
  Multiplicity = 1
  Basis Set: AUG-CC-PVTZ
    Blend: AUG-CC-PVTZ
  Basis Set: (AUG-CC-PVTZ AUX)
    Blend: AUG-CC-PVTZ-JKFIT

    Orbital Energies [Eh]
    ---------------------

    Doubly Occupied:

       1A    -20.581274     2A    -20.580760     3A    -20.557962
       4A    -20.557440     5A    -20.522137     6A    -15.637077
       7A    -15.599976     8A    -15.553493     9A    -11.388403
      10A    -11.358003    11A    -11.341594    12A    -11.328670
      13A    -11.301052    14A    -11.297259    15A    -11.296881
      16A    -11.292774    17A    -11.248724    18A     -1.429408
      19A     -1.396333    20A     -1.379362    21A     -1.368159
      22A     -1.346496    23A     -1.306205    24A     -1.273944
      25A     -1.182391    26A     -1.082125    27A     -1.068342
      28A     -1.021413    29A     -0.935910    30A     -0.909927
      31A     -0.877876    32A     -0.832823    33A     -0.812305
      34A     -0.767152    35A     -0.752449    36A     -0.736113
      37A     -0.720015    38A     -0.700326    39A     -0.697464
      40A     -0.685970    41A     -0.673749    42A     -0.654806
      43A     -0.651332    44A     -0.638395    45A     -0.620744
      46A     -0.613556    47A     -0.607045    48A     -0.593812
      49A     -0.574741    50A     -0.569473    51A     -0.553140
      52A     -0.545546    53A     -0.537491    54A     -0.532509
      55A     -0.498395    56A     -0.478832    57A     -0.473917
      58A     -0.463416    59A     -0.460386    60A     -0.453468
      61A     -0.440711    62A     -0.433358    63A     -0.395329
      64A     -0.350162

  @DF-RHF Final Energy:  -886.37237926758144

   => Energetics <=

    Nuclear Repulsion Energy =           1323.8532101273815442
    One-Electron Energy =               -3845.3705784646517714
    Two-Electron Energy =                1635.1449890696890179
    Total Energy =                       -886.3723792675814366
  Basis Set: (AUG-CC-PVTZ AUX)
    Blend: AUG-CC-PVTZ-RI
    Molecular point group: c1

    Geometry (in Angstrom), charge = 0, multiplicity = 1:

       Center              X                  Y                   Z               Mass
    ------------   -----------------  -----------------  -----------------  -----------------
         O           -1.249071871290    -0.653333781285     1.033139024416    15.994914619570
         O           -1.245945871290     2.482185218715    -0.685538975584    15.994914619570
         O           -3.217500871290     1.520433218715     0.745511024416    15.994914619570
         O           -2.357999871290    -3.067502781285     0.095564024416    15.994914619570
         O            1.359559128710     2.246368218715    -0.075917975584    15.994914619570
         N            0.842433128710     0.044557218715     0.256567024416    14.003074004430
         N            3.056255128710     0.719837218715    -0.293102975584    14.003074004430
         N            4.715492128710    -0.837320781285    -0.571673975584    14.003074004430
         C           -1.290454871290     1.077764218715    -0.591452975584    12.000000000000
         C           -2.716141871290     0.654541218715    -0.256768975584    12.000000000000
         C           -0.526378871290     0.480854218715     0.600718024416    12.000000000000
         C           -2.530226871290    -0.717551781285     0.361680024416    12.000000000000
         C           -2.510048871290    -1.838949381285    -0.652021775584    12.000000000000
         C            1.218804128710    -1.262073781285     0.311898024416    12.000000000000
         C            1.754623128710     1.066769218715    -0.058778975584    12.000000000000
         C            2.510130128710    -1.609805781285     0.047619024416    12.000000000000
         C            3.411012128710    -0.551318781285    -0.258300975584    12.000000000000
         H           -0.938576871290     0.590738218715    -1.514266975584     1.007825032230
         H           -3.363552871290     0.641999218715    -1.145840975584     1.007825032230
         H           -0.441260871290     1.221214218715     1.404622024416     1.007825032230
         H           -3.278160671290    -0.892996681285     1.139920524416     1.007825032230
         H           -1.714278871290    -1.700970781285    -1.368839975584     1.007825032230
         H           -3.486531871290    -1.834669781285    -1.183510975584     1.007825032230
         H           -0.298495871290     2.712513218715    -0.524375975584     1.007825032230
         H           -2.848526871290     2.399077218715     0.509287024416     1.007825032230
         H            0.433340128710    -1.964102781285     0.569692024416     1.007825032230
         H           -2.434844871290    -3.799097781285    -0.542608975584     1.007825032230
         H            2.828141128710    -2.646063781285     0.074546024416     1.007825032230
         H            5.124209128710    -1.671526781285    -0.161789975584     1.007825032230
         H            5.318843128710    -0.020719781285    -0.567669975584     1.007825032230

  Basis Set: AUG-CC-PVTZ
    Blend: AUG-CC-PVTZ
  Basis Set: (AUG-CC-PVTZ AUX)
    Blend: AUG-CC-PVTZ-JKFIT
	 Reference Energy          =    -886.3723792675814366 [Eh]
	 Singles Energy            =      -0.0000000000000000 [Eh]
	 Same-Spin Energy          =      -0.9013083710945351 [Eh]
	 Opposite-Spin Energy      =      -2.7152924156408633 [Eh]
	 Correlation Energy        =      -3.6166007867353986 [Eh]
	 Total Energy              =    -889.9889800543168121 [Eh]

	 ================> DF-SCS-MP2 Energies <==================
	-----------------------------------------------------------
	 SCS Same-Spin Scale       =       0.3333333333333333 [-]
	 SCS Opposite-Spin Scale   =       1.2000000000000000 [-]
	 SCS Same-Spin Energy      =      -0.3004361236981783 [Eh]
	 SCS Opposite-Spin Energy  =      -3.2583508987690357 [Eh]
	 SCS Correlation Energy    =      -3.5587870224672140 [Eh]
	 SCS Total Energy          =    -889.9311662900486226 [Eh]
	-----------------------------------------------------------

  Dipole Moment: [D]
     X:     1.7381      Y:    -5.8936      Z:    -1.8441     Total:     6.4153

*** Psi4 exiting successfully. Buy a developer a beer!
