                               Psi4 1.3.2 release

  ==> Input File <==

--------------------------------------------------------------------------
#psi4
#
memory 32 gb

molecule  {
0 1
  O       -1.2481010    -0.6526680     1.0325150
  O       -1.2449750     2.4828510    -0.6861630
  O       -3.2165300     1.5210990     0.7448870
  O       -2.3570290    -3.0668370     0.0949400
  O        1.3605300     2.2470340    -0.0765420
  N        0.8434040     0.0452230     0.2559430
  N        3.0572260     0.7205030    -0.2937270
  N        4.7164630    -0.8366550    -0.5722980
  C       -1.2894840     1.0784300    -0.5920770
  C       -2.7151710     0.6552070    -0.2573930
  C       -0.5254080     0.4815200     0.6000940
  C       -2.5292560    -0.7168860     0.3610560
  C       -2.5283440    -1.8503930    -0.6392900
  C        1.1974926    -1.2673707     0.3169377
  C        1.7375735     1.0839289    -0.0571096
  C        2.5111010    -1.6091400     0.0469950
  C        3.4119830    -0.5506530    -0.2589250
  H       -0.9376060     0.5914040    -1.5148910
  H       -3.3625820     0.6426650    -1.1464650
  H       -0.4402900     1.2218800     1.4039980
  H       -3.2819570    -0.9087340     1.1307830
  H       -1.7133080    -1.7003050    -1.3694640
  H       -3.4855610    -1.8340040    -1.1841350
  H       -0.2975250     2.7131790    -0.5250000
  H       -2.8475560     2.3997430     0.5086630
  H        0.4343110    -1.9634370     0.5690680
  H       -2.4338740    -3.7984320    -0.5432330
  H        2.8291120    -2.6453980     0.0739220
  H        5.1251800    -1.6708610    -0.1624140
  H        5.3198140    -0.0200540    -0.5682940
units angstrom
no_reorient  #important for SAPT in psi4, default
symmetry c1  #important for SAPT in psi4, default
}

set PROPERTIES_ORIGIN ["COM"]
properties('MP2/aug-cc-pvtz', properties = ['dipole'])
--------------------------------------------------------------------------

    Molecular point group: c1
  Charge       = 0
  Multiplicity = 1
  Basis Set: AUG-CC-PVTZ
    Blend: AUG-CC-PVTZ
  Basis Set: (AUG-CC-PVTZ AUX)
    Blend: AUG-CC-PVTZ-JKFIT

    Orbital Energies [Eh]
    ---------------------

    Doubly Occupied:

       1A    -20.582588     2A    -20.582036     3A    -20.559269
       4A    -20.558611     5A    -20.528651     6A    -15.637090
       7A    -15.596759     8A    -15.551047     9A    -11.389815
      10A    -11.354121    11A    -11.341427    12A    -11.329640
      13A    -11.301610    14A    -11.297650    15A    -11.297461
      16A    -11.293749    17A    -11.248620    18A     -1.431725
      19A     -1.405673    20A     -1.381248    21A     -1.373606
      22A     -1.347813    23A     -1.307687    24A     -1.272858
      25A     -1.175660    26A     -1.077299    27A     -1.068425
      28A     -1.020770    29A     -0.934964    30A     -0.912210
      31A     -0.874194    32A     -0.830925    33A     -0.812310
      34A     -0.763804    35A     -0.753376    36A     -0.737469
      37A     -0.720533    38A     -0.703599    39A     -0.699248
      40A     -0.687107    41A     -0.673374    42A     -0.656077
      43A     -0.653225    44A     -0.638199    45A     -0.620920
      46A     -0.617504    47A     -0.607034    48A     -0.594820
      49A     -0.576311    50A     -0.569746    51A     -0.554364
      52A     -0.545950    53A     -0.539693    54A     -0.533394
      55A     -0.500466    56A     -0.478108    57A     -0.475430
      58A     -0.466909    59A     -0.461468    60A     -0.454008
      61A     -0.440459    62A     -0.429761    63A     -0.392946
      64A     -0.346351

  @DF-RHF Final Energy:  -886.37140553834649

   => Energetics <=

    Nuclear Repulsion Energy =           1323.6820920658371961
    One-Electron Energy =               -3844.9686622867930055
    Two-Electron Energy =                1634.9151646826089745
    Total Energy =                       -886.3714055383466075
  Basis Set: (AUG-CC-PVTZ AUX)
    Blend: AUG-CC-PVTZ-RI
    Molecular point group: c1

    Geometry (in Angstrom), charge = 0, multiplicity = 1:

       Center              X                  Y                   Z               Mass
    ------------   -----------------  -----------------  -----------------  -----------------
         O           -1.246111467470    -0.653187866157     1.032122202513    15.994914619570
         O           -1.242985467470     2.482331133843    -0.686555797487    15.994914619570
         O           -3.214540467470     1.520579133843     0.744494202513    15.994914619570
         O           -2.355039467470    -3.067356866157     0.094547202513    15.994914619570
         O            1.362519532530     2.246514133843    -0.076934797487    15.994914619570
         N            0.845393532530     0.044703133843     0.255550202513    14.003074004430
         N            3.059215532530     0.719983133843    -0.294119797487    14.003074004430
         N            4.718452532530    -0.837174866157    -0.572690797487    14.003074004430
         C           -1.287494467470     1.077910133843    -0.592469797487    12.000000000000
         C           -2.713181467470     0.654687133843    -0.257785797487    12.000000000000
         C           -0.523418467470     0.481000133843     0.599701202513    12.000000000000
         C           -2.527266467470    -0.717405866157     0.360663202513    12.000000000000
         C           -2.526354467470    -1.850912866157    -0.639682797487    12.000000000000
         C            1.199482132530    -1.267890566157     0.316544902513    12.000000000000
         C            1.739563032530     1.083409033843    -0.057502397487    12.000000000000
         C            2.513090532530    -1.609659866157     0.046602202513    12.000000000000
         C            3.413972532530    -0.551172866157    -0.259317797487    12.000000000000
         H           -0.935616467470     0.590884133843    -1.515283797487     1.007825032230
         H           -3.360592467470     0.642145133843    -1.146857797487     1.007825032230
         H           -0.438300467470     1.221360133843     1.403605202513     1.007825032230
         H           -3.279967467470    -0.909253866157     1.130390202513     1.007825032230
         H           -1.711318467470    -1.700824866157    -1.369856797487     1.007825032230
         H           -3.483571467470    -1.834523866157    -1.184527797487     1.007825032230
         H           -0.295535467470     2.712659133843    -0.525392797487     1.007825032230
         H           -2.845566467470     2.399223133843     0.508270202513     1.007825032230
         H            0.436300532530    -1.963956866157     0.568675202513     1.007825032230
         H           -2.431884467470    -3.798951866157    -0.543625797487     1.007825032230
         H            2.831101532530    -2.645917866157     0.073529202513     1.007825032230
         H            5.127169532530    -1.671380866157    -0.162806797487     1.007825032230
         H            5.321803532530    -0.020573866157    -0.568686797487     1.007825032230

  Basis Set: AUG-CC-PVTZ
    Blend: AUG-CC-PVTZ
  Basis Set: (AUG-CC-PVTZ AUX)
    Blend: AUG-CC-PVTZ-JKFIT
	 Reference Energy          =    -886.3714055383464938 [Eh]
	 Singles Energy            =      -0.0000000000000000 [Eh]
	 Same-Spin Energy          =      -0.9011888150833068 [Eh]
	 Opposite-Spin Energy      =      -2.7151617784266859 [Eh]
	 Correlation Energy        =      -3.6163505935099929 [Eh]
	 Total Energy              =    -889.9877561318564858 [Eh]

	 ================> DF-SCS-MP2 Energies <==================
	-----------------------------------------------------------
	 SCS Same-Spin Scale       =       0.3333333333333333 [-]
	 SCS Opposite-Spin Scale   =       1.2000000000000000 [-]
	 SCS Same-Spin Energy      =      -0.3003962716944356 [Eh]
	 SCS Opposite-Spin Energy  =      -3.2581941341120229 [Eh]
	 SCS Correlation Energy    =      -3.5585904058064584 [Eh]
	 SCS Total Energy          =    -889.9299959441530063 [Eh]
	-----------------------------------------------------------

  Dipole Moment: [D]
     X:     1.5173      Y:    -5.7398      Z:    -1.8081     Total:     6.2062

*** Psi4 exiting successfully. Buy a developer a beer!
