                               Psi4 1.3.2 release

  ==> Input File <==

--------------------------------------------------------------------------
#psi4
#
memory 32 gb

molecule  {
0 1
  O       -1.2481010    -0.6526680     1.0325150
  O       -1.2449750     2.4828510    -0.6861630
  O       -3.2165300     1.5210990     0.7448870
  O       -2.3570290    -3.0668370     0.0949400
  O        1.3605300     2.2470340    -0.0765420
  N        0.8434040     0.0452230     0.2559430
  N        3.0572260     0.7205030    -0.2937270
  N        4.7164630    -0.8366550    -0.5722980
  C       -1.3039473     1.0835146    -0.6430284
  C       -2.7151710     0.6552070    -0.2573930
  C       -0.5254080     0.4815200     0.6000940
  C       -2.5292560    -0.7168860     0.3610560
  C       -2.5283440    -1.8503930    -0.6392900
  C        1.2197750    -1.2614080     0.3112740
  C        1.7555940     1.0674350    -0.0594030
  C        2.5111010    -1.6091400     0.0469950
  C        3.4119830    -0.5506530    -0.2589250
  H       -0.9376060     0.5914040    -1.5148910
  H       -3.3326148     0.6539971    -1.1676177
  H       -0.4402900     1.2218800     1.4039980
  H       -3.2819570    -0.9087340     1.1307830
  H       -1.7133080    -1.7003050    -1.3694640
  H       -3.4855610    -1.8340040    -1.1841350
  H       -0.2975250     2.7131790    -0.5250000
  H       -2.8475560     2.3997430     0.5086630
  H        0.4343110    -1.9634370     0.5690680
  H       -2.4338740    -3.7984320    -0.5432330
  H        2.8291120    -2.6453980     0.0739220
  H        5.1251800    -1.6708610    -0.1624140
  H        5.3198140    -0.0200540    -0.5682940
units angstrom
no_reorient  #important for SAPT in psi4, default
symmetry c1  #important for SAPT in psi4, default
}

set PROPERTIES_ORIGIN ["COM"]
properties('MP2/aug-cc-pvtz', properties = ['dipole'])
--------------------------------------------------------------------------

    Molecular point group: c1
  Charge       = 0
  Multiplicity = 1
  Basis Set: AUG-CC-PVTZ
    Blend: AUG-CC-PVTZ
  Basis Set: (AUG-CC-PVTZ AUX)
    Blend: AUG-CC-PVTZ-JKFIT

    Orbital Energies [Eh]
    ---------------------

    Doubly Occupied:

       1A    -20.582318     2A    -20.580757     3A    -20.559175
       4A    -20.557359     5A    -20.521492     6A    -15.636110
       7A    -15.599466     8A    -15.552933     9A    -11.387667
      10A    -11.357362    11A    -11.340900    12A    -11.327844
      13A    -11.301368    14A    -11.297340    15A    -11.296288
      16A    -11.293086    17A    -11.248022    18A     -1.427531
      19A     -1.395688    20A     -1.380940    21A     -1.372907
      22A     -1.347450    23A     -1.305524    24A     -1.273062
      25A     -1.181691    26A     -1.080321    27A     -1.067776
      28A     -1.016660    29A     -0.934685    30A     -0.908866
      31A     -0.876605    32A     -0.834680    33A     -0.809742
      34A     -0.766521    35A     -0.750526    36A     -0.737025
      37A     -0.719990    38A     -0.702565    39A     -0.701375
      40A     -0.685025    41A     -0.674829    42A     -0.654486
      43A     -0.651654    44A     -0.637318    45A     -0.620351
      46A     -0.615438    47A     -0.606636    48A     -0.592749
      49A     -0.575027    50A     -0.569501    51A     -0.553595
      52A     -0.546176    53A     -0.537040    54A     -0.531518
      55A     -0.498078    56A     -0.478253    57A     -0.476549
      58A     -0.461704    59A     -0.459123    60A     -0.454057
      61A     -0.435810    62A     -0.432487    63A     -0.393731
      64A     -0.348622

  @DF-RHF Final Energy:  -886.37062190624192

   => Energetics <=

    Nuclear Repulsion Energy =           1322.8741480753931228
    One-Electron Energy =               -3843.4467858414272996
    Two-Electron Energy =                1634.2020158597920272
    Total Energy =                       -886.3706219062419223
  Basis Set: (AUG-CC-PVTZ AUX)
    Blend: AUG-CC-PVTZ-RI
    Molecular point group: c1

    Geometry (in Angstrom), charge = 0, multiplicity = 1:

       Center              X                  Y                   Z               Mass
    ------------   -----------------  -----------------  -----------------  -----------------
         O           -1.247511291259    -0.652965975417     1.035117939236    15.994914619570
         O           -1.244385291259     2.482553024583    -0.683560060764    15.994914619570
         O           -3.215940291259     1.520801024583     0.747489939236    15.994914619570
         O           -2.356439291259    -3.067134975417     0.097542939236    15.994914619570
         O            1.361119708741     2.246736024583    -0.073939060764    15.994914619570
         N            0.843993708741     0.044925024583     0.258545939236    14.003074004430
         N            3.057815708741     0.720205024583    -0.291124060764    14.003074004430
         N            4.717052708741    -0.836952975417    -0.569695060764    14.003074004430
         C           -1.303357591259     1.083216624583    -0.640425460764    12.000000000000
         C           -2.714581291259     0.654909024583    -0.254790060764    12.000000000000
         C           -0.524818291259     0.481222024583     0.602696939236    12.000000000000
         C           -2.528666291259    -0.717183975417     0.363658939236    12.000000000000
         C           -2.527754291259    -1.850690975417    -0.636687060764    12.000000000000
         C            1.220364708741    -1.261705975417     0.313876939236    12.000000000000
         C            1.756183708741     1.067137024583    -0.056800060764    12.000000000000
         C            2.511690708741    -1.609437975417     0.049597939236    12.000000000000
         C            3.412572708741    -0.550950975417    -0.256322060764    12.000000000000
         H           -0.937016291259     0.591106024583    -1.512288060764     1.007825032230
         H           -3.332025091259     0.653699124583    -1.165014760764     1.007825032230
         H           -0.439700291259     1.221582024583     1.406600939236     1.007825032230
         H           -3.281367291259    -0.909031975417     1.133385939236     1.007825032230
         H           -1.712718291259    -1.700602975417    -1.366861060764     1.007825032230
         H           -3.484971291259    -1.834301975417    -1.181532060764     1.007825032230
         H           -0.296935291259     2.712881024583    -0.522397060764     1.007825032230
         H           -2.846966291259     2.399445024583     0.511265939236     1.007825032230
         H            0.434900708741    -1.963734975417     0.571670939236     1.007825032230
         H           -2.433284291259    -3.798729975417    -0.540630060764     1.007825032230
         H            2.829701708741    -2.645695975417     0.076524939236     1.007825032230
         H            5.125769708741    -1.671158975417    -0.159811060764     1.007825032230
         H            5.320403708741    -0.020351975417    -0.565691060764     1.007825032230

  Basis Set: AUG-CC-PVTZ
    Blend: AUG-CC-PVTZ
  Basis Set: (AUG-CC-PVTZ AUX)
    Blend: AUG-CC-PVTZ-JKFIT
	 Reference Energy          =    -886.3706219062419223 [Eh]
	 Singles Energy            =      -0.0000000000000000 [Eh]
	 Same-Spin Energy          =      -0.9011945697342035 [Eh]
	 Opposite-Spin Energy      =      -2.7149197504210858 [Eh]
	 Correlation Energy        =      -3.6161143201552894 [Eh]
	 Total Energy              =    -889.9867362263971700 [Eh]

	 ================> DF-SCS-MP2 Energies <==================
	-----------------------------------------------------------
	 SCS Same-Spin Scale       =       0.3333333333333333 [-]
	 SCS Opposite-Spin Scale   =       1.2000000000000000 [-]
	 SCS Same-Spin Energy      =      -0.3003981899114012 [Eh]
	 SCS Opposite-Spin Energy  =      -3.2579037005053029 [Eh]
	 SCS Correlation Energy    =      -3.5583018904167041 [Eh]
	 SCS Total Energy          =    -889.9289237966586370 [Eh]
	-----------------------------------------------------------

  Dipole Moment: [D]
     X:     1.6760      Y:    -5.9206      Z:    -1.8697     Total:     6.4311

*** Psi4 exiting successfully. Buy a developer a beer!
