                               Psi4 1.3.2 release

  ==> Input File <==

--------------------------------------------------------------------------
#psi4
#
memory 32 gb

molecule  {
0 1
  O       -1.2481010    -0.6526680     1.0325150
  O       -1.2449750     2.4828510    -0.6861630
  O       -3.2165300     1.5210990     0.7448870
  O       -2.3570290    -3.0668370     0.0949400
  O        1.3605300     2.2470340    -0.0765420
  N        0.8434040     0.0452230     0.2559430
  N        3.0572260     0.7205030    -0.2937270
  N        4.7164630    -0.8366550    -0.5722980
  C       -1.2894840     1.0784300    -0.5920770
  C       -2.7151710     0.6552070    -0.2573930
  C       -0.5254080     0.4815200     0.6000940
  C       -2.5292560    -0.7168860     0.3610560
  C       -2.5283440    -1.8503930    -0.6392900
  C        1.2197750    -1.2614080     0.3112740
  C        1.7555940     1.0674350    -0.0594030
  C        2.5111010    -1.6091400     0.0469950
  C        3.4119830    -0.5506530    -0.2589250
  H       -0.9376060     0.5914040    -1.5148910
  H       -3.3625820     0.6426650    -1.1464650
  H       -0.4402900     1.2218800     1.4039980
  H       -3.2819570    -0.9087340     1.1307830
  H       -1.7133080    -1.7003050    -1.3694640
  H       -3.4855610    -1.8340040    -1.1841350
  H       -0.2975250     2.7131790    -0.5250000
  H       -2.8475560     2.3997430     0.5086630
  H        0.4343110    -1.9634370     0.5690680
  H       -2.4180925    -3.6481854    -0.4121723
  H        2.8291120    -2.6453980     0.0739220
  H        5.1251800    -1.6708610    -0.1624140
  H        5.3198140    -0.0200540    -0.5682940
units angstrom
no_reorient  #important for SAPT in psi4, default
symmetry c1  #important for SAPT in psi4, default
}

set PROPERTIES_ORIGIN ["COM"]
properties('MP2/aug-cc-pvtz', properties = ['dipole'])
--------------------------------------------------------------------------

    Molecular point group: c1
  Charge       = 0
  Multiplicity = 1
  Basis Set: AUG-CC-PVTZ
    Blend: AUG-CC-PVTZ
  Basis Set: (AUG-CC-PVTZ AUX)
    Blend: AUG-CC-PVTZ-JKFIT

    Orbital Energies [Eh]
    ---------------------

    Doubly Occupied:

       1A    -20.582608     2A    -20.560655     3A    -20.558506
       4A    -20.557865     5A    -20.522462     6A    -15.637479
       7A    -15.600190     8A    -15.553776     9A    -11.388743
      10A    -11.358280    11A    -11.342287    12A    -11.329070
      13A    -11.303923    14A    -11.298345    15A    -11.297408
      16A    -11.293754    17A    -11.249049    18A     -1.441658
      19A     -1.426304    20A     -1.395706    21A     -1.378726
      22A     -1.346974    23A     -1.306566    24A     -1.274371
      25A     -1.182695    26A     -1.083038    27A     -1.073323
      28A     -1.025749    29A     -0.944922    30A     -0.911309
      31A     -0.880098    32A     -0.833961    33A     -0.812985
      34A     -0.767651    35A     -0.760007    36A     -0.749802
      37A     -0.729823    38A     -0.715500    39A     -0.699918
      40A     -0.686635    41A     -0.674247    42A     -0.656492
      43A     -0.652595    44A     -0.639930    45A     -0.621849
      46A     -0.616485    47A     -0.608469    48A     -0.594862
      49A     -0.578460    50A     -0.571984    51A     -0.556800
      52A     -0.549978    53A     -0.538931    54A     -0.535072
      55A     -0.498835    56A     -0.483179    57A     -0.475928
      58A     -0.464032    59A     -0.460768    60A     -0.453918
      61A     -0.441790    62A     -0.433754    63A     -0.395632
      64A     -0.350498

  @DF-RHF Final Energy:  -886.32814733083387

   => Energetics <=

    Nuclear Repulsion Energy =           1325.3198990610906094
    One-Electron Energy =               -3847.8628701890579578
    Two-Electron Energy =                1636.2148237971337039
    Total Energy =                       -886.3281473308338718
  Basis Set: (AUG-CC-PVTZ AUX)
    Blend: AUG-CC-PVTZ-RI
    Molecular point group: c1

    Geometry (in Angstrom), charge = 0, multiplicity = 1:

       Center              X                  Y                   Z               Mass
    ------------   -----------------  -----------------  -----------------  -----------------
         O           -1.248166463546    -0.653290907607     1.031971633882    15.994914619570
         O           -1.245040463546     2.482228092393    -0.686706366118    15.994914619570
         O           -3.216595463546     1.520476092393     0.744343633882    15.994914619570
         O           -2.357094463546    -3.067459907607     0.094396633882    15.994914619570
         O            1.360464536454     2.246411092393    -0.077085366118    15.994914619570
         N            0.843338536454     0.044600092393     0.255399633882    14.003074004430
         N            3.057160536454     0.719880092393    -0.294270366118    14.003074004430
         N            4.716397536454    -0.837277907607    -0.572841366118    14.003074004430
         C           -1.289549463546     1.077807092393    -0.592620366118    12.000000000000
         C           -2.715236463546     0.654584092393    -0.257936366118    12.000000000000
         C           -0.525473463546     0.480897092393     0.599550633882    12.000000000000
         C           -2.529321463546    -0.717508907607     0.360512633882    12.000000000000
         C           -2.528409463546    -1.851015907607    -0.639833366118    12.000000000000
         C            1.219709536454    -1.262030907607     0.310730633882    12.000000000000
         C            1.755528536454     1.066812092393    -0.059946366118    12.000000000000
         C            2.511035536454    -1.609762907607     0.046451633882    12.000000000000
         C            3.411917536454    -0.551275907607    -0.259468366118    12.000000000000
         H           -0.937671463546     0.590781092393    -1.515434366118     1.007825032230
         H           -3.362647463546     0.642042092393    -1.147008366118     1.007825032230
         H           -0.440355463546     1.221257092393     1.403454633882     1.007825032230
         H           -3.282022463546    -0.909356907607     1.130239633882     1.007825032230
         H           -1.713373463546    -1.700927907607    -1.370007366118     1.007825032230
         H           -3.485626463546    -1.834626907607    -1.184678366118     1.007825032230
         H           -0.297590463546     2.712556092393    -0.525543366118     1.007825032230
         H           -2.847621463546     2.399120092393     0.508119633882     1.007825032230
         H            0.434245536454    -1.964059907607     0.568524633882     1.007825032230
         H           -2.418157963546    -3.648808307607    -0.412715666118     1.007825032230
         H            2.829046536454    -2.646020907607     0.073378633882     1.007825032230
         H            5.125114536454    -1.671483907607    -0.162957366118     1.007825032230
         H            5.319748536454    -0.020676907607    -0.568837366118     1.007825032230

  Basis Set: AUG-CC-PVTZ
    Blend: AUG-CC-PVTZ
  Basis Set: (AUG-CC-PVTZ AUX)
    Blend: AUG-CC-PVTZ-JKFIT
	 Reference Energy          =    -886.3281473308338718 [Eh]
	 Singles Energy            =      -0.0000000000000000 [Eh]
	 Same-Spin Energy          =      -0.8989677579043536 [Eh]
	 Opposite-Spin Energy      =      -2.7093420535369166 [Eh]
	 Correlation Energy        =      -3.6083098114412699 [Eh]
	 Total Energy              =    -889.9364571422751169 [Eh]

	 ================> DF-SCS-MP2 Energies <==================
	-----------------------------------------------------------
	 SCS Same-Spin Scale       =       0.3333333333333333 [-]
	 SCS Opposite-Spin Scale   =       1.2000000000000000 [-]
	 SCS Same-Spin Energy      =      -0.2996559193014512 [Eh]
	 SCS Opposite-Spin Energy  =      -3.2512104642442998 [Eh]
	 SCS Correlation Energy    =      -3.5508663835457508 [Eh]
	 SCS Total Energy          =    -889.8790137143796528 [Eh]
	-----------------------------------------------------------

  Dipole Moment: [D]
     X:     1.7397      Y:    -5.7558      Z:    -1.7442     Total:     6.2608

*** Psi4 exiting successfully. Buy a developer a beer!
