                               Psi4 1.3.2 release

  ==> Input File <==

--------------------------------------------------------------------------
#psi4
#
memory 32 gb

molecule  {
0 1
  O       -1.2481010    -0.6526680     1.0325150
  O       -1.2449750     2.4828510    -0.6861630
  O       -3.2165300     1.5210990     0.7448870
  O       -2.3570290    -3.0668370     0.0949400
  O        1.3605300     2.2470340    -0.0765420
  N        0.8385691     0.0373073     0.2469894
  N        3.0572260     0.7205030    -0.2937270
  N        4.7164630    -0.8366550    -0.5722980
  C       -1.2894840     1.0784300    -0.5920770
  C       -2.7151710     0.6552070    -0.2573930
  C       -0.5254080     0.4815200     0.6000940
  C       -2.5292560    -0.7168860     0.3610560
  C       -2.5283440    -1.8503930    -0.6392900
  C        1.2197750    -1.2614080     0.3112740
  C        1.7555940     1.0674350    -0.0594030
  C        2.5111010    -1.6091400     0.0469950
  C        3.4119830    -0.5506530    -0.2589250
  H       -0.9376060     0.5914040    -1.5148910
  H       -3.3625820     0.6426650    -1.1464650
  H       -0.4498118     1.2227921     1.4041092
  H       -3.2819570    -0.9087340     1.1307830
  H       -1.7133080    -1.7003050    -1.3694640
  H       -3.4855610    -1.8340040    -1.1841350
  H       -0.2975250     2.7131790    -0.5250000
  H       -2.8475560     2.3997430     0.5086630
  H        0.4343110    -1.9634370     0.5690680
  H       -2.4338740    -3.7984320    -0.5432330
  H        2.8291120    -2.6453980     0.0739220
  H        5.1251800    -1.6708610    -0.1624140
  H        5.3198140    -0.0200540    -0.5682940
units angstrom
no_reorient  #important for SAPT in psi4, default
symmetry c1  #important for SAPT in psi4, default
}

set PROPERTIES_ORIGIN ["COM"]
properties('MP2/aug-cc-pvtz', properties = ['dipole'])
--------------------------------------------------------------------------

    Molecular point group: c1
  Charge       = 0
  Multiplicity = 1
  Basis Set: AUG-CC-PVTZ
    Blend: AUG-CC-PVTZ
  Basis Set: (AUG-CC-PVTZ AUX)
    Blend: AUG-CC-PVTZ-JKFIT

    Orbital Energies [Eh]
    ---------------------

    Doubly Occupied:

       1A    -20.582148     2A    -20.581307     3A    -20.557868
       4A    -20.557395     5A    -20.523120     6A    -15.637288
       7A    -15.599738     8A    -15.553410     9A    -11.389295
      10A    -11.357768    11A    -11.341732    12A    -11.328026
      13A    -11.301084    14A    -11.296801    15A    -11.296530
      16A    -11.292932    17A    -11.247791    18A     -1.429378
      19A     -1.396330    20A     -1.380171    21A     -1.372788
      22A     -1.346414    23A     -1.306546    24A     -1.274314
      25A     -1.182359    26A     -1.081728    27A     -1.067668
      28A     -1.021197    29A     -0.935462    30A     -0.908822
      31A     -0.877416    32A     -0.832298    33A     -0.811805
      34A     -0.766837    35A     -0.752774    36A     -0.736597
      37A     -0.720123    38A     -0.702773    39A     -0.698477
      40A     -0.685452    41A     -0.672794    42A     -0.654397
      43A     -0.651650    44A     -0.638018    45A     -0.620705
      46A     -0.614158    47A     -0.606698    48A     -0.594801
      49A     -0.575563    50A     -0.569539    51A     -0.554139
      52A     -0.545758    53A     -0.537573    54A     -0.531887
      55A     -0.499226    56A     -0.477479    57A     -0.474476
      58A     -0.462495    59A     -0.460296    60A     -0.452874
      61A     -0.440550    62A     -0.433003    63A     -0.395416
      64A     -0.349491

  @DF-RHF Final Energy:  -886.37325878063029

   => Energetics <=

    Nuclear Repulsion Energy =           1323.7385865400833609
    One-Electron Energy =               -3845.1338016470340335
    Two-Electron Energy =                1635.0219563263203781
    Total Energy =                       -886.3732587806302945
  Basis Set: (AUG-CC-PVTZ AUX)
    Blend: AUG-CC-PVTZ-RI
    Molecular point group: c1

    Geometry (in Angstrom), charge = 0, multiplicity = 1:

       Center              X                  Y                   Z               Mass
    ------------   -----------------  -----------------  -----------------  -----------------
         O           -1.247783039797    -0.652215783183     1.033030323461    15.994914619570
         O           -1.244657039797     2.483303216817    -0.685647676539    15.994914619570
         O           -3.216212039797     1.521551216817     0.745402323461    15.994914619570
         O           -2.356711039797    -3.066384783183     0.095455323461    15.994914619570
         O            1.360847960203     2.247486216817    -0.076026676539    15.994914619570
         N            0.838887060203     0.037759516817     0.247504723461    14.003074004430
         N            3.057543960203     0.720955216817    -0.293211676539    14.003074004430
         N            4.716780960203    -0.836202783183    -0.571782676539    14.003074004430
         C           -1.289166039797     1.078882216817    -0.591561676539    12.000000000000
         C           -2.714853039797     0.655659216817    -0.256877676539    12.000000000000
         C           -0.525090039797     0.481972216817     0.600609323461    12.000000000000
         C           -2.528938039797    -0.716433783183     0.361571323461    12.000000000000
         C           -2.528026039797    -1.849940783183    -0.638774676539    12.000000000000
         C            1.220092960203    -1.260955783183     0.311789323461    12.000000000000
         C            1.755911960203     1.067887216817    -0.058887676539    12.000000000000
         C            2.511418960203    -1.608687783183     0.047510323461    12.000000000000
         C            3.412300960203    -0.550200783183    -0.258409676539    12.000000000000
         H           -0.937288039797     0.591856216817    -1.514375676539     1.007825032230
         H           -3.362264039797     0.643117216817    -1.145949676539     1.007825032230
         H           -0.449493839797     1.223244316817     1.404624523461     1.007825032230
         H           -3.281639039797    -0.908281783183     1.131298323461     1.007825032230
         H           -1.712990039797    -1.699852783183    -1.368948676539     1.007825032230
         H           -3.485243039797    -1.833551783183    -1.183619676539     1.007825032230
         H           -0.297207039797     2.713631216817    -0.524484676539     1.007825032230
         H           -2.847238039797     2.400195216817     0.509178323461     1.007825032230
         H            0.434628960203    -1.962984783183     0.569583323461     1.007825032230
         H           -2.433556039797    -3.797979783183    -0.542717676539     1.007825032230
         H            2.829429960203    -2.644945783183     0.074437323461     1.007825032230
         H            5.125497960203    -1.670408783183    -0.161898676539     1.007825032230
         H            5.320131960203    -0.019601783183    -0.567778676539     1.007825032230

  Basis Set: AUG-CC-PVTZ
    Blend: AUG-CC-PVTZ
  Basis Set: (AUG-CC-PVTZ AUX)
    Blend: AUG-CC-PVTZ-JKFIT
	 Reference Energy          =    -886.3732587806302945 [Eh]
	 Singles Energy            =      -0.0000000000000000 [Eh]
	 Same-Spin Energy          =      -0.9012921243344606 [Eh]
	 Opposite-Spin Energy      =      -2.7150044816629881 [Eh]
	 Correlation Energy        =      -3.6162966059974488 [Eh]
	 Total Energy              =    -889.9895553866277851 [Eh]

	 ================> DF-SCS-MP2 Energies <==================
	-----------------------------------------------------------
	 SCS Same-Spin Scale       =       0.3333333333333333 [-]
	 SCS Opposite-Spin Scale   =       1.2000000000000000 [-]
	 SCS Same-Spin Energy      =      -0.3004307081114869 [Eh]
	 SCS Opposite-Spin Energy  =      -3.2580053779955858 [Eh]
	 SCS Correlation Energy    =      -3.5584360861070725 [Eh]
	 SCS Total Energy          =    -889.9316948667374163 [Eh]
	-----------------------------------------------------------

  Dipole Moment: [D]
     X:     1.7056      Y:    -5.9124      Z:    -1.8203     Total:     6.4171

*** Psi4 exiting successfully. Buy a developer a beer!
