                               Psi4 1.3.2 release

  ==> Input File <==

--------------------------------------------------------------------------
#psi4
#
memory 32 gb

molecule  {
0 1
  O       -1.2481010    -0.6526680     1.0325150
  O       -1.2449750     2.4828510    -0.6861630
  O       -3.2165300     1.5210990     0.7448870
  O       -2.3570290    -3.0668370     0.0949400
  O        1.3605300     2.2470340    -0.0765420
  N        0.8434040     0.0452230     0.2559430
  N        3.0572260     0.7205030    -0.2937270
  N        4.7164630    -0.8366550    -0.5722980
  C       -1.2894840     1.0784300    -0.5920770
  C       -2.7151710     0.6552070    -0.2573930
  C       -0.5119851     0.4655817     0.5832092
  C       -2.5292560    -0.7168860     0.3610560
  C       -2.5283440    -1.8503930    -0.6392900
  C        1.2197750    -1.2614080     0.3112740
  C        1.7555940     1.0674350    -0.0594030
  C        2.5111010    -1.6091400     0.0469950
  C        3.4119830    -0.5506530    -0.2589250
  H       -0.9255050     0.5807347    -1.5044458
  H       -3.3625820     0.6426650    -1.1464650
  H       -0.4402900     1.2218800     1.4039980
  H       -3.2819570    -0.9087340     1.1307830
  H       -1.7133080    -1.7003050    -1.3694640
  H       -3.4855610    -1.8340040    -1.1841350
  H       -0.2975250     2.7131790    -0.5250000
  H       -2.8475560     2.3997430     0.5086630
  H        0.4343110    -1.9634370     0.5690680
  H       -2.4338740    -3.7984320    -0.5432330
  H        2.8291120    -2.6453980     0.0739220
  H        5.1251800    -1.6708610    -0.1624140
  H        5.3198140    -0.0200540    -0.5682940
units angstrom
no_reorient  #important for SAPT in psi4, default
symmetry c1  #important for SAPT in psi4, default
}

set PROPERTIES_ORIGIN ["COM"]
properties('MP2/aug-cc-pvtz', properties = ['dipole'])
--------------------------------------------------------------------------

    Molecular point group: c1
  Charge       = 0
  Multiplicity = 1
  Basis Set: AUG-CC-PVTZ
    Blend: AUG-CC-PVTZ
  Basis Set: (AUG-CC-PVTZ AUX)
    Blend: AUG-CC-PVTZ-JKFIT

    Orbital Energies [Eh]
    ---------------------

    Doubly Occupied:

       1A    -20.582126     2A    -20.580897     3A    -20.557563
       4A    -20.557154     5A    -20.522878     6A    -15.638436
       7A    -15.600575     8A    -15.554331     9A    -11.389515
      10A    -11.358756    11A    -11.340536    12A    -11.329484
      13A    -11.300981    14A    -11.296622    15A    -11.296193
      16A    -11.292711    17A    -11.249559    18A     -1.429815
      19A     -1.397229    20A     -1.379841    21A     -1.372689
      22A     -1.345912    23A     -1.307494    24A     -1.276579
      25A     -1.183672    26A     -1.083623    27A     -1.067392
      28A     -1.020879    29A     -0.936058    30A     -0.911175
      31A     -0.878382    32A     -0.830811    33A     -0.812132
      34A     -0.768591    35A     -0.753861    36A     -0.735343
      37A     -0.720806    38A     -0.703364    39A     -0.698033
      40A     -0.686129    41A     -0.673352    42A     -0.653303
      43A     -0.651931    44A     -0.638423    45A     -0.620665
      46A     -0.615499    47A     -0.606113    48A     -0.595125
      49A     -0.575682    50A     -0.568432    51A     -0.554480
      52A     -0.546239    53A     -0.537530    54A     -0.530427
      55A     -0.498418    56A     -0.477380    57A     -0.474692
      58A     -0.462024    59A     -0.460164    60A     -0.451973
      61A     -0.439695    62A     -0.433836    63A     -0.395146
      64A     -0.350543

  @DF-RHF Final Energy:  -886.37229992543485

   => Energetics <=

    Nuclear Repulsion Energy =           1324.0668305614717610
    One-Electron Energy =               -3845.7598629087474364
    Two-Electron Energy =                1635.3207324218408303
    Total Energy =                       -886.3722999254348451
  Basis Set: (AUG-CC-PVTZ AUX)
    Blend: AUG-CC-PVTZ-RI
    Molecular point group: c1

    Geometry (in Angstrom), charge = 0, multiplicity = 1:

       Center              X                  Y                   Z               Mass
    ------------   -----------------  -----------------  -----------------  -----------------
         O           -1.248813830364    -0.651836955634     1.033305225942    15.994914619570
         O           -1.245687830364     2.483682044366    -0.685372774058    15.994914619570
         O           -3.217242830364     1.521930044366     0.745677225942    15.994914619570
         O           -2.357741830364    -3.066005955634     0.095730225942    15.994914619570
         O            1.359817169636     2.247865044366    -0.075751774058    15.994914619570
         N            0.842691169636     0.046054044366     0.256733225942    14.003074004430
         N            3.056513169636     0.721334044366    -0.292936774058    14.003074004430
         N            4.715750169636    -0.835823955634    -0.571507774058    14.003074004430
         C           -1.290196830364     1.079261044366    -0.591286774058    12.000000000000
         C           -2.715883830364     0.656038044366    -0.256602774058    12.000000000000
         C           -0.512697930364     0.466412744366     0.583999425942    12.000000000000
         C           -2.529968830364    -0.716054955634     0.361846225942    12.000000000000
         C           -2.529056830364    -1.849561955634    -0.638499774058    12.000000000000
         C            1.219062169636    -1.260576955634     0.312064225942    12.000000000000
         C            1.754881169636     1.068266044366    -0.058612774058    12.000000000000
         C            2.510388169636    -1.608308955634     0.047785225942    12.000000000000
         C            3.411270169636    -0.549821955634    -0.258134774058    12.000000000000
         H           -0.926217830364     0.581565744366    -1.503655574058     1.007825032230
         H           -3.363294830364     0.643496044366    -1.145674774058     1.007825032230
         H           -0.441002830364     1.222711044366     1.404788225942     1.007825032230
         H           -3.282669830364    -0.907902955634     1.131573225942     1.007825032230
         H           -1.714020830364    -1.699473955634    -1.368673774058     1.007825032230
         H           -3.486273830364    -1.833172955634    -1.183344774058     1.007825032230
         H           -0.298237830364     2.714010044366    -0.524209774058     1.007825032230
         H           -2.848268830364     2.400574044366     0.509453225942     1.007825032230
         H            0.433598169636    -1.962605955634     0.569858225942     1.007825032230
         H           -2.434586830364    -3.797600955634    -0.542442774058     1.007825032230
         H            2.828399169636    -2.644566955634     0.074712225942     1.007825032230
         H            5.124467169636    -1.670029955634    -0.161623774058     1.007825032230
         H            5.319101169636    -0.019222955634    -0.567503774058     1.007825032230

  Basis Set: AUG-CC-PVTZ
    Blend: AUG-CC-PVTZ
  Basis Set: (AUG-CC-PVTZ AUX)
    Blend: AUG-CC-PVTZ-JKFIT
	 Reference Energy          =    -886.3722999254348451 [Eh]
	 Singles Energy            =      -0.0000000000000000 [Eh]
	 Same-Spin Energy          =      -0.9014491322584470 [Eh]
	 Opposite-Spin Energy      =      -2.7151612841913679 [Eh]
	 Correlation Energy        =      -3.6166104164498147 [Eh]
	 Total Energy              =    -889.9889103418846616 [Eh]

	 ================> DF-SCS-MP2 Energies <==================
	-----------------------------------------------------------
	 SCS Same-Spin Scale       =       0.3333333333333333 [-]
	 SCS Opposite-Spin Scale   =       1.2000000000000000 [-]
	 SCS Same-Spin Energy      =      -0.3004830440861490 [Eh]
	 SCS Opposite-Spin Energy  =      -3.2581935410296414 [Eh]
	 SCS Correlation Energy    =      -3.5586765851157907 [Eh]
	 SCS Total Energy          =    -889.9309765105506358 [Eh]
	-----------------------------------------------------------

  Dipole Moment: [D]
     X:     1.7992      Y:    -5.9787      Z:    -1.8523     Total:     6.5125

*** Psi4 exiting successfully. Buy a developer a beer!
