                               Psi4 1.4a3.dev225

  ==> Input File <==

--------------------------------------------------------------------------
#psi4
#
memory 32 gb

molecule  {
0 1
  O       -1.3191770     0.6538360    -1.0992360
  O       -1.5735610    -2.4640850     0.5135810
  O       -3.5606630    -1.0699430    -0.4600060
  O       -1.4399290     3.1254620     0.1265180
  O        1.1065530    -2.3833650     0.0076020
  N        0.7686360    -0.1579440    -0.3706350
  N        2.9363770    -0.9938720     0.1460080
  N        4.7058880     0.4431110     0.3611260
  C       -1.3768610    -1.0680440     0.5552780
  C       -2.7379840    -0.3746360     0.4578480
  C       -0.6377490    -0.5042940    -0.6790150
  C       -2.3707440     0.9655450    -0.1585060
  C       -1.8992030     1.9895750     0.8571380
  C        1.2309690     1.1190800    -0.4442230
  C        1.6104480    -1.2470590    -0.0585760
  C        2.5474650     1.3753690    -0.1998620
  C        3.3802090     0.2523040     0.0808410
  H       -0.8441360    -0.7686950     1.4698480
  H       -3.2257400    -0.2778790     1.4400230
  H       -0.6227070    -1.2428120    -1.4883720
  H       -3.1941750     1.3785730    -0.7472070
  H       -1.0952130     1.5703990     1.4802000
  H       -2.7410530     2.2466610     1.5166010
  H       -0.6710550    -2.8260740     0.3542250
  H       -3.2933608    -2.0585510    -0.3579719
  H        0.4929290     1.8778260    -0.6840360
  H       -1.2098800     3.8154810     0.7720340
  H        2.9334840     2.3875570    -0.2389120
  H        5.1589650     1.2712730    -0.0008400
  H        5.2635310    -0.4031270     0.3606700
units angstrom
no_reorient  #important for SAPT in psi4, default
symmetry c1  #important for SAPT in psi4, default
}

set PROPERTIES_ORIGIN ["COM"]
properties('MP2/aug-cc-pvtz', properties = ['dipole'])
--------------------------------------------------------------------------

    Molecular point group: c1
  Charge       = 0
  Multiplicity = 1
  Basis Set: AUG-CC-PVTZ
    Blend: AUG-CC-PVTZ
  Basis Set: (AUG-CC-PVTZ AUX)
    Blend: AUG-CC-PVTZ-JKFIT

    Orbital Energies [Eh]
    ---------------------

    Doubly Occupied:

       1A    -20.586503     2A    -20.581115     3A    -20.560426
       4A    -20.558485     5A    -20.519803     6A    -15.632931
       7A    -15.599655     8A    -15.551760     9A    -11.385997
      10A    -11.358050    11A    -11.339484    12A    -11.325061
      13A    -11.303280    14A    -11.297485    15A    -11.296842
      16A    -11.292623    17A    -11.246512    18A     -1.428619
      19A     -1.393989    20A     -1.381793    21A     -1.373978
      22A     -1.339730    23A     -1.303655    24A     -1.271258
      25A     -1.181181    26A     -1.079290    27A     -1.066306
      28A     -1.016987    29A     -0.935524    30A     -0.906527
      31A     -0.876214    32A     -0.828899    33A     -0.811179
      34A     -0.766366    35A     -0.750175    36A     -0.735240
      37A     -0.721749    38A     -0.707512    39A     -0.700161
      40A     -0.685004    41A     -0.671226    42A     -0.653230
      43A     -0.648092    44A     -0.633003    45A     -0.619907
      46A     -0.614877    47A     -0.606780    48A     -0.593187
      49A     -0.576275    50A     -0.564149    51A     -0.555242
      52A     -0.547260    53A     -0.534953    54A     -0.530338
      55A     -0.495245    56A     -0.480711    57A     -0.472869
      58A     -0.462814    59A     -0.457596    60A     -0.452377
      61A     -0.441258    62A     -0.430181    63A     -0.392231
      64A     -0.348221

  @DF-RHF Final Energy:  -886.36903068172217

   => Energetics <=

    Nuclear Repulsion Energy =           1334.3100951156700376
    One-Electron Energy =               -3866.3995152274469547
    Two-Electron Energy =                1645.7203894300548654
    Total Energy =                       -886.3690306817222790
  Basis Set: (AUG-CC-PVTZ AUX)
    Blend: AUG-CC-PVTZ-RI
    Molecular point group: c1

    Geometry (in Angstrom), charge = 0, multiplicity = 1:

       Center              X                  Y                   Z               Mass
    ------------   -----------------  -----------------  -----------------  -----------------
         O           -1.331974495179     0.682646593492    -1.083476341076    15.994914619570
         O           -1.586358495179    -2.435274406508     0.529340658924    15.994914619570
         O           -3.573460495179    -1.041132406508    -0.444246341076    15.994914619570
         O           -1.452726495179     3.154272593492     0.142277658924    15.994914619570
         O            1.093755504821    -2.354554406508     0.023361658924    15.994914619570
         N            0.755838504821    -0.129133406508    -0.354875341076    14.003074004430
         N            2.923579504821    -0.965061406508     0.161767658924    14.003074004430
         N            4.693090504821     0.471921593492     0.376885658924    14.003074004430
         C           -1.389658495179    -1.039233406508     0.571037658924    12.000000000000
         C           -2.750781495179    -0.345825406508     0.473607658924    12.000000000000
         C           -0.650546495179    -0.475483406508    -0.663255341076    12.000000000000
         C           -2.383541495179     0.994355593492    -0.142746341076    12.000000000000
         C           -1.912000495179     2.018385593492     0.872897658924    12.000000000000
         C            1.218171504821     1.147890593492    -0.428463341076    12.000000000000
         C            1.597650504821    -1.218248406508    -0.042816341076    12.000000000000
         C            2.534667504821     1.404179593492    -0.184102341076    12.000000000000
         C            3.367411504821     0.281114593492     0.096600658924    12.000000000000
         H           -0.856933495179    -0.739884406508     1.485607658924     1.007825032230
         H           -3.238537495179    -0.249068406508     1.455782658924     1.007825032230
         H           -0.635504495179    -1.214001406508    -1.472612341076     1.007825032230
         H           -3.206972495179     1.407383593492    -0.731447341076     1.007825032230
         H           -1.108010495179     1.599209593492     1.495959658924     1.007825032230
         H           -2.753850495179     2.275471593492     1.532360658924     1.007825032230
         H           -0.683852495179    -2.797263406508     0.369984658924     1.007825032230
         H           -3.306158295179    -2.029740406508    -0.342212241076     1.007825032230
         H            0.480131504821     1.906636593492    -0.668276341076     1.007825032230
         H           -1.222677495179     3.844291593492     0.787793658924     1.007825032230
         H            2.920686504821     2.416367593492    -0.223152341076     1.007825032230
         H            5.146167504821     1.300083593492     0.014919658924     1.007825032230
         H            5.250733504821    -0.374316406508     0.376429658924     1.007825032230

  Basis Set: AUG-CC-PVTZ
    Blend: AUG-CC-PVTZ
  Basis Set: (AUG-CC-PVTZ AUX)
    Blend: AUG-CC-PVTZ-JKFIT
	 Reference Energy          =    -886.3690306817221654 [Eh]
	 Singles Energy            =      -0.0000000000000000 [Eh]
	 Same-Spin Energy          =      -0.9025717426665882 [Eh]
	 Opposite-Spin Energy      =      -2.7175579244263677 [Eh]
	 Correlation Energy        =      -3.6201296670929559 [Eh]
	 Total Energy              =    -889.9891603488151759 [Eh]

	 ================> DF-SCS-MP2 Energies <==================
	-----------------------------------------------------------
	 SCS Same-Spin Scale       =       0.3333333333333333 [-]
	 SCS Opposite-Spin Scale   =       1.2000000000000000 [-]
	 SCS Same-Spin Energy      =      -0.3008572475555294 [Eh]
	 SCS Opposite-Spin Energy  =      -3.2610695093116413 [Eh]
	 SCS Correlation Energy    =      -3.5619267568671709 [Eh]
	 SCS Total Energy          =    -889.9309574385893029 [Eh]
	-----------------------------------------------------------

  Dipole Moment: [D]
     X:     2.7650      Y:     5.7372      Z:     1.9520     Total:     6.6612

*** Psi4 exiting successfully. Buy a developer a beer!
