                               Psi4 1.3.2 release

  ==> Input File <==

--------------------------------------------------------------------------
#psi4
#
memory 32 gb

molecule  {
0 1
  O       -1.2481010    -0.6526680     1.0325150
  O       -1.2449750     2.4828510    -0.6861630
  O       -3.2165300     1.5210990     0.7448870
  O       -2.3570290    -3.0668370     0.0949400
  O        1.3605300     2.2470340    -0.0765420
  N        0.8434040     0.0452230     0.2559430
  N        3.0572260     0.7205030    -0.2937270
  N        4.7164630    -0.8366550    -0.5722980
  C       -1.2894840     1.0784300    -0.5920770
  C       -2.7117461     0.7021569    -0.1929483
  C       -0.5254080     0.4815200     0.6000940
  C       -2.5292560    -0.7168860     0.3610560
  C       -2.5283440    -1.8503930    -0.6392900
  C        1.2197750    -1.2614080     0.3112740
  C        1.7555940     1.0674350    -0.0594030
  C        2.5111010    -1.6091400     0.0469950
  C        3.4119830    -0.5506530    -0.2589250
  H       -0.8874204     0.6190597    -1.5085495
  H       -3.3625820     0.6426650    -1.1464650
  H       -0.4402900     1.2218800     1.4039980
  H       -3.2819570    -0.9087340     1.1307830
  H       -1.7133080    -1.7003050    -1.3694640
  H       -3.4855610    -1.8340040    -1.1841350
  H       -0.2975250     2.7131790    -0.5250000
  H       -2.8475560     2.3997430     0.5086630
  H        0.4343110    -1.9634370     0.5690680
  H       -2.4338740    -3.7984320    -0.5432330
  H        2.8291120    -2.6453980     0.0739220
  H        5.1251800    -1.6708610    -0.1624140
  H        5.3198140    -0.0200540    -0.5682940
units angstrom
no_reorient  #important for SAPT in psi4, default
symmetry c1  #important for SAPT in psi4, default
}

set PROPERTIES_ORIGIN ["COM"]
properties('MP2/aug-cc-pvtz', properties = ['dipole'])
--------------------------------------------------------------------------

    Molecular point group: c1
  Charge       = 0
  Multiplicity = 1
  Basis Set: AUG-CC-PVTZ
    Blend: AUG-CC-PVTZ
  Basis Set: (AUG-CC-PVTZ AUX)
    Blend: AUG-CC-PVTZ-JKFIT

    Orbital Energies [Eh]
    ---------------------

    Doubly Occupied:

       1A    -20.581760     2A    -20.579738     3A    -20.566437
       4A    -20.556353     5A    -20.521883     6A    -15.636513
       7A    -15.599669     8A    -15.553158     9A    -11.388065
      10A    -11.357635    11A    -11.339844    12A    -11.328133
      13A    -11.300574    14A    -11.296442    15A    -11.294945
      16A    -11.294656    17A    -11.248235    18A     -1.432833
      19A     -1.401972    20A     -1.392307    21A     -1.373146
      22A     -1.357513    23A     -1.305843    24A     -1.273508
      25A     -1.182031    26A     -1.081628    27A     -1.060630
      28A     -1.020794    29A     -0.934220    30A     -0.909157
      31A     -0.877273    32A     -0.832743    33A     -0.808444
      34A     -0.766928    35A     -0.751441    36A     -0.738872
      37A     -0.719920    38A     -0.711980    39A     -0.701110
      40A     -0.685679    41A     -0.675197    42A     -0.654009
      43A     -0.652154    44A     -0.638345    45A     -0.621107
      46A     -0.613353    47A     -0.609053    48A     -0.593073
      49A     -0.580609    50A     -0.571264    51A     -0.560814
      52A     -0.549592    53A     -0.538159    54A     -0.531573
      55A     -0.497859    56A     -0.475963    57A     -0.469876
      58A     -0.461558    59A     -0.458131    60A     -0.450042
      61A     -0.433644    62A     -0.432333    63A     -0.394433
      64A     -0.349446

  @DF-RHF Final Energy:  -886.36658834582386

   => Energetics <=

    Nuclear Repulsion Energy =           1324.4578732312113516
    One-Electron Energy =               -3846.4977187763843176
    Two-Electron Energy =                1635.6732571993493366
    Total Energy =                       -886.3665883458238568
  Basis Set: (AUG-CC-PVTZ AUX)
    Blend: AUG-CC-PVTZ-RI
    Molecular point group: c1

    Geometry (in Angstrom), charge = 0, multiplicity = 1:

       Center              X                  Y                   Z               Mass
    ------------   -----------------  -----------------  -----------------  -----------------
         O           -1.248478173240    -0.655100347434     1.029307381125    15.994914619570
         O           -1.245352173240     2.480418652566    -0.689370618875    15.994914619570
         O           -3.216907173240     1.518666652566     0.741679381125    15.994914619570
         O           -2.357406173240    -3.069269347434     0.091732381125    15.994914619570
         O            1.360152826760     2.244601652566    -0.079749618875    15.994914619570
         N            0.843026826760     0.042790652566     0.252735381125    14.003074004430
         N            3.056848826760     0.718070652566    -0.296934618875    14.003074004430
         N            4.716085826760    -0.839087347434    -0.575505618875    14.003074004430
         C           -1.289861173240     1.075997652566    -0.595284618875    12.000000000000
         C           -2.712123273240     0.699724552566    -0.196155918875    12.000000000000
         C           -0.525785173240     0.479087652566     0.596886381125    12.000000000000
         C           -2.529633173240    -0.719318347434     0.357848381125    12.000000000000
         C           -2.528721173240    -1.852825347434    -0.642497618875    12.000000000000
         C            1.219397826760    -1.263840347434     0.308066381125    12.000000000000
         C            1.755216826760     1.065002652566    -0.062610618875    12.000000000000
         C            2.510723826760    -1.611572347434     0.043787381125    12.000000000000
         C            3.411605826760    -0.553085347434    -0.262132618875    12.000000000000
         H           -0.887797573240     0.616627352566    -1.511757118875     1.007825032230
         H           -3.362959173240     0.640232652566    -1.149672618875     1.007825032230
         H           -0.440667173240     1.219447652566     1.400790381125     1.007825032230
         H           -3.282334173240    -0.911166347434     1.127575381125     1.007825032230
         H           -1.713685173240    -1.702737347434    -1.372671618875     1.007825032230
         H           -3.485938173240    -1.836436347434    -1.187342618875     1.007825032230
         H           -0.297902173240     2.710746652566    -0.528207618875     1.007825032230
         H           -2.847933173240     2.397310652566     0.505455381125     1.007825032230
         H            0.433933826760    -1.965869347434     0.565860381125     1.007825032230
         H           -2.434251173240    -3.800864347434    -0.546440618875     1.007825032230
         H            2.828734826760    -2.647830347434     0.070714381125     1.007825032230
         H            5.124802826760    -1.673293347434    -0.165621618875     1.007825032230
         H            5.319436826760    -0.022486347434    -0.571501618875     1.007825032230

  Basis Set: AUG-CC-PVTZ
    Blend: AUG-CC-PVTZ
  Basis Set: (AUG-CC-PVTZ AUX)
    Blend: AUG-CC-PVTZ-JKFIT
	 Reference Energy          =    -886.3665883458238568 [Eh]
	 Singles Energy            =      -0.0000000000000000 [Eh]
	 Same-Spin Energy          =      -0.9015072738645340 [Eh]
	 Opposite-Spin Energy      =      -2.7143840127465979 [Eh]
	 Correlation Energy        =      -3.6158912866111317 [Eh]
	 Total Energy              =    -889.9824796324350018 [Eh]

	 ================> DF-SCS-MP2 Energies <==================
	-----------------------------------------------------------
	 SCS Same-Spin Scale       =       0.3333333333333333 [-]
	 SCS Opposite-Spin Scale   =       1.2000000000000000 [-]
	 SCS Same-Spin Energy      =      -0.3005024246215113 [Eh]
	 SCS Opposite-Spin Energy  =      -3.2572608152959175 [Eh]
	 SCS Correlation Energy    =      -3.5577632399174286 [Eh]
	 SCS Total Energy          =    -889.9243515857413058 [Eh]
	-----------------------------------------------------------

  Dipole Moment: [D]
     X:     1.6677      Y:    -5.7750      Z:    -1.6197     Total:     6.2254

*** Psi4 exiting successfully. Buy a developer a beer!
