                               Psi4 1.3.2 release

  ==> Input File <==

--------------------------------------------------------------------------
#psi4
#
memory 32 gb

molecule  {
0 1
  O       -1.2481010    -0.6526680     1.0325150
  O       -1.2449750     2.4828510    -0.6861630
  O       -3.2155196     1.4833492     0.7767863
  O       -2.3570290    -3.0668370     0.0949400
  O        1.3605300     2.2470340    -0.0765420
  N        0.8434040     0.0452230     0.2559430
  N        3.0572260     0.7205030    -0.2937270
  N        4.7164630    -0.8366550    -0.5722980
  C       -1.2894840     1.0784300    -0.5920770
  C       -2.7151710     0.6552070    -0.2573930
  C       -0.5254080     0.4815200     0.6000940
  C       -2.5469618    -0.6975399     0.4070347
  C       -2.5283440    -1.8503930    -0.6392900
  C        1.2197750    -1.2614080     0.3112740
  C        1.7555940     1.0674350    -0.0594030
  C        2.5111010    -1.6091400     0.0469950
  C        3.4119830    -0.5506530    -0.2589250
  H       -0.9376060     0.5914040    -1.5148910
  H       -3.3625820     0.6426650    -1.1464650
  H       -0.4402900     1.2218800     1.4039980
  H       -3.2819570    -0.9087340     1.1307830
  H       -1.7133080    -1.7003050    -1.3694640
  H       -3.4855610    -1.8340040    -1.1841350
  H       -0.2975250     2.7131790    -0.5250000
  H       -2.8475560     2.3997430     0.5086630
  H        0.4343110    -1.9634370     0.5690680
  H       -2.4338740    -3.7984320    -0.5432330
  H        2.8291120    -2.6453980     0.0739220
  H        5.1251800    -1.6708610    -0.1624140
  H        5.3198140    -0.0200540    -0.5682940
units angstrom
no_reorient  #important for SAPT in psi4, default
symmetry c1  #important for SAPT in psi4, default
}

set PROPERTIES_ORIGIN ["COM"]
properties('MP2/aug-cc-pvtz', properties = ['dipole'])
--------------------------------------------------------------------------

    Molecular point group: c1
  Charge       = 0
  Multiplicity = 1
  Basis Set: AUG-CC-PVTZ
    Blend: AUG-CC-PVTZ
  Basis Set: (AUG-CC-PVTZ AUX)
    Blend: AUG-CC-PVTZ-JKFIT

    Orbital Energies [Eh]
    ---------------------

    Doubly Occupied:

       1A    -20.581317     2A    -20.579913     3A    -20.561216
       4A    -20.558665     5A    -20.522265     6A    -15.637278
       7A    -15.599930     8A    -15.553495     9A    -11.388544
      10A    -11.357968    11A    -11.342012    12A    -11.328573
      13A    -11.299653    14A    -11.297173    15A    -11.294626
      16A    -11.291722    17A    -11.248586    18A     -1.429574
      19A     -1.396496    20A     -1.377681    21A     -1.370723
      22A     -1.343779    23A     -1.306250    24A     -1.273980
      25A     -1.182388    26A     -1.082008    27A     -1.060508
      28A     -1.019737    29A     -0.931147    30A     -0.909298
      31A     -0.877073    32A     -0.833718    33A     -0.812983
      34A     -0.767314    35A     -0.752658    36A     -0.736447
      37A     -0.719901    38A     -0.701310    39A     -0.694214
      40A     -0.685599    41A     -0.668343    42A     -0.654395
      43A     -0.650275    44A     -0.638819    45A     -0.620482
      46A     -0.613081    47A     -0.605052    48A     -0.593783
      49A     -0.576805    50A     -0.574135    51A     -0.552619
      52A     -0.543681    53A     -0.538854    54A     -0.528550
      55A     -0.499008    56A     -0.478702    57A     -0.474595
      58A     -0.460610    59A     -0.457784    60A     -0.452206
      61A     -0.438416    62A     -0.432545    63A     -0.395215
      64A     -0.350121

  @DF-RHF Final Energy:  -886.36574169539199

   => Energetics <=

    Nuclear Repulsion Energy =           1323.3635250539452954
    One-Electron Energy =               -3844.4469422507531817
    Two-Electron Energy =                1634.7176755014161245
    Total Energy =                       -886.3657416953919892
  Basis Set: (AUG-CC-PVTZ AUX)
    Blend: AUG-CC-PVTZ-RI
    Molecular point group: c1

    Geometry (in Angstrom), charge = 0, multiplicity = 1:

       Center              X                  Y                   Z               Mass
    ------------   -----------------  -----------------  -----------------  -----------------
         O           -1.247293464905    -0.651139097367     1.028146294044    15.994914619570
         O           -1.244167464905     2.484379902633    -0.690531705956    15.994914619570
         O           -3.214712064905     1.484878102633     0.772417594044    15.994914619570
         O           -2.356221464905    -3.065308097367     0.090571294044    15.994914619570
         O            1.361337535095     2.248562902633    -0.080910705956    15.994914619570
         N            0.844211535095     0.046751902633     0.251574294044    14.003074004430
         N            3.058033535095     0.722031902633    -0.298095705956    14.003074004430
         N            4.717270535095    -0.835126097367    -0.576666705956    14.003074004430
         C           -1.288676464905     1.079958902633    -0.596445705956    12.000000000000
         C           -2.714363464905     0.656735902633    -0.261761705956    12.000000000000
         C           -0.524600464905     0.483048902633     0.595725294044    12.000000000000
         C           -2.546154264905    -0.696010997367     0.402665994044    12.000000000000
         C           -2.527536464905    -1.848864097367    -0.643658705956    12.000000000000
         C            1.220582535095    -1.259879097367     0.306905294044    12.000000000000
         C            1.756401535095     1.068963902633    -0.063771705956    12.000000000000
         C            2.511908535095    -1.607611097367     0.042626294044    12.000000000000
         C            3.412790535095    -0.549124097367    -0.263293705956    12.000000000000
         H           -0.936798464905     0.592932902633    -1.519259705956     1.007825032230
         H           -3.361774464905     0.644193902633    -1.150833705956     1.007825032230
         H           -0.439482464905     1.223408902633     1.399629294044     1.007825032230
         H           -3.281149464905    -0.907205097367     1.126414294044     1.007825032230
         H           -1.712500464905    -1.698776097367    -1.373832705956     1.007825032230
         H           -3.484753464905    -1.832475097367    -1.188503705956     1.007825032230
         H           -0.296717464905     2.714707902633    -0.529368705956     1.007825032230
         H           -2.846748464905     2.401271902633     0.504294294044     1.007825032230
         H            0.435118535095    -1.961908097367     0.564699294044     1.007825032230
         H           -2.433066464905    -3.796903097367    -0.547601705956     1.007825032230
         H            2.829919535095    -2.643869097367     0.069553294044     1.007825032230
         H            5.125987535095    -1.669332097367    -0.166782705956     1.007825032230
         H            5.320621535095    -0.018525097367    -0.572662705956     1.007825032230

  Basis Set: AUG-CC-PVTZ
    Blend: AUG-CC-PVTZ
  Basis Set: (AUG-CC-PVTZ AUX)
    Blend: AUG-CC-PVTZ-JKFIT
	 Reference Energy          =    -886.3657416953919892 [Eh]
	 Singles Energy            =      -0.0000000000000000 [Eh]
	 Same-Spin Energy          =      -0.9016082553813114 [Eh]
	 Opposite-Spin Energy      =      -2.7163437272430904 [Eh]
	 Correlation Energy        =      -3.6179519826244020 [Eh]
	 Total Energy              =    -889.9836936780163796 [Eh]

	 ================> DF-SCS-MP2 Energies <==================
	-----------------------------------------------------------
	 SCS Same-Spin Scale       =       0.3333333333333333 [-]
	 SCS Opposite-Spin Scale   =       1.2000000000000000 [-]
	 SCS Same-Spin Energy      =      -0.3005360851271038 [Eh]
	 SCS Opposite-Spin Energy  =      -3.2596124726917082 [Eh]
	 SCS Correlation Energy    =      -3.5601485578188119 [Eh]
	 SCS Total Energy          =    -889.9258902532108095 [Eh]
	-----------------------------------------------------------

  Dipole Moment: [D]
     X:     1.7179      Y:    -5.8290      Z:    -1.8035     Total:     6.3388

*** Psi4 exiting successfully. Buy a developer a beer!
