                               Psi4 1.3.2 release

  ==> Input File <==

--------------------------------------------------------------------------
#psi4
#
memory 32 gb

molecule  {
0 1
  O       -1.2481010    -0.6526680     1.0325150
  O       -1.2449750     2.4828510    -0.6861630
  O       -3.2165300     1.5210990     0.7448870
  O       -2.3570290    -3.0668370     0.0949400
  O        1.3605300     2.2470340    -0.0765420
  N        0.8434040     0.0452230     0.2559430
  N        3.0572260     0.7205030    -0.2937270
  N        4.7164630    -0.8366550    -0.5722980
  C       -1.2894840     1.0784300    -0.5920770
  C       -2.7151710     0.6552070    -0.2573930
  C       -0.5115097     0.5301189     0.5898984
  C       -2.5292560    -0.7168860     0.3610560
  C       -2.5283440    -1.8503930    -0.6392900
  C        1.2632360    -1.2486310     0.2969817
  C        1.7555940     1.0674350    -0.0594030
  C        2.5111010    -1.6091400     0.0469950
  C        3.4119830    -0.5506530    -0.2589250
  H       -0.9376060     0.5914040    -1.5148910
  H       -3.3625820     0.6426650    -1.1464650
  H       -0.4402900     1.2218800     1.4039980
  H       -3.2819570    -0.9087340     1.1307830
  H       -1.7133080    -1.7003050    -1.3694640
  H       -3.4855610    -1.8340040    -1.1841350
  H       -0.2975250     2.7131790    -0.5250000
  H       -2.8475560     2.3997430     0.5086630
  H        0.4343110    -1.9634370     0.5690680
  H       -2.4338740    -3.7984320    -0.5432330
  H        2.8291120    -2.6453980     0.0739220
  H        5.1251800    -1.6708610    -0.1624140
  H        5.3198140    -0.0200540    -0.5682940
units angstrom
no_reorient  #important for SAPT in psi4, default
symmetry c1  #important for SAPT in psi4, default
}

set PROPERTIES_ORIGIN ["COM"]
properties('MP2/aug-cc-pvtz', properties = ['dipole'])
--------------------------------------------------------------------------

    Molecular point group: c1
  Charge       = 0
  Multiplicity = 1
  Basis Set: AUG-CC-PVTZ
    Blend: AUG-CC-PVTZ
  Basis Set: (AUG-CC-PVTZ AUX)
    Blend: AUG-CC-PVTZ-JKFIT

    Orbital Energies [Eh]
    ---------------------

    Doubly Occupied:

       1A    -20.580021     2A    -20.575978     3A    -20.557449
       4A    -20.556822     5A    -20.522714     6A    -15.635555
       7A    -15.601738     8A    -15.553940     9A    -11.387319
      10A    -11.359598    11A    -11.342703    12A    -11.324828
      13A    -11.298630    14A    -11.296954    15A    -11.293212
      16A    -11.292448    17A    -11.246104    18A     -1.420240
      19A     -1.394232    20A     -1.378395    21A     -1.367512
      22A     -1.346258    23A     -1.307750    24A     -1.273283
      25A     -1.183257    26A     -1.091801    27A     -1.063591
      28A     -1.024277    29A     -0.936185    30A     -0.902995
      31A     -0.878623    32A     -0.835180    33A     -0.808388
      34A     -0.768583    35A     -0.751515    36A     -0.737557
      37A     -0.718757    38A     -0.701690    39A     -0.696187
      40A     -0.680871    41A     -0.671311    42A     -0.654163
      43A     -0.652419    44A     -0.638797    45A     -0.617807
      46A     -0.609601    47A     -0.605371    48A     -0.594663
      49A     -0.571887    50A     -0.567854    51A     -0.553122
      52A     -0.543887    53A     -0.537397    54A     -0.531072
      55A     -0.500041    56A     -0.475835    57A     -0.473186
      58A     -0.461343    59A     -0.458735    60A     -0.452430
      61A     -0.443393    62A     -0.432412    63A     -0.397098
      64A     -0.356920

  @DF-RHF Final Energy:  -886.36740753837921

   => Energetics <=

    Nuclear Repulsion Energy =           1323.6901580827641283
    One-Electron Energy =               -3845.1273581925333929
    Two-Electron Energy =                1635.0697925713898258
    Total Energy =                       -886.3674075383792115
  Basis Set: (AUG-CC-PVTZ AUX)
    Blend: AUG-CC-PVTZ-RI
    Molecular point group: c1

    Geometry (in Angstrom), charge = 0, multiplicity = 1:

       Center              X                  Y                   Z               Mass
    ------------   -----------------  -----------------  -----------------  -----------------
         O           -1.250932595432    -0.655697832192     1.033723861054    15.994914619570
         O           -1.247806595432     2.479821167808    -0.684954138946    15.994914619570
         O           -3.219361595432     1.518069167808     0.746095861054    15.994914619570
         O           -2.359860595432    -3.069866832192     0.096148861054    15.994914619570
         O            1.357698404568     2.244004167808    -0.075333138946    15.994914619570
         N            0.840572404568     0.042193167808     0.257151861054    14.003074004430
         N            3.054394404568     0.717473167808    -0.292518138946    14.003074004430
         N            4.713631404568    -0.839684832192    -0.571089138946    14.003074004430
         C           -1.292315595432     1.075400167808    -0.590868138946    12.000000000000
         C           -2.718002595432     0.652177167808    -0.256184138946    12.000000000000
         C           -0.514341295432     0.527089067808     0.591107261054    12.000000000000
         C           -2.532087595432    -0.719915832192     0.362264861054    12.000000000000
         C           -2.531175595432    -1.853422832192    -0.638081138946    12.000000000000
         C            1.260404404568    -1.251660832192     0.298190561054    12.000000000000
         C            1.752762404568     1.064405167808    -0.058194138946    12.000000000000
         C            2.508269404568    -1.612169832192     0.048203861054    12.000000000000
         C            3.409151404568    -0.553682832192    -0.257716138946    12.000000000000
         H           -0.940437595432     0.588374167808    -1.513682138946     1.007825032230
         H           -3.365413595432     0.639635167808    -1.145256138946     1.007825032230
         H           -0.443121595432     1.218850167808     1.405206861054     1.007825032230
         H           -3.284788595432    -0.911763832192     1.131991861054     1.007825032230
         H           -1.716139595432    -1.703334832192    -1.368255138946     1.007825032230
         H           -3.488392595432    -1.837033832192    -1.182926138946     1.007825032230
         H           -0.300356595432     2.710149167808    -0.523791138946     1.007825032230
         H           -2.850387595432     2.396713167808     0.509871861054     1.007825032230
         H            0.431479404568    -1.966466832192     0.570276861054     1.007825032230
         H           -2.436705595432    -3.801461832192    -0.542024138946     1.007825032230
         H            2.826280404568    -2.648427832192     0.075130861054     1.007825032230
         H            5.122348404568    -1.673890832192    -0.161205138946     1.007825032230
         H            5.316982404568    -0.023083832192    -0.567085138946     1.007825032230

  Basis Set: AUG-CC-PVTZ
    Blend: AUG-CC-PVTZ
  Basis Set: (AUG-CC-PVTZ AUX)
    Blend: AUG-CC-PVTZ-JKFIT
	 Reference Energy          =    -886.3674075383792115 [Eh]
	 Singles Energy            =      -0.0000000000000000 [Eh]
	 Same-Spin Energy          =      -0.9010029030006086 [Eh]
	 Opposite-Spin Energy      =      -2.7152306153953694 [Eh]
	 Correlation Energy        =      -3.6162335183959780 [Eh]
	 Total Energy              =    -889.9836410567752409 [Eh]

	 ================> DF-SCS-MP2 Energies <==================
	-----------------------------------------------------------
	 SCS Same-Spin Scale       =       0.3333333333333333 [-]
	 SCS Opposite-Spin Scale   =       1.2000000000000000 [-]
	 SCS Same-Spin Energy      =      -0.3003343010002029 [Eh]
	 SCS Opposite-Spin Energy  =      -3.2582767384744433 [Eh]
	 SCS Correlation Energy    =      -3.5586110394746462 [Eh]
	 SCS Total Energy          =    -889.9260185778538244 [Eh]
	-----------------------------------------------------------

  Dipole Moment: [D]
     X:     1.9455      Y:    -5.8419      Z:    -1.8561     Total:     6.4310

*** Psi4 exiting successfully. Buy a developer a beer!
