                               Psi4 1.3.2 release

  ==> Input File <==

--------------------------------------------------------------------------
#psi4
#
memory 32 gb

molecule  {
0 1
  O       -1.2481010    -0.6526680     1.0325150
  O       -1.2449750     2.4828510    -0.6861630
  O       -3.2165300     1.5210990     0.7448870
  O       -2.3570290    -3.0668370     0.0949400
  O        1.3605300     2.2470340    -0.0765420
  N        0.8336303     0.0294254     0.2380628
  N        3.0572260     0.7205030    -0.2937270
  N        4.7164630    -0.8366550    -0.5722980
  C       -1.2894840     1.0784300    -0.5920770
  C       -2.7151710     0.6552070    -0.2573930
  C       -0.5254080     0.4815200     0.6000940
  C       -2.5292560    -0.7168860     0.3610560
  C       -2.5283440    -1.8503930    -0.6392900
  C        1.2197750    -1.2614080     0.3112740
  C        1.7555940     1.0674350    -0.0594030
  C        2.5111010    -1.6091400     0.0469950
  C        3.4119830    -0.5506530    -0.2589250
  H       -0.9376060     0.5914040    -1.5148910
  H       -3.3625820     0.6426650    -1.1464650
  H       -0.4593394     1.2236478     1.4041592
  H       -3.2819570    -0.9087340     1.1307830
  H       -1.7133080    -1.7003050    -1.3694640
  H       -3.4855610    -1.8340040    -1.1841350
  H       -0.2975250     2.7131790    -0.5250000
  H       -2.8475560     2.3997430     0.5086630
  H        0.4343110    -1.9634370     0.5690680
  H       -2.4338740    -3.7984320    -0.5432330
  H        2.8291120    -2.6453980     0.0739220
  H        5.1251800    -1.6708610    -0.1624140
  H        5.3198140    -0.0200540    -0.5682940
units angstrom
no_reorient  #important for SAPT in psi4, default
symmetry c1  #important for SAPT in psi4, default
}

set PROPERTIES_ORIGIN ["COM"]
properties('MP2/aug-cc-pvtz', properties = ['dipole'])
--------------------------------------------------------------------------

    Molecular point group: c1
  Charge       = 0
  Multiplicity = 1
  Basis Set: AUG-CC-PVTZ
    Blend: AUG-CC-PVTZ
  Basis Set: (AUG-CC-PVTZ AUX)
    Blend: AUG-CC-PVTZ-JKFIT

    Orbital Energies [Eh]
    ---------------------

    Doubly Occupied:

       1A    -20.582043     2A    -20.580992     3A    -20.557947
       4A    -20.557547     5A    -20.524247     6A    -15.637628
       7A    -15.599630     8A    -15.553471     9A    -11.390316
      10A    -11.357681    11A    -11.341894    12A    -11.327511
      13A    -11.300977    14A    -11.296670    15A    -11.296406
      16A    -11.292897    17A    -11.247030    18A     -1.429388
      19A     -1.396278    20A     -1.380223    21A     -1.372756
      22A     -1.346525    23A     -1.307031    24A     -1.274806
      25A     -1.182469    26A     -1.081480    27A     -1.067597
      28A     -1.021021    29A     -0.935488    30A     -0.908104
      31A     -0.877534    32A     -0.832248    33A     -0.811770
      34A     -0.766697    35A     -0.753166    36A     -0.736965
      37A     -0.720008    38A     -0.702588    39A     -0.698492
      40A     -0.685256    41A     -0.672775    42A     -0.654230
      43A     -0.651755    44A     -0.637566    45A     -0.620759
      46A     -0.613851    47A     -0.606691    48A     -0.595706
      49A     -0.575365    50A     -0.569311    51A     -0.554247
      52A     -0.545824    53A     -0.537604    54A     -0.531945
      55A     -0.500344    56A     -0.477448    57A     -0.474499
      58A     -0.462851    59A     -0.460475    60A     -0.452906
      61A     -0.440397    62A     -0.432836    63A     -0.395630
      64A     -0.348982

  @DF-RHF Final Energy:  -886.37280196898496

   => Energetics <=

    Nuclear Repulsion Energy =           1323.7645832989774135
    One-Electron Energy =               -3845.1812280956401082
    Two-Electron Energy =                1635.0438428276777358
    Total Energy =                       -886.3728019689849589
  Basis Set: (AUG-CC-PVTZ AUX)
    Blend: AUG-CC-PVTZ-RI
    Molecular point group: c1

    Geometry (in Angstrom), charge = 0, multiplicity = 1:

       Center              X                  Y                   Z               Mass
    ------------   -----------------  -----------------  -----------------  -----------------
         O           -1.247459036395    -0.651765289740     1.033544337824    15.994914619570
         O           -1.244333036395     2.483753710260    -0.685133662176    15.994914619570
         O           -3.215888036395     1.522001710260     0.745916337824    15.994914619570
         O           -2.356387036395    -3.065934289740     0.095969337824    15.994914619570
         O            1.361171963605     2.247936710260    -0.075512662176    15.994914619570
         N            0.834272263605     0.030328110260     0.239092137824    14.003074004430
         N            3.057867963605     0.721405710260    -0.292697662176    14.003074004430
         N            4.717104963605    -0.835752289740    -0.571268662176    14.003074004430
         C           -1.288842036395     1.079332710260    -0.591047662176    12.000000000000
         C           -2.714529036395     0.656109710260    -0.256363662176    12.000000000000
         C           -0.524766036395     0.482422710260     0.601123337824    12.000000000000
         C           -2.528614036395    -0.715983289740     0.362085337824    12.000000000000
         C           -2.527702036395    -1.849490289740    -0.638260662176    12.000000000000
         C            1.220416963605    -1.260505289740     0.312303337824    12.000000000000
         C            1.756235963605     1.068337710260    -0.058373662176    12.000000000000
         C            2.511742963605    -1.608237289740     0.048024337824    12.000000000000
         C            3.412624963605    -0.549750289740    -0.257895662176    12.000000000000
         H           -0.936964036395     0.592306710260    -1.513861662176     1.007825032230
         H           -3.361940036395     0.643567710260    -1.145435662176     1.007825032230
         H           -0.458697436395     1.224550510260     1.405188537824     1.007825032230
         H           -3.281315036395    -0.907831289740     1.131812337824     1.007825032230
         H           -1.712666036395    -1.699402289740    -1.368434662176     1.007825032230
         H           -3.484919036395    -1.833101289740    -1.183105662176     1.007825032230
         H           -0.296883036395     2.714081710260    -0.523970662176     1.007825032230
         H           -2.846914036395     2.400645710260     0.509692337824     1.007825032230
         H            0.434952963605    -1.962534289740     0.570097337824     1.007825032230
         H           -2.433232036395    -3.797529289740    -0.542203662176     1.007825032230
         H            2.829753963605    -2.644495289740     0.074951337824     1.007825032230
         H            5.125821963605    -1.669958289740    -0.161384662176     1.007825032230
         H            5.320455963605    -0.019151289740    -0.567264662176     1.007825032230

  Basis Set: AUG-CC-PVTZ
    Blend: AUG-CC-PVTZ
  Basis Set: (AUG-CC-PVTZ AUX)
    Blend: AUG-CC-PVTZ-JKFIT
	 Reference Energy          =    -886.3728019689849589 [Eh]
	 Singles Energy            =      -0.0000000000000000 [Eh]
	 Same-Spin Energy          =      -0.9013471784066651 [Eh]
	 Opposite-Spin Energy      =      -2.7150860671572330 [Eh]
	 Correlation Energy        =      -3.6164332455638979 [Eh]
	 Total Energy              =    -889.9892352145488985 [Eh]

	 ================> DF-SCS-MP2 Energies <==================
	-----------------------------------------------------------
	 SCS Same-Spin Scale       =       0.3333333333333333 [-]
	 SCS Opposite-Spin Scale   =       1.2000000000000000 [-]
	 SCS Same-Spin Energy      =      -0.3004490594688883 [Eh]
	 SCS Opposite-Spin Energy  =      -3.2581032805886796 [Eh]
	 SCS Correlation Energy    =      -3.5585523400575680 [Eh]
	 SCS Total Energy          =    -889.9313543090424901 [Eh]
	-----------------------------------------------------------

  Dipole Moment: [D]
     X:     1.7024      Y:    -5.8743      Z:    -1.8181     Total:     6.3806

*** Psi4 exiting successfully. Buy a developer a beer!
