                               Psi4 1.3.2 release

  ==> Input File <==

--------------------------------------------------------------------------
#psi4
#
memory 32 gb

molecule  {
0 1
  O       -1.2481010    -0.6526680     1.0325150
  O       -1.2449750     2.4828510    -0.6861630
  O       -3.2165300     1.5210990     0.7448870
  O       -2.3570290    -3.0668370     0.0949400
  O        1.3605300     2.2470340    -0.0765420
  N        0.8434040     0.0452230     0.2559430
  N        3.0572260     0.7205030    -0.2937270
  N        4.7164630    -0.8366550    -0.5722980
  C       -1.2894840     1.0784300    -0.5920770
  C       -2.7151710     0.6552070    -0.2573930
  C       -0.5254080     0.4815200     0.6000940
  C       -2.5292560    -0.7168860     0.3610560
  C       -2.5283440    -1.8503930    -0.6392900
  C        1.2197750    -1.2614080     0.3112740
  C        1.7555940     1.0674350    -0.0594030
  C        2.5111010    -1.6091400     0.0469950
  C        3.4119830    -0.5506530    -0.2589250
  H       -0.9376060     0.5914040    -1.5148910
  H       -3.3625820     0.6426650    -1.1464650
  H       -0.4402900     1.2218800     1.4039980
  H       -3.2819570    -0.9087340     1.1307830
  H       -1.7133080    -1.7003050    -1.3694640
  H       -3.4855610    -1.8340040    -1.1841350
  H       -0.2975250     2.7131790    -0.5250000
  H       -2.8475560     2.3997430     0.5086630
  H        0.4343110    -1.9634370     0.5690680
  H       -2.4338740    -3.7984320    -0.5432330
  H        2.8291120    -2.6453980     0.0739220
  H        5.0799252    -1.6966070    -0.1731340
  H        5.2808046     0.0071546    -0.5920331
units angstrom
no_reorient  #important for SAPT in psi4, default
symmetry c1  #important for SAPT in psi4, default
}

set PROPERTIES_ORIGIN ["COM"]
properties('MP2/aug-cc-pvtz', properties = ['dipole'])
--------------------------------------------------------------------------

    Molecular point group: c1
  Charge       = 0
  Multiplicity = 1
  Basis Set: AUG-CC-PVTZ
    Blend: AUG-CC-PVTZ
  Basis Set: (AUG-CC-PVTZ AUX)
    Blend: AUG-CC-PVTZ-JKFIT

    Orbital Energies [Eh]
    ---------------------

    Doubly Occupied:

       1A    -20.582276     2A    -20.581593     3A    -20.557781
       4A    -20.557230     5A    -20.521950     6A    -15.636752
       7A    -15.600163     8A    -15.553036     9A    -11.388236
      10A    -11.356596    11A    -11.341525    12A    -11.328565
      13A    -11.301206    14A    -11.296928    15A    -11.296627
      16A    -11.292958    17A    -11.248482    18A     -1.429337
      19A     -1.396358    20A     -1.380116    21A     -1.372829
      22A     -1.346295    23A     -1.306407    24A     -1.274274
      25A     -1.182091    26A     -1.081926    27A     -1.067731
      28A     -1.021180    29A     -0.934846    30A     -0.909641
      31A     -0.876113    32A     -0.831733    33A     -0.812011
      34A     -0.769822    35A     -0.752355    36A     -0.736130
      37A     -0.717079    38A     -0.702301    39A     -0.698350
      40A     -0.690514    41A     -0.672464    42A     -0.654815
      43A     -0.651518    44A     -0.638638    45A     -0.620981
      46A     -0.614573    47A     -0.606520    48A     -0.593705
      49A     -0.575758    50A     -0.569776    51A     -0.553989
      52A     -0.545704    53A     -0.537519    54A     -0.531788
      55A     -0.498097    56A     -0.477515    57A     -0.474438
      58A     -0.462163    59A     -0.460060    60A     -0.452831
      61A     -0.440697    62A     -0.433048    63A     -0.394525
      64A     -0.350112

  @DF-RHF Final Energy:  -886.37262206039293

   => Energetics <=

    Nuclear Repulsion Energy =           1323.8989201202700769
    One-Electron Energy =               -3845.4579380177929124
    Two-Electron Energy =                1635.1863958371297940
    Total Energy =                       -886.3726220603928141
  Basis Set: (AUG-CC-PVTZ AUX)
    Blend: AUG-CC-PVTZ-RI
    Molecular point group: c1

    Geometry (in Angstrom), charge = 0, multiplicity = 1:

       Center              X                  Y                   Z               Mass
    ------------   -----------------  -----------------  -----------------  -----------------
         O           -1.247751677175    -0.652674053755     1.032657873841    15.994914619570
         O           -1.244625677175     2.482844946245    -0.686020126159    15.994914619570
         O           -3.216180677175     1.521092946245     0.745029873841    15.994914619570
         O           -2.356679677175    -3.066843053755     0.095082873841    15.994914619570
         O            1.360879322825     2.247027946245    -0.076399126159    15.994914619570
         N            0.843753322825     0.045216946245     0.256085873841    14.003074004430
         N            3.057575322825     0.720496946245    -0.293584126159    14.003074004430
         N            4.716812322825    -0.836661053755    -0.572155126159    14.003074004430
         C           -1.289134677175     1.078423946245    -0.591934126159    12.000000000000
         C           -2.714821677175     0.655200946245    -0.257250126159    12.000000000000
         C           -0.525058677175     0.481513946245     0.600236873841    12.000000000000
         C           -2.528906677175    -0.716892053755     0.361198873841    12.000000000000
         C           -2.527994677175    -1.850399053755    -0.639147126159    12.000000000000
         C            1.220124322825    -1.261414053755     0.311416873841    12.000000000000
         C            1.755943322825     1.067428946245    -0.059260126159    12.000000000000
         C            2.511450322825    -1.609146053755     0.047137873841    12.000000000000
         C            3.412332322825    -0.550659053755    -0.258782126159    12.000000000000
         H           -0.937256677175     0.591397946245    -1.514748126159     1.007825032230
         H           -3.362232677175     0.642658946245    -1.146322126159     1.007825032230
         H           -0.439940677175     1.221873946245     1.404140873841     1.007825032230
         H           -3.281607677175    -0.908740053755     1.130925873841     1.007825032230
         H           -1.712958677175    -1.700311053755    -1.369321126159     1.007825032230
         H           -3.485211677175    -1.834010053755    -1.183992126159     1.007825032230
         H           -0.297175677175     2.713172946245    -0.524857126159     1.007825032230
         H           -2.847206677175     2.399736946245     0.508805873841     1.007825032230
         H            0.434660322825    -1.963443053755     0.569210873841     1.007825032230
         H           -2.433524677175    -3.798438053755    -0.543090126159     1.007825032230
         H            2.829461322825    -2.645404053755     0.074064873841     1.007825032230
         H            5.080274522825    -1.696613053755    -0.172991126159     1.007825032230
         H            5.281153922825     0.007148546245    -0.591890226159     1.007825032230

  Basis Set: AUG-CC-PVTZ
    Blend: AUG-CC-PVTZ
  Basis Set: (AUG-CC-PVTZ AUX)
    Blend: AUG-CC-PVTZ-JKFIT
	 Reference Energy          =    -886.3726220603929278 [Eh]
	 Singles Energy            =      -0.0000000000000000 [Eh]
	 Same-Spin Energy          =      -0.9013481450021157 [Eh]
	 Opposite-Spin Energy      =      -2.7150342978035646 [Eh]
	 Correlation Energy        =      -3.6163824428056803 [Eh]
	 Total Energy              =    -889.9890045031986574 [Eh]

	 ================> DF-SCS-MP2 Energies <==================
	-----------------------------------------------------------
	 SCS Same-Spin Scale       =       0.3333333333333333 [-]
	 SCS Opposite-Spin Scale   =       1.2000000000000000 [-]
	 SCS Same-Spin Energy      =      -0.3004493816673719 [Eh]
	 SCS Opposite-Spin Energy  =      -3.2580411573642776 [Eh]
	 SCS Correlation Energy    =      -3.5584905390316495 [Eh]
	 SCS Total Energy          =    -889.9311125994245231 [Eh]
	-----------------------------------------------------------

  Dipole Moment: [D]
     X:     1.6778      Y:    -5.9655      Z:    -1.8792     Total:     6.4756

*** Psi4 exiting successfully. Buy a developer a beer!
