                               Psi4 1.4a3.dev225

  ==> Input File <==

--------------------------------------------------------------------------
#psi4
#
memory 32 gb

molecule  {
0 1
  O       -1.3191770     0.6538360    -1.0992360
  O       -1.5735610    -2.4640850     0.5135810
  O       -3.5606630    -1.0699430    -0.4600060
  O       -1.4399290     3.1254620     0.1265180
  O        1.1065530    -2.3833650     0.0076020
  N        0.7686360    -0.1579440    -0.3706350
  N        2.9363770    -0.9938720     0.1460080
  N        4.7058880     0.4431110     0.3611260
  C       -1.3768610    -1.0680440     0.5552780
  C       -2.7089176    -0.3500698     0.4902771
  C       -0.6377490    -0.5042940    -0.6790150
  C       -2.3707440     0.9655450    -0.1585060
  C       -1.8992030     1.9895750     0.8571380
  C        1.2309690     1.1190800    -0.4442230
  C        1.6104480    -1.2470590    -0.0585760
  C        2.5474650     1.3753690    -0.1998620
  C        3.3802090     0.2523040     0.0808410
  H       -0.8441360    -0.7686950     1.4698480
  H       -3.2257400    -0.2778790     1.4400230
  H       -0.6227070    -1.2428120    -1.4883720
  H       -3.1941750     1.3785730    -0.7472070
  H       -1.0952130     1.5703990     1.4802000
  H       -2.7410530     2.2466610     1.5166010
  H       -0.6710550    -2.8260740     0.3542250
  H       -3.3063470    -2.0105220    -0.3629290
  H        0.4929290     1.8778260    -0.6840360
  H       -1.2098800     3.8154810     0.7720340
  H        2.9334840     2.3875570    -0.2389120
  H        5.1589650     1.2712730    -0.0008400
  H        5.2635310    -0.4031270     0.3606700
units angstrom
no_reorient  #important for SAPT in psi4, default
symmetry c1  #important for SAPT in psi4, default
}

set PROPERTIES_ORIGIN ["COM"]
properties('MP2/aug-cc-pvtz', properties = ['dipole'])
--------------------------------------------------------------------------

    Molecular point group: c1
  Charge       = 0
  Multiplicity = 1
  Basis Set: AUG-CC-PVTZ
    Blend: AUG-CC-PVTZ
  Basis Set: (AUG-CC-PVTZ AUX)
    Blend: AUG-CC-PVTZ-JKFIT

    Orbital Energies [Eh]
    ---------------------

    Doubly Occupied:

       1A    -20.587194     2A    -20.582466     3A    -20.559819
       4A    -20.551469     5A    -20.519997     6A    -15.633397
       7A    -15.599924     8A    -15.552049     9A    -11.386279
      10A    -11.358367    11A    -11.340549    12A    -11.325511
      13A    -11.304090    14A    -11.299395    15A    -11.298044
      16A    -11.293305    17A    -11.246918    18A     -1.429471
      19A     -1.394400    20A     -1.381829    21A     -1.372576
      22A     -1.333174    23A     -1.303971    24A     -1.271692
      25A     -1.181503    26A     -1.079870    27A     -1.074283
      28A     -1.019464    29A     -0.937748    30A     -0.907093
      31A     -0.877155    32A     -0.830897    33A     -0.814257
      34A     -0.766791    35A     -0.751452    36A     -0.735448
      37A     -0.722768    38A     -0.708486    39A     -0.699474
      40A     -0.685323    41A     -0.671043    42A     -0.653973
      43A     -0.648658    44A     -0.633899    45A     -0.620875
      46A     -0.615034    47A     -0.606367    48A     -0.593563
      49A     -0.575405    50A     -0.564182    51A     -0.555724
      52A     -0.542149    53A     -0.535018    54A     -0.531451
      55A     -0.496471    56A     -0.481456    57A     -0.478326
      58A     -0.463987    59A     -0.458517    60A     -0.453688
      61A     -0.444273    62A     -0.430632    63A     -0.392684
      64A     -0.348674

  @DF-RHF Final Energy:  -886.37095456855809

   => Energetics <=

    Nuclear Repulsion Energy =           1334.6485869435373388
    One-Electron Energy =               -3867.0111962001528809
    Two-Electron Energy =                1645.9916546880574515
    Total Energy =                       -886.3709545685580906
  Basis Set: (AUG-CC-PVTZ AUX)
    Blend: AUG-CC-PVTZ-RI
    Molecular point group: c1

    Geometry (in Angstrom), charge = 0, multiplicity = 1:

       Center              X                  Y                   Z               Mass
    ------------   -----------------  -----------------  -----------------  -----------------
         O           -1.333355527590     0.681234747868    -1.085056662725    15.994914619570
         O           -1.587739527590    -2.436686252132     0.527760337275    15.994914619570
         O           -3.574841527590    -1.042544252132    -0.445826662725    15.994914619570
         O           -1.454107527590     3.152860747868     0.140697337275    15.994914619570
         O            1.092374472410    -2.355966252132     0.021781337275    15.994914619570
         N            0.754457472410    -0.130545252132    -0.356455662725    14.003074004430
         N            2.922198472410    -0.966473252132     0.160187337275    14.003074004430
         N            4.691709472410     0.470509747868     0.375305337275    14.003074004430
         C           -1.391039527590    -1.040645252132     0.569457337275    12.000000000000
         C           -2.723096127590    -0.322671052132     0.504456437275    12.000000000000
         C           -0.651927527590    -0.476895252132    -0.664835662725    12.000000000000
         C           -2.384922527590     0.992943747868    -0.144326662725    12.000000000000
         C           -1.913381527590     2.016973747868     0.871317337275    12.000000000000
         C            1.216790472410     1.146478747868    -0.430043662725    12.000000000000
         C            1.596269472410    -1.219660252132    -0.044396662725    12.000000000000
         C            2.533286472410     1.402767747868    -0.185682662725    12.000000000000
         C            3.366030472410     0.279702747868     0.095020337275    12.000000000000
         H           -0.858314527590    -0.741296252132     1.484027337275     1.007825032230
         H           -3.239918527590    -0.250480252132     1.454202337275     1.007825032230
         H           -0.636885527590    -1.215413252132    -1.474192662725     1.007825032230
         H           -3.208353527590     1.405971747868    -0.733027662725     1.007825032230
         H           -1.109391527590     1.597797747868     1.494379337275     1.007825032230
         H           -2.755231527590     2.274059747868     1.530780337275     1.007825032230
         H           -0.685233527590    -2.798675252132     0.368404337275     1.007825032230
         H           -3.320525527590    -1.983123252132    -0.348749662725     1.007825032230
         H            0.478750472410     1.905224747868    -0.669856662725     1.007825032230
         H           -1.224058527590     3.842879747868     0.786213337275     1.007825032230
         H            2.919305472410     2.414955747868    -0.224732662725     1.007825032230
         H            5.144786472410     1.298671747868     0.013339337275     1.007825032230
         H            5.249352472410    -0.375728252132     0.374849337275     1.007825032230

  Basis Set: AUG-CC-PVTZ
    Blend: AUG-CC-PVTZ
  Basis Set: (AUG-CC-PVTZ AUX)
    Blend: AUG-CC-PVTZ-JKFIT
	 Reference Energy          =    -886.3709545685580906 [Eh]
	 Singles Energy            =      -0.0000000000000000 [Eh]
	 Same-Spin Energy          =      -0.9020092104461409 [Eh]
	 Opposite-Spin Energy      =      -2.7168429987391662 [Eh]
	 Correlation Energy        =      -3.6188522091853073 [Eh]
	 Total Energy              =    -889.9898067777434107 [Eh]

	 ================> DF-SCS-MP2 Energies <==================
	-----------------------------------------------------------
	 SCS Same-Spin Scale       =       0.3333333333333333 [-]
	 SCS Opposite-Spin Scale   =       1.2000000000000000 [-]
	 SCS Same-Spin Energy      =      -0.3006697368153803 [Eh]
	 SCS Opposite-Spin Energy  =      -3.2602115984869995 [Eh]
	 SCS Correlation Energy    =      -3.5608813353023798 [Eh]
	 SCS Total Energy          =    -889.9318359038604740 [Eh]
	-----------------------------------------------------------

  Dipole Moment: [D]
     X:     2.8368      Y:     5.8962      Z:     2.0358     Total:     6.8525

*** Psi4 exiting successfully. Buy a developer a beer!
