                               Psi4 1.3.2 release

  ==> Input File <==

--------------------------------------------------------------------------
#psi4
#
memory 32 gb

molecule  {
0 1
  O       -1.2481010    -0.6526680     1.0325150
  O       -1.2449750     2.4828510    -0.6861630
  O       -3.2165300     1.5210990     0.7448870
  O       -2.3570290    -3.0668370     0.0949400
  O        1.3605300     2.2470340    -0.0765420
  N        0.8434040     0.0452230     0.2559430
  N        3.0572260     0.7205030    -0.2937270
  N        4.7164630    -0.8366550    -0.5722980
  C       -1.2894840     1.0784300    -0.5920770
  C       -2.7194832     0.6611855    -0.2684665
  C       -0.5139387     0.4863233     0.5950728
  C       -2.5292560    -0.7168860     0.3610560
  C       -2.5283440    -1.8503930    -0.6392900
  C        1.2197750    -1.2614080     0.3112740
  C        1.7555940     1.0674350    -0.0594030
  C        2.5111010    -1.6091400     0.0469950
  C        3.4119830    -0.5506530    -0.2589250
  H       -0.9376060     0.5914040    -1.5148910
  H       -3.3625820     0.6426650    -1.1464650
  H       -0.4402900     1.2218800     1.4039980
  H       -3.2819570    -0.9087340     1.1307830
  H       -1.7133080    -1.7003050    -1.3694640
  H       -3.4855610    -1.8340040    -1.1841350
  H       -0.2975250     2.7131790    -0.5250000
  H       -2.8475560     2.3997430     0.5086630
  H        0.4343110    -1.9634370     0.5690680
  H       -2.4338740    -3.7984320    -0.5432330
  H        2.8291120    -2.6453980     0.0739220
  H        5.1251800    -1.6708610    -0.1624140
  H        5.3198140    -0.0200540    -0.5682940
units angstrom
no_reorient  #important for SAPT in psi4, default
symmetry c1  #important for SAPT in psi4, default
}

set PROPERTIES_ORIGIN ["COM"]
properties('MP2/aug-cc-pvtz', properties = ['dipole'])
--------------------------------------------------------------------------

    Molecular point group: c1
  Charge       = 0
  Multiplicity = 1
  Basis Set: AUG-CC-PVTZ
    Blend: AUG-CC-PVTZ
  Basis Set: (AUG-CC-PVTZ AUX)
    Blend: AUG-CC-PVTZ-JKFIT

    Orbital Energies [Eh]
    ---------------------

    Doubly Occupied:

       1A    -20.581562     2A    -20.580068     3A    -20.557302
       4A    -20.556827     5A    -20.522767     6A    -15.638032
       7A    -15.600366     8A    -15.553914     9A    -11.388974
      10A    -11.358488    11A    -11.341349    12A    -11.329294
      13A    -11.300267    14A    -11.296623    15A    -11.296230
      16A    -11.292390    17A    -11.249263    18A     -1.426648
      19A     -1.396219    20A     -1.379318    21A     -1.371539
      22A     -1.345439    23A     -1.306855    24A     -1.275171
      25A     -1.183092    26A     -1.083123    27A     -1.065291
      28A     -1.020738    29A     -0.936071    30A     -0.910014
      31A     -0.877369    32A     -0.831770    33A     -0.811933
      34A     -0.767672    35A     -0.753012    36A     -0.735979
      37A     -0.720413    38A     -0.702408    39A     -0.696939
      40A     -0.685695    41A     -0.672777    42A     -0.654232
      43A     -0.651466    44A     -0.638621    45A     -0.620394
      46A     -0.614228    47A     -0.605965    48A     -0.595112
      49A     -0.575611    50A     -0.568809    51A     -0.553238
      52A     -0.545299    53A     -0.536977    54A     -0.531518
      55A     -0.498271    56A     -0.476728    57A     -0.473109
      58A     -0.461862    59A     -0.460661    60A     -0.451920
      61A     -0.441451    62A     -0.433745    63A     -0.395736
      64A     -0.350787

  @DF-RHF Final Energy:  -886.37290093736215

   => Energetics <=

    Nuclear Repulsion Energy =           1323.4792194636045224
    One-Electron Energy =               -3844.6343556618398907
    Two-Electron Energy =                1634.7822352608734491
    Total Energy =                       -886.3729009373621466
  Basis Set: (AUG-CC-PVTZ AUX)
    Blend: AUG-CC-PVTZ-RI
    Molecular point group: c1

    Geometry (in Angstrom), charge = 0, multiplicity = 1:

       Center              X                  Y                   Z               Mass
    ------------   -----------------  -----------------  -----------------  -----------------
         O           -1.248454346630    -0.653200237112     1.033309527860    15.994914619570
         O           -1.245328346630     2.482318762888    -0.685368472140    15.994914619570
         O           -3.216883346630     1.520566762888     0.745681527860    15.994914619570
         O           -2.357382346630    -3.067369237112     0.095734527860    15.994914619570
         O            1.360176653370     2.246501762888    -0.075747472140    15.994914619570
         N            0.843050653370     0.044690762888     0.256737527860    14.003074004430
         N            3.056872653370     0.719970762888    -0.292932472140    14.003074004430
         N            4.716109653370    -0.837187237112    -0.571503472140    14.003074004430
         C           -1.289837346630     1.077897762888    -0.591282472140    12.000000000000
         C           -2.719836546630     0.660653262888    -0.267671972140    12.000000000000
         C           -0.514292046630     0.485791062888     0.595867327860    12.000000000000
         C           -2.529609346630    -0.717418237112     0.361850527860    12.000000000000
         C           -2.528697346630    -1.850925237112    -0.638495472140    12.000000000000
         C            1.219421653370    -1.261940237112     0.312068527860    12.000000000000
         C            1.755240653370     1.066902762888    -0.058608472140    12.000000000000
         C            2.510747653370    -1.609672237112     0.047789527860    12.000000000000
         C            3.411629653370    -0.551185237112    -0.258130472140    12.000000000000
         H           -0.937959346630     0.590871762888    -1.514096472140     1.007825032230
         H           -3.362935346630     0.642132762888    -1.145670472140     1.007825032230
         H           -0.440643346630     1.221347762888     1.404792527860     1.007825032230
         H           -3.282310346630    -0.909266237112     1.131577527860     1.007825032230
         H           -1.713661346630    -1.700837237112    -1.368669472140     1.007825032230
         H           -3.485914346630    -1.834536237112    -1.183340472140     1.007825032230
         H           -0.297878346630     2.712646762888    -0.524205472140     1.007825032230
         H           -2.847909346630     2.399210762888     0.509457527860     1.007825032230
         H            0.433957653370    -1.963969237112     0.569862527860     1.007825032230
         H           -2.434227346630    -3.798964237112    -0.542438472140     1.007825032230
         H            2.828758653370    -2.645930237112     0.074716527860     1.007825032230
         H            5.124826653370    -1.671393237112    -0.161619472140     1.007825032230
         H            5.319460653370    -0.020586237112    -0.567499472140     1.007825032230

  Basis Set: AUG-CC-PVTZ
    Blend: AUG-CC-PVTZ
  Basis Set: (AUG-CC-PVTZ AUX)
    Blend: AUG-CC-PVTZ-JKFIT
	 Reference Energy          =    -886.3729009373621466 [Eh]
	 Singles Energy            =      -0.0000000000000000 [Eh]
	 Same-Spin Energy          =      -0.9012019129761477 [Eh]
	 Opposite-Spin Energy      =      -2.7151345869321020 [Eh]
	 Correlation Energy        =      -3.6163364999082495 [Eh]
	 Total Energy              =    -889.9892374372703898 [Eh]

	 ================> DF-SCS-MP2 Energies <==================
	-----------------------------------------------------------
	 SCS Same-Spin Scale       =       0.3333333333333333 [-]
	 SCS Opposite-Spin Scale   =       1.2000000000000000 [-]
	 SCS Same-Spin Energy      =      -0.3004006376587159 [Eh]
	 SCS Opposite-Spin Energy  =      -3.2581615043185224 [Eh]
	 SCS Correlation Energy    =      -3.5585621419772382 [Eh]
	 SCS Total Energy          =    -889.9314630793394372 [Eh]
	-----------------------------------------------------------

  Dipole Moment: [D]
     X:     1.7924      Y:    -5.9293      Z:    -1.8489     Total:     6.4643

*** Psi4 exiting successfully. Buy a developer a beer!
