                               Psi4 1.3.2 release

  ==> Input File <==

--------------------------------------------------------------------------
#psi4
#
memory 32 gb

molecule  {
0 1
  O       -1.2481010    -0.6526680     1.0325150
  O       -1.2449750     2.4828510    -0.6861630
  O       -3.2165300     1.5210990     0.7448870
  O       -2.3570290    -3.0668370     0.0949400
  O        1.3605300     2.2470340    -0.0765420
  N        0.8434040     0.0452230     0.2559430
  N        3.0572260     0.7205030    -0.2937270
  N        4.7164630    -0.8366550    -0.5722980
  C       -1.2894840     1.0784300    -0.5920770
  C       -2.7151710     0.6552070    -0.2573930
  C       -0.7107196     0.5405865     0.6466856
  C       -2.5292560    -0.7168860     0.3610560
  C       -2.5283440    -1.8503930    -0.6392900
  C        1.2197750    -1.2614080     0.3112740
  C        1.7555940     1.0674350    -0.0594030
  C        2.5111010    -1.6091400     0.0469950
  C        3.4119830    -0.5506530    -0.2589250
  H       -0.9376060     0.5914040    -1.5148910
  H       -3.3625820     0.6426650    -1.1464650
  H       -0.4402900     1.2218800     1.4039980
  H       -3.2819570    -0.9087340     1.1307830
  H       -1.7133080    -1.7003050    -1.3694640
  H       -3.4855610    -1.8340040    -1.1841350
  H       -0.2975250     2.7131790    -0.5250000
  H       -2.8475560     2.3997430     0.5086630
  H        0.4343110    -1.9634370     0.5690680
  H       -2.4338740    -3.7984320    -0.5432330
  H        2.8291120    -2.6453980     0.0739220
  H        5.1251800    -1.6708610    -0.1624140
  H        5.3198140    -0.0200540    -0.5682940
units angstrom
no_reorient  #important for SAPT in psi4, default
symmetry c1  #important for SAPT in psi4, default
}

set PROPERTIES_ORIGIN ["COM"]
properties('MP2/aug-cc-pvtz', properties = ['dipole'])
--------------------------------------------------------------------------

    Molecular point group: c1
  Charge       = 0
  Multiplicity = 1
  Basis Set: AUG-CC-PVTZ
    Blend: AUG-CC-PVTZ
  Basis Set: (AUG-CC-PVTZ AUX)
    Blend: AUG-CC-PVTZ-JKFIT

    Orbital Energies [Eh]
    ---------------------

    Doubly Occupied:

       1A    -20.600757     2A    -20.586917     3A    -20.568067
       4A    -20.562782     5A    -20.510773     6A    -15.613462
       7A    -15.591127     8A    -15.542486     9A    -11.374324
      10A    -11.357620    11A    -11.347028    12A    -11.316287
      13A    -11.307422    14A    -11.306050    15A    -11.302733
      16A    -11.301836    17A    -11.236914    18A     -1.454931
      19A     -1.392012    20A     -1.383478    21A     -1.379872
      22A     -1.354360    23A     -1.293056    24A     -1.248799
      25A     -1.167486    26A     -1.084311    27A     -1.069201
      28A     -1.034532    29A     -0.932015    30A     -0.895247
      31A     -0.867608    32A     -0.840256    33A     -0.824561
      34A     -0.753587    35A     -0.750141    36A     -0.740251
      37A     -0.718912    38A     -0.710421    39A     -0.702595
      40A     -0.688375    41A     -0.664729    42A     -0.661577
      43A     -0.652255    44A     -0.637892    45A     -0.617962
      46A     -0.612410    47A     -0.606376    48A     -0.585064
      49A     -0.579727    50A     -0.578547    51A     -0.558913
      52A     -0.553182    53A     -0.530938    54A     -0.528963
      55A     -0.490452    56A     -0.484464    57A     -0.480829
      58A     -0.468373    59A     -0.467726    60A     -0.455627
      61A     -0.444036    62A     -0.417078    63A     -0.387945
      64A     -0.338754

  @DF-RHF Final Energy:  -886.34273681608511

   => Energetics <=

    Nuclear Repulsion Energy =           1323.0440618924751561
    One-Electron Energy =               -3843.7407811895827763
    Two-Electron Energy =                1634.3539824810227401
    Total Energy =                       -886.3427368160851074
  Basis Set: (AUG-CC-PVTZ AUX)
    Blend: AUG-CC-PVTZ-RI
    Molecular point group: c1

    Geometry (in Angstrom), charge = 0, multiplicity = 1:

       Center              X                  Y                   Z               Mass
    ------------   -----------------  -----------------  -----------------  -----------------
         O           -1.238953063316    -0.655583827869     1.030214997185    15.994914619570
         O           -1.235827063316     2.479935172131    -0.688463002815    15.994914619570
         O           -3.207382063316     1.518183172131     0.742586997185    15.994914619570
         O           -2.347881063316    -3.069752827869     0.092639997185    15.994914619570
         O            1.369677936684     2.244118172131    -0.078842002815    15.994914619570
         N            0.852551936684     0.042307172131     0.253642997185    14.003074004430
         N            3.066373936684     0.717587172131    -0.296027002815    14.003074004430
         N            4.725610936684    -0.839570827869    -0.574598002815    14.003074004430
         C           -1.280336063316     1.075514172131    -0.594377002815    12.000000000000
         C           -2.706023063316     0.652291172131    -0.259693002815    12.000000000000
         C           -0.701571663316     0.537670672131     0.644385597185    12.000000000000
         C           -2.520108063316    -0.719801827869     0.358755997185    12.000000000000
         C           -2.519196063316    -1.853308827869    -0.641590002815    12.000000000000
         C            1.228922936684    -1.264323827869     0.308973997185    12.000000000000
         C            1.764741936684     1.064519172131    -0.061703002815    12.000000000000
         C            2.520248936684    -1.612055827869     0.044694997185    12.000000000000
         C            3.421130936684    -0.553568827869    -0.261225002815    12.000000000000
         H           -0.928458063316     0.588488172131    -1.517191002815     1.007825032230
         H           -3.353434063316     0.639749172131    -1.148765002815     1.007825032230
         H           -0.431142063316     1.218964172131     1.401697997185     1.007825032230
         H           -3.272809063316    -0.911649827869     1.128482997185     1.007825032230
         H           -1.704160063316    -1.703220827869    -1.371764002815     1.007825032230
         H           -3.476413063316    -1.836919827869    -1.186435002815     1.007825032230
         H           -0.288377063316     2.710263172131    -0.527300002815     1.007825032230
         H           -2.838408063316     2.396827172131     0.506362997185     1.007825032230
         H            0.443458936684    -1.966352827869     0.566767997185     1.007825032230
         H           -2.424726063316    -3.801347827869    -0.545533002815     1.007825032230
         H            2.838259936684    -2.648313827869     0.071621997185     1.007825032230
         H            5.134327936684    -1.673776827869    -0.164714002815     1.007825032230
         H            5.328961936684    -0.022969827869    -0.570594002815     1.007825032230

  Basis Set: AUG-CC-PVTZ
    Blend: AUG-CC-PVTZ
  Basis Set: (AUG-CC-PVTZ AUX)
    Blend: AUG-CC-PVTZ-JKFIT
	 Reference Energy          =    -886.3427368160851074 [Eh]
	 Singles Energy            =      -0.0000000000000000 [Eh]
	 Same-Spin Energy          =      -0.9030522394849786 [Eh]
	 Opposite-Spin Energy      =      -2.7172413275260494 [Eh]
	 Correlation Energy        =      -3.6202935670110281 [Eh]
	 Total Energy              =    -889.9630303830961111 [Eh]

	 ================> DF-SCS-MP2 Energies <==================
	-----------------------------------------------------------
	 SCS Same-Spin Scale       =       0.3333333333333333 [-]
	 SCS Opposite-Spin Scale   =       1.2000000000000000 [-]
	 SCS Same-Spin Energy      =      -0.3010174131616595 [Eh]
	 SCS Opposite-Spin Energy  =      -3.2606895930312594 [Eh]
	 SCS Correlation Energy    =      -3.5617070061929188 [Eh]
	 SCS Total Energy          =    -889.9044438222780400 [Eh]
	-----------------------------------------------------------

  Dipole Moment: [D]
     X:     0.4159      Y:    -5.8707      Z:    -1.6542     Total:     6.1135

*** Psi4 exiting successfully. Buy a developer a beer!
