                               Psi4 1.3.2 release

  ==> Input File <==

--------------------------------------------------------------------------
#psi4
#
memory 32 gb

molecule  {
0 1
  O       -1.2481010    -0.6526680     1.0325150
  O       -1.2449750     2.4828510    -0.6861630
  O       -3.2165300     1.5210990     0.7448870
  O       -2.3570290    -3.0668370     0.0949400
  O        1.3605300     2.2470340    -0.0765420
  N        0.8434040     0.0452230     0.2559430
  N        3.0572260     0.7205030    -0.2937270
  N        4.7164630    -0.8366550    -0.5722980
  C       -1.2894840     1.0784300    -0.5920770
  C       -2.7151710     0.6552070    -0.2573930
  C       -0.6277234     0.3209471     0.6613141
  C       -2.5292560    -0.7168860     0.3610560
  C       -2.5283440    -1.8503930    -0.6392900
  C        1.2197750    -1.2614080     0.3112740
  C        1.7555940     1.0674350    -0.0594030
  C        2.5111010    -1.6091400     0.0469950
  C        3.4119830    -0.5506530    -0.2589250
  H       -0.9376060     0.5914040    -1.5148910
  H       -3.3625820     0.6426650    -1.1464650
  H       -0.4402900     1.2218800     1.4039980
  H       -3.2819570    -0.9087340     1.1307830
  H       -1.7133080    -1.7003050    -1.3694640
  H       -3.4855610    -1.8340040    -1.1841350
  H       -0.2975250     2.7131790    -0.5250000
  H       -2.8475560     2.3997430     0.5086630
  H        0.4343110    -1.9634370     0.5690680
  H       -2.4338740    -3.7984320    -0.5432330
  H        2.8291120    -2.6453980     0.0739220
  H        5.1251800    -1.6708610    -0.1624140
  H        5.3198140    -0.0200540    -0.5682940
units angstrom
no_reorient  #important for SAPT in psi4, default
symmetry c1  #important for SAPT in psi4, default
}

set PROPERTIES_ORIGIN ["COM"]
properties('MP2/aug-cc-pvtz', properties = ['dipole'])
--------------------------------------------------------------------------

    Molecular point group: c1
  Charge       = 0
  Multiplicity = 1
  Basis Set: AUG-CC-PVTZ
    Blend: AUG-CC-PVTZ
  Basis Set: (AUG-CC-PVTZ AUX)
    Blend: AUG-CC-PVTZ-JKFIT

    Orbital Energies [Eh]
    ---------------------

    Doubly Occupied:

       1A    -20.606161     2A    -20.590278     3A    -20.560437
       4A    -20.558610     5A    -20.513319     6A    -15.623707
       7A    -15.594570     8A    -15.548167     9A    -11.381989
      10A    -11.351401    11A    -11.348038    12A    -11.320488
      13A    -11.314212    14A    -11.311456    15A    -11.296197
      16A    -11.295546    17A    -11.241580    18A     -1.516792
      19A     -1.391750    20A     -1.384960    21A     -1.382189
      22A     -1.346643    23A     -1.298730    24A     -1.262993
      25A     -1.174721    26A     -1.092113    27A     -1.068383
      28A     -1.017429    29A     -0.933001    30A     -0.905231
      31A     -0.874108    32A     -0.839325    33A     -0.820535
      34A     -0.767063    35A     -0.756596    36A     -0.740663
      37A     -0.720676    38A     -0.713604    39A     -0.702791
      40A     -0.701072    41A     -0.674387    42A     -0.663449
      43A     -0.650150    44A     -0.636651    45A     -0.623251
      46A     -0.619991    47A     -0.612380    48A     -0.591412
      49A     -0.586154    50A     -0.576967    51A     -0.561314
      52A     -0.542937    53A     -0.532203    54A     -0.528830
      55A     -0.494068    56A     -0.484757    57A     -0.477943
      58A     -0.464726    59A     -0.456508    60A     -0.452671
      61A     -0.426911    62A     -0.418943    63A     -0.384540
      64A     -0.338831

  @DF-RHF Final Energy:  -886.32772594824371

   => Energetics <=

    Nuclear Repulsion Energy =           1324.8214830478389104
    One-Electron Energy =               -3846.9634264691176213
    Two-Electron Energy =                1635.8142174730348870
    Total Energy =                       -886.3277259482435966
  Basis Set: (AUG-CC-PVTZ AUX)
    Blend: AUG-CC-PVTZ-RI
    Molecular point group: c1

    Geometry (in Angstrom), charge = 0, multiplicity = 1:

       Center              X                  Y                   Z               Mass
    ------------   -----------------  -----------------  -----------------  -----------------
         O           -1.243050199163    -0.644741253642     1.029492856271    15.994914619570
         O           -1.239924199163     2.490777746358    -0.689185143729    15.994914619570
         O           -3.211479199163     1.529025746358     0.741864856271    15.994914619570
         O           -2.351978199163    -3.058910253642     0.091917856271    15.994914619570
         O            1.365580800837     2.254960746358    -0.079564143729    15.994914619570
         N            0.848454800837     0.053149746358     0.252920856271    14.003074004430
         N            3.062276800837     0.728429746358    -0.296749143729    14.003074004430
         N            4.721513800837    -0.828728253642    -0.575320143729    14.003074004430
         C           -1.284433199163     1.086356746358    -0.595099143729    12.000000000000
         C           -2.710120199163     0.663133746358    -0.260415143729    12.000000000000
         C           -0.622672599163     0.328873846358     0.658291956271    12.000000000000
         C           -2.524205199163    -0.708959253642     0.358033856271    12.000000000000
         C           -2.523293199163    -1.842466253642    -0.642312143729    12.000000000000
         C            1.224825800837    -1.253481253642     0.308251856271    12.000000000000
         C            1.760644800837     1.075361746358    -0.062425143729    12.000000000000
         C            2.516151800837    -1.601213253642     0.043972856271    12.000000000000
         C            3.417033800837    -0.542726253642    -0.261947143729    12.000000000000
         H           -0.932555199163     0.599330746358    -1.517913143729     1.007825032230
         H           -3.357531199163     0.650591746358    -1.149487143729     1.007825032230
         H           -0.435239199163     1.229806746358     1.400975856271     1.007825032230
         H           -3.276906199163    -0.900807253642     1.127760856271     1.007825032230
         H           -1.708257199163    -1.692378253642    -1.372486143729     1.007825032230
         H           -3.480510199163    -1.826077253642    -1.187157143729     1.007825032230
         H           -0.292474199163     2.721105746358    -0.528022143729     1.007825032230
         H           -2.842505199163     2.407669746358     0.505640856271     1.007825032230
         H            0.439361800837    -1.955510253642     0.566045856271     1.007825032230
         H           -2.428823199163    -3.790505253642    -0.546255143729     1.007825032230
         H            2.834162800837    -2.637471253642     0.070899856271     1.007825032230
         H            5.130230800837    -1.662934253642    -0.165436143729     1.007825032230
         H            5.324864800837    -0.012127253642    -0.571316143729     1.007825032230

  Basis Set: AUG-CC-PVTZ
    Blend: AUG-CC-PVTZ
  Basis Set: (AUG-CC-PVTZ AUX)
    Blend: AUG-CC-PVTZ-JKFIT
	 Reference Energy          =    -886.3277259482437103 [Eh]
	 Singles Energy            =      -0.0000000000000000 [Eh]
	 Same-Spin Energy          =      -0.9035230081548874 [Eh]
	 Opposite-Spin Energy      =      -2.7160739729339523 [Eh]
	 Correlation Energy        =      -3.6195969810888395 [Eh]
	 Total Energy              =    -889.9473229293325858 [Eh]

	 ================> DF-SCS-MP2 Energies <==================
	-----------------------------------------------------------
	 SCS Same-Spin Scale       =       0.3333333333333333 [-]
	 SCS Opposite-Spin Scale   =       1.2000000000000000 [-]
	 SCS Same-Spin Energy      =      -0.3011743360516291 [Eh]
	 SCS Opposite-Spin Energy  =      -3.2592887675207427 [Eh]
	 SCS Correlation Energy    =      -3.5604631035723719 [Eh]
	 SCS Total Energy          =    -889.8881890518160844 [Eh]
	-----------------------------------------------------------

  Dipole Moment: [D]
     X:     0.5756      Y:    -6.4905      Z:    -1.7217     Total:     6.7395

*** Psi4 exiting successfully. Buy a developer a beer!
