                               Psi4 1.3.2 release

  ==> Input File <==

--------------------------------------------------------------------------
#psi4
#
memory 32 gb

molecule  {
0 1
  O       -1.2481010    -0.6526680     1.0325150
  O       -1.2449750     2.4828510    -0.6861630
  O       -3.2165300     1.5210990     0.7448870
  O       -2.3570290    -3.0668370     0.0949400
  O        1.3605300     2.2470340    -0.0765420
  N        0.8415066     0.0490543     0.2437807
  N        3.0572260     0.7205030    -0.2937270
  N        4.7164630    -0.8366550    -0.5722980
  C       -1.2787962     1.0763346    -0.5999007
  C       -2.7151710     0.6552070    -0.2573930
  C       -0.5254080     0.4815200     0.6000940
  C       -2.5292560    -0.7168860     0.3610560
  C       -2.5283440    -1.8503930    -0.6392900
  C        1.2197750    -1.2614080     0.3112740
  C        1.7555940     1.0674350    -0.0594030
  C        2.5111010    -1.6091400     0.0469950
  C        3.4119830    -0.5506530    -0.2589250
  H       -0.9376060     0.5914040    -1.5148910
  H       -3.3625820     0.6426650    -1.1464650
  H       -0.4402900     1.2218800     1.4039980
  H       -3.2819570    -0.9087340     1.1307830
  H       -1.7133080    -1.7003050    -1.3694640
  H       -3.4855610    -1.8340040    -1.1841350
  H       -0.2975250     2.7131790    -0.5250000
  H       -2.8475560     2.3997430     0.5086630
  H        0.4343110    -1.9634370     0.5690680
  H       -2.4338740    -3.7984320    -0.5432330
  H        2.8291120    -2.6453980     0.0739220
  H        5.1251800    -1.6708610    -0.1624140
  H        5.3198140    -0.0200540    -0.5682940
units angstrom
no_reorient  #important for SAPT in psi4, default
symmetry c1  #important for SAPT in psi4, default
}

set PROPERTIES_ORIGIN ["COM"]
properties('MP2/aug-cc-pvtz', properties = ['dipole'])
--------------------------------------------------------------------------

    Molecular point group: c1
  Charge       = 0
  Multiplicity = 1
  Basis Set: AUG-CC-PVTZ
    Blend: AUG-CC-PVTZ
  Basis Set: (AUG-CC-PVTZ AUX)
    Blend: AUG-CC-PVTZ-JKFIT

    Orbital Energies [Eh]
    ---------------------

    Doubly Occupied:

       1A    -20.582219     2A    -20.581731     3A    -20.557652
       4A    -20.557053     5A    -20.521287     6A    -15.636535
       7A    -15.600049     8A    -15.553381     9A    -11.387604
      10A    -11.358049    11A    -11.341492    12A    -11.328930
      13A    -11.301128    14A    -11.296649    15A    -11.295857
      16A    -11.292965    17A    -11.249183    18A     -1.429082
      19A     -1.396364    20A     -1.379516    21A     -1.372621
      22A     -1.345921    23A     -1.305718    24A     -1.273396
      25A     -1.182264    26A     -1.082207    27A     -1.066727
      28A     -1.020945    29A     -0.934756    30A     -0.909755
      31A     -0.877125    32A     -0.832450    33A     -0.811651
      34A     -0.767216    35A     -0.751627    36A     -0.736024
      37A     -0.720316    38A     -0.702680    39A     -0.698587
      40A     -0.685783    41A     -0.672771    42A     -0.654504
      43A     -0.651418    44A     -0.638573    45A     -0.620666
      46A     -0.614634    47A     -0.606806    48A     -0.593147
      49A     -0.575061    50A     -0.569604    51A     -0.554133
      52A     -0.545927    53A     -0.537522    54A     -0.531801
      55A     -0.497259    56A     -0.477196    57A     -0.473397
      58A     -0.461710    59A     -0.459834    60A     -0.453320
      61A     -0.440362    62A     -0.433409    63A     -0.395154
      64A     -0.350466

  @DF-RHF Final Energy:  -886.37314985508021

   => Energetics <=

    Nuclear Repulsion Energy =           1323.6826977803875707
    One-Electron Energy =               -3845.0453553095912866
    Two-Electron Energy =                1634.9895076741236153
    Total Energy =                       -886.3731498550801007
  Basis Set: (AUG-CC-PVTZ AUX)
    Blend: AUG-CC-PVTZ-RI
    Molecular point group: c1

    Geometry (in Angstrom), charge = 0, multiplicity = 1:

       Center              X                  Y                   Z               Mass
    ------------   -----------------  -----------------  -----------------  -----------------
         O           -1.248519340083    -0.652785253849     1.033601843037    15.994914619570
         O           -1.245393340083     2.482733746151    -0.685076156963    15.994914619570
         O           -3.216948340083     1.520981746151     0.745973843037    15.994914619570
         O           -2.357447340083    -3.066954253849     0.096026843037    15.994914619570
         O            1.360111659917     2.246916746151    -0.075455156963    15.994914619570
         N            0.841088259917     0.048937046151     0.244867543037    14.003074004430
         N            3.056807659917     0.720385746151    -0.292640156963    14.003074004430
         N            4.716044659917    -0.836772253849    -0.571211156963    14.003074004430
         C           -1.279214540083     1.076217346151    -0.598813856963    12.000000000000
         C           -2.715589340083     0.655089746151    -0.256306156963    12.000000000000
         C           -0.525826340083     0.481402746151     0.601180843037    12.000000000000
         C           -2.529674340083    -0.717003253849     0.362142843037    12.000000000000
         C           -2.528762340083    -1.850510253849    -0.638203156963    12.000000000000
         C            1.219356659917    -1.261525253849     0.312360843037    12.000000000000
         C            1.755175659917     1.067317746151    -0.058316156963    12.000000000000
         C            2.510682659917    -1.609257253849     0.048081843037    12.000000000000
         C            3.411564659917    -0.550770253849    -0.257838156963    12.000000000000
         H           -0.938024340083     0.591286746151    -1.513804156963     1.007825032230
         H           -3.363000340083     0.642547746151    -1.145378156963     1.007825032230
         H           -0.440708340083     1.221762746151     1.405084843037     1.007825032230
         H           -3.282375340083    -0.908851253849     1.131869843037     1.007825032230
         H           -1.713726340083    -1.700422253849    -1.368377156963     1.007825032230
         H           -3.485979340083    -1.834121253849    -1.183048156963     1.007825032230
         H           -0.297943340083     2.713061746151    -0.523913156963     1.007825032230
         H           -2.847974340083     2.399625746151     0.509749843037     1.007825032230
         H            0.433892659917    -1.963554253849     0.570154843037     1.007825032230
         H           -2.434292340083    -3.798549253849    -0.542146156963     1.007825032230
         H            2.828693659917    -2.645515253849     0.075008843037     1.007825032230
         H            5.124761659917    -1.670978253849    -0.161327156963     1.007825032230
         H            5.319395659917    -0.020171253849    -0.567207156963     1.007825032230

  Basis Set: AUG-CC-PVTZ
    Blend: AUG-CC-PVTZ
  Basis Set: (AUG-CC-PVTZ AUX)
    Blend: AUG-CC-PVTZ-JKFIT
	 Reference Energy          =    -886.3731498550802144 [Eh]
	 Singles Energy            =      -0.0000000000000000 [Eh]
	 Same-Spin Energy          =      -0.9012217285550630 [Eh]
	 Opposite-Spin Energy      =      -2.7150460863983468 [Eh]
	 Correlation Energy        =      -3.6162678149534098 [Eh]
	 Total Energy              =    -889.9894176700336175 [Eh]

	 ================> DF-SCS-MP2 Energies <==================
	-----------------------------------------------------------
	 SCS Same-Spin Scale       =       0.3333333333333333 [-]
	 SCS Opposite-Spin Scale   =       1.2000000000000000 [-]
	 SCS Same-Spin Energy      =      -0.3004072428516876 [Eh]
	 SCS Opposite-Spin Energy  =      -3.2580553036780162 [Eh]
	 SCS Correlation Energy    =      -3.5584625465297037 [Eh]
	 SCS Total Energy          =    -889.9316124016098684 [Eh]
	-----------------------------------------------------------

  Dipole Moment: [D]
     X:     1.7306      Y:    -5.9736      Z:    -1.8256     Total:     6.4817

*** Psi4 exiting successfully. Buy a developer a beer!
