                               Psi4 1.3.2 release

  ==> Input File <==

--------------------------------------------------------------------------
#psi4
#
memory 32 gb

molecule  {
0 1
  O       -1.2481010    -0.6526680     1.0325150
  O       -1.2449750     2.4828510    -0.6861630
  O       -3.2165300     1.5210990     0.7448870
  O       -2.3570290    -3.0668370     0.0949400
  O        1.3605300     2.2470340    -0.0765420
  N        0.9104321     0.0618456     0.2384177
  N        3.0572260     0.7205030    -0.2937270
  N        4.7164630    -0.8366550    -0.5722980
  C       -1.2894840     1.0784300    -0.5920770
  C       -2.7151710     0.6552070    -0.2573930
  C       -0.5254080     0.4815200     0.6000940
  C       -2.5292560    -0.7168860     0.3610560
  C       -2.5283440    -1.8503930    -0.6392900
  C        1.2197750    -1.2614080     0.3112740
  C        1.7555940     1.0674350    -0.0594030
  C        2.5254797    -1.5400981     0.0360453
  C        3.4119830    -0.5506530    -0.2589250
  H       -0.9376060     0.5914040    -1.5148910
  H       -3.3625820     0.6426650    -1.1464650
  H       -0.4402900     1.2218800     1.4039980
  H       -3.2819570    -0.9087340     1.1307830
  H       -1.7133080    -1.7003050    -1.3694640
  H       -3.4855610    -1.8340040    -1.1841350
  H       -0.2975250     2.7131790    -0.5250000
  H       -2.8475560     2.3997430     0.5086630
  H        0.4343110    -1.9634370     0.5690680
  H       -2.4338740    -3.7984320    -0.5432330
  H        2.8291120    -2.6453980     0.0739220
  H        5.1251800    -1.6708610    -0.1624140
  H        5.3198140    -0.0200540    -0.5682940
units angstrom
no_reorient  #important for SAPT in psi4, default
symmetry c1  #important for SAPT in psi4, default
}

set PROPERTIES_ORIGIN ["COM"]
properties('MP2/aug-cc-pvtz', properties = ['dipole'])
--------------------------------------------------------------------------

    Molecular point group: c1
  Charge       = 0
  Multiplicity = 1
  Basis Set: AUG-CC-PVTZ
    Blend: AUG-CC-PVTZ
  Basis Set: (AUG-CC-PVTZ AUX)
    Blend: AUG-CC-PVTZ-JKFIT

    Orbital Energies [Eh]
    ---------------------

    Doubly Occupied:

       1A    -20.586740     2A    -20.584523     3A    -20.559318
       4A    -20.557556     5A    -20.513684     6A    -15.638743
       7A    -15.595514     8A    -15.548148     9A    -11.378654
      10A    -11.347654    11A    -11.347522    12A    -11.332838
      13A    -11.303541    14A    -11.299904    15A    -11.299019
      16A    -11.295004    17A    -11.249311    18A     -1.430954
      19A     -1.399478    20A     -1.381672    21A     -1.374632
      22A     -1.347412    23A     -1.308679    24A     -1.273039
      25A     -1.177449    26A     -1.085464    27A     -1.070135
      28A     -1.026247    29A     -0.936099    30A     -0.925051
      31A     -0.875158    32A     -0.830581    33A     -0.814009
      34A     -0.770494    35A     -0.753345    36A     -0.736553
      37A     -0.719936    38A     -0.704082    39A     -0.699210
      40A     -0.685406    41A     -0.672179    42A     -0.656462
      43A     -0.647674    44A     -0.638334    45A     -0.630890
      46A     -0.617175    47A     -0.611446    48A     -0.580798
      49A     -0.574763    50A     -0.572113    51A     -0.553934
      52A     -0.544578    53A     -0.537036    54A     -0.533184
      55A     -0.495299    56A     -0.479367    57A     -0.475776
      58A     -0.463708    59A     -0.456055    60A     -0.454265
      61A     -0.441567    62A     -0.430901    63A     -0.393460
      64A     -0.351737

  @DF-RHF Final Energy:  -886.35874106012409

   => Energetics <=

    Nuclear Repulsion Energy =           1324.9455992273210541
    One-Electron Energy =               -3847.4577592365358214
    Two-Electron Energy =                1636.1534189490905646
    Total Energy =                       -886.3587410601242027
  Basis Set: (AUG-CC-PVTZ AUX)
    Blend: AUG-CC-PVTZ-RI
    Molecular point group: c1

    Geometry (in Angstrom), charge = 0, multiplicity = 1:

       Center              X                  Y                   Z               Mass
    ------------   -----------------  -----------------  -----------------  -----------------
         O           -1.252672033650    -0.657033820848     1.034065097638    15.994914619570
         O           -1.249546033650     2.478485179152    -0.684612902362    15.994914619570
         O           -3.221101033650     1.516733179152     0.746437097638    15.994914619570
         O           -2.361600033650    -3.071202820848     0.096490097638    15.994914619570
         O            1.355958966350     2.242668179152    -0.074991902362    15.994914619570
         N            0.905861066350     0.057479779152     0.239967797638    14.003074004430
         N            3.052654966350     0.716137179152    -0.292176902362    14.003074004430
         N            4.711891966350    -0.841020820848    -0.570747902362    14.003074004430
         C           -1.294055033650     1.074064179152    -0.590526902362    12.000000000000
         C           -2.719742033650     0.650841179152    -0.255842902362    12.000000000000
         C           -0.529979033650     0.477154179152     0.601644097638    12.000000000000
         C           -2.533827033650    -0.721251820848     0.362606097638    12.000000000000
         C           -2.532915033650    -1.854758820848    -0.637739902362    12.000000000000
         C            1.215203966350    -1.265773820848     0.312824097638    12.000000000000
         C            1.751022966350     1.063069179152    -0.057852902362    12.000000000000
         C            2.520908666350    -1.544463920848     0.037595397638    12.000000000000
         C            3.407411966350    -0.555018820848    -0.257374902362    12.000000000000
         H           -0.942177033650     0.587038179152    -1.513340902362     1.007825032230
         H           -3.367153033650     0.638299179152    -1.144914902362     1.007825032230
         H           -0.444861033650     1.217514179152     1.405548097638     1.007825032230
         H           -3.286528033650    -0.913099820848     1.132333097638     1.007825032230
         H           -1.717879033650    -1.704670820848    -1.367913902362     1.007825032230
         H           -3.490132033650    -1.838369820848    -1.182584902362     1.007825032230
         H           -0.302096033650     2.708813179152    -0.523449902362     1.007825032230
         H           -2.852127033650     2.395377179152     0.510213097638     1.007825032230
         H            0.429739966350    -1.967802820848     0.570618097638     1.007825032230
         H           -2.438445033650    -3.802797820848    -0.541682902362     1.007825032230
         H            2.824540966350    -2.649763820848     0.075472097638     1.007825032230
         H            5.120608966350    -1.675226820848    -0.160863902362     1.007825032230
         H            5.315242966350    -0.024419820848    -0.566743902362     1.007825032230

  Basis Set: AUG-CC-PVTZ
    Blend: AUG-CC-PVTZ
  Basis Set: (AUG-CC-PVTZ AUX)
    Blend: AUG-CC-PVTZ-JKFIT
	 Reference Energy          =    -886.3587410601240890 [Eh]
	 Singles Energy            =      -0.0000000000000000 [Eh]
	 Same-Spin Energy          =      -0.9027151552262564 [Eh]
	 Opposite-Spin Energy      =      -2.7164638169816691 [Eh]
	 Correlation Energy        =      -3.6191789722079255 [Eh]
	 Total Energy              =    -889.9779200323320083 [Eh]

	 ================> DF-SCS-MP2 Energies <==================
	-----------------------------------------------------------
	 SCS Same-Spin Scale       =       0.3333333333333333 [-]
	 SCS Opposite-Spin Scale   =       1.2000000000000000 [-]
	 SCS Same-Spin Energy      =      -0.3009050517420855 [Eh]
	 SCS Opposite-Spin Energy  =      -3.2597565803780029 [Eh]
	 SCS Correlation Energy    =      -3.5606616321200883 [Eh]
	 SCS Total Energy          =    -889.9194026922441481 [Eh]
	-----------------------------------------------------------

  Dipole Moment: [D]
     X:     1.3243      Y:    -6.1828      Z:    -1.7329     Total:     6.5562

*** Psi4 exiting successfully. Buy a developer a beer!
