                               Psi4 1.3.2 release

  ==> Input File <==

--------------------------------------------------------------------------
#psi4
#
memory 32 gb

molecule  {
0 1
  O       -1.2481010    -0.6526680     1.0325150
  O       -1.2449750     2.4828510    -0.6861630
  O       -3.2165300     1.5210990     0.7448870
  O       -2.3570290    -3.0668370     0.0949400
  O        1.3605300     2.2470340    -0.0765420
  N        0.8434040     0.0452230     0.2559430
  N        3.0572260     0.7205030    -0.2937270
  N        4.7164630    -0.8366550    -0.5722980
  C       -1.2894840     1.0784300    -0.5920770
  C       -2.7151710     0.6552070    -0.2573930
  C       -0.5254080     0.4815200     0.6000940
  C       -2.5292560    -0.7168860     0.3610560
  C       -2.5283440    -1.8503930    -0.6392900
  C        1.2197750    -1.2614080     0.3112740
  C        1.7555940     1.0674350    -0.0594030
  C        2.5111010    -1.6091400     0.0469950
  C        3.4119830    -0.5506530    -0.2589250
  H       -0.9376060     0.5914040    -1.5148910
  H       -3.3625820     0.6426650    -1.1464650
  H       -0.4402900     1.2218800     1.4039980
  H       -3.2819570    -0.9087340     1.1307830
  H       -1.7133080    -1.7003050    -1.3694640
  H       -3.4855610    -1.8340040    -1.1841350
  H       -0.2975250     2.7131790    -0.5250000
  H       -2.8475560     2.3997430     0.5086630
  H        0.3618882    -2.0281668     0.5928376
  H       -2.4338740    -3.7984320    -0.5432330
  H        2.8291120    -2.6453980     0.0739220
  H        5.1251800    -1.6708610    -0.1624140
  H        5.3198140    -0.0200540    -0.5682940
units angstrom
no_reorient  #important for SAPT in psi4, default
symmetry c1  #important for SAPT in psi4, default
}

set PROPERTIES_ORIGIN ["COM"]
properties('MP2/aug-cc-pvtz', properties = ['dipole'])
--------------------------------------------------------------------------

    Molecular point group: c1
  Charge       = 0
  Multiplicity = 1
  Basis Set: AUG-CC-PVTZ
    Blend: AUG-CC-PVTZ
  Basis Set: (AUG-CC-PVTZ AUX)
    Blend: AUG-CC-PVTZ-JKFIT

    Orbital Energies [Eh]
    ---------------------

    Doubly Occupied:

       1A    -20.583024     2A    -20.581757     3A    -20.557902
       4A    -20.557294     5A    -20.522015     6A    -15.637212
       7A    -15.599587     8A    -15.552960     9A    -11.388354
      10A    -11.357597    11A    -11.341647    12A    -11.336532
      13A    -11.301540    14A    -11.297186    15A    -11.296717
      16A    -11.293114    17A    -11.248029    18A     -1.429494
      19A     -1.396454    20A     -1.380385    21A     -1.373362
      22A     -1.346386    23A     -1.305733    24A     -1.273313
      25A     -1.181905    26A     -1.079879    27A     -1.067955
      28A     -1.021441    29A     -0.935103    30A     -0.903114
      31A     -0.877157    32A     -0.831933    33A     -0.811671
      34A     -0.766703    35A     -0.749206    36A     -0.736326
      37A     -0.717383    38A     -0.702833    39A     -0.698611
      40A     -0.680591    41A     -0.671733    42A     -0.654105
      43A     -0.651287    44A     -0.638407    45A     -0.618515
      46A     -0.613206    47A     -0.601248    48A     -0.593217
      49A     -0.573996    50A     -0.568844    51A     -0.553366
      52A     -0.545832    53A     -0.537123    54A     -0.531902
      55A     -0.497952    56A     -0.477939    57A     -0.474622
      58A     -0.461701    59A     -0.459991    60A     -0.452894
      61A     -0.440318    62A     -0.432848    63A     -0.395031
      64A     -0.349671

  @DF-RHF Final Energy:  -886.36546908093055

   => Energetics <=

    Nuclear Repulsion Energy =           1323.2884872029858343
    One-Electron Energy =               -3844.2776009592707851
    Two-Electron Energy =                1634.6236446753543987
    Total Energy =                       -886.3654690809305521
  Basis Set: (AUG-CC-PVTZ AUX)
    Blend: AUG-CC-PVTZ-RI
    Molecular point group: c1

    Geometry (in Angstrom), charge = 0, multiplicity = 1:

       Center              X                  Y                   Z               Mass
    ------------   -----------------  -----------------  -----------------  -----------------
         O           -1.247800771253    -0.652399622117     1.032416459456    15.994914619570
         O           -1.244674771253     2.483119377883    -0.686261540544    15.994914619570
         O           -3.216229771253     1.521367377883     0.744788459456    15.994914619570
         O           -2.356728771253    -3.066568622117     0.094841459456    15.994914619570
         O            1.360830228747     2.247302377883    -0.076640540544    15.994914619570
         N            0.843704228747     0.045491377883     0.255844459456    14.003074004430
         N            3.057526228747     0.720771377883    -0.293825540544    14.003074004430
         N            4.716763228747    -0.836386622117    -0.572396540544    14.003074004430
         C           -1.289183771253     1.078698377883    -0.592175540544    12.000000000000
         C           -2.714870771253     0.655475377883    -0.257491540544    12.000000000000
         C           -0.525107771253     0.481788377883     0.599995459456    12.000000000000
         C           -2.528955771253    -0.716617622117     0.360957459456    12.000000000000
         C           -2.528043771253    -1.850124622117    -0.639388540544    12.000000000000
         C            1.220075228747    -1.261139622117     0.311175459456    12.000000000000
         C            1.755894228747     1.067703377883    -0.059501540544    12.000000000000
         C            2.511401228747    -1.608871622117     0.046896459456    12.000000000000
         C            3.412283228747    -0.550384622117    -0.259023540544    12.000000000000
         H           -0.937305771253     0.591672377883    -1.514989540544     1.007825032230
         H           -3.362281771253     0.642933377883    -1.146563540544     1.007825032230
         H           -0.439989771253     1.222148377883     1.403899459456     1.007825032230
         H           -3.281656771253    -0.908465622117     1.130684459456     1.007825032230
         H           -1.713007771253    -1.700036622117    -1.369562540544     1.007825032230
         H           -3.485260771253    -1.833735622117    -1.184233540544     1.007825032230
         H           -0.297224771253     2.713447377883    -0.525098540544     1.007825032230
         H           -2.847255771253     2.400011377883     0.508564459456     1.007825032230
         H            0.362188428747    -2.027898422117     0.592739059456     1.007825032230
         H           -2.433573771253    -3.798163622117    -0.543331540544     1.007825032230
         H            2.829412228747    -2.645129622117     0.073823459456     1.007825032230
         H            5.125480228747    -1.670592622117    -0.162512540544     1.007825032230
         H            5.320114228747    -0.019785622117    -0.568392540544     1.007825032230

  Basis Set: AUG-CC-PVTZ
    Blend: AUG-CC-PVTZ
  Basis Set: (AUG-CC-PVTZ AUX)
    Blend: AUG-CC-PVTZ-JKFIT
	 Reference Energy          =    -886.3654690809305521 [Eh]
	 Singles Energy            =      -0.0000000000000000 [Eh]
	 Same-Spin Energy          =      -0.9018298802455417 [Eh]
	 Opposite-Spin Energy      =      -2.7161277704195710 [Eh]
	 Correlation Energy        =      -3.6179576506651125 [Eh]
	 Total Energy              =    -889.9834267315956140 [Eh]

	 ================> DF-SCS-MP2 Energies <==================
	-----------------------------------------------------------
	 SCS Same-Spin Scale       =       0.3333333333333333 [-]
	 SCS Opposite-Spin Scale   =       1.2000000000000000 [-]
	 SCS Same-Spin Energy      =      -0.3006099600818472 [Eh]
	 SCS Opposite-Spin Energy  =      -3.2593533245034849 [Eh]
	 SCS Correlation Energy    =      -3.5599632845853320 [Eh]
	 SCS Total Energy          =    -889.9254323655159169 [Eh]
	-----------------------------------------------------------

  Dipole Moment: [D]
     X:     1.6428      Y:    -5.9630      Z:    -1.8124     Total:     6.4452

*** Psi4 exiting successfully. Buy a developer a beer!
