                               Psi4 1.4a3.dev225

  ==> Input File <==

--------------------------------------------------------------------------
#psi4
#
memory 32 gb

molecule  {
0 1
  O       -1.3191770     0.6538360    -1.0992360
  O       -1.5735610    -2.4640850     0.5135810
  O       -3.5606630    -1.0699430    -0.4600060
  O       -1.4399290     3.1254620     0.1265180
  O        1.1065530    -2.3833650     0.0076020
  N        0.7686360    -0.1579440    -0.3706350
  N        2.9363770    -0.9938720     0.1460080
  N        4.7058880     0.4431110     0.3611260
  C       -1.3768610    -1.0680440     0.5552780
  C       -2.7379840    -0.3746360     0.4578480
  C       -0.6377490    -0.5042940    -0.6790150
  C       -2.3707440     0.9655450    -0.1585060
  C       -1.8992030     1.9895750     0.8571380
  C        1.2309690     1.1190800    -0.4442230
  C        1.6104480    -1.2470590    -0.0585760
  C        2.5474650     1.3753690    -0.1998620
  C        3.3317683     0.2453319     0.0705993
  H       -0.8441360    -0.7686950     1.4698480
  H       -3.2257400    -0.2778790     1.4400230
  H       -0.6227070    -1.2428120    -1.4883720
  H       -3.1941750     1.3785730    -0.7472070
  H       -1.0952130     1.5703990     1.4802000
  H       -2.7410530     2.2466610     1.5166010
  H       -0.6710550    -2.8260740     0.3542250
  H       -3.3063470    -2.0105220    -0.3629290
  H        0.4929290     1.8778260    -0.6840360
  H       -1.2098800     3.8154810     0.7720340
  H        2.9334840     2.3875570    -0.2389120
  H        5.1589650     1.2712730    -0.0008400
  H        5.2635310    -0.4031270     0.3606700
units angstrom
no_reorient  #important for SAPT in psi4, default
symmetry c1  #important for SAPT in psi4, default
}

set PROPERTIES_ORIGIN ["COM"]
properties('MP2/aug-cc-pvtz', properties = ['dipole'])
--------------------------------------------------------------------------

    Molecular point group: c1
  Charge       = 0
  Multiplicity = 1
  Basis Set: AUG-CC-PVTZ
    Blend: AUG-CC-PVTZ
  Basis Set: (AUG-CC-PVTZ AUX)
    Blend: AUG-CC-PVTZ-JKFIT

    Orbital Energies [Eh]
    ---------------------

    Doubly Occupied:

       1A    -20.587966     2A    -20.583289     3A    -20.561062
       4A    -20.557765     5A    -20.522793     6A    -15.637053
       7A    -15.589911     8A    -15.555676     9A    -11.388707
      10A    -11.355511    11A    -11.341990    12A    -11.327936
      13A    -11.304898    14A    -11.299416    15A    -11.298863
      16A    -11.295002    17A    -11.246709    18A     -1.431460
      19A     -1.397677    20A     -1.384579    21A     -1.377107
      22A     -1.348115    23A     -1.304999    24A     -1.265928
      25A     -1.176834    26A     -1.085232    27A     -1.069612
      28A     -1.019728    29A     -0.938129    30A     -0.910815
      31A     -0.877105    32A     -0.831133    33A     -0.813900
      34A     -0.764368    35A     -0.753114    36A     -0.736967
      37A     -0.717478    38A     -0.708373    39A     -0.700298
      40A     -0.681580    41A     -0.673331    42A     -0.656210
      43A     -0.651599    44A     -0.636562    45A     -0.623295
      46A     -0.616871    47A     -0.606925    48A     -0.593082
      49A     -0.578519    50A     -0.565315    51A     -0.556289
      52A     -0.549645    53A     -0.537723    54A     -0.526830
      55A     -0.498102    56A     -0.482193    57A     -0.475135
      58A     -0.465189    59A     -0.464210    60A     -0.454733
      61A     -0.442982    62A     -0.434864    63A     -0.394839
      64A     -0.351280

  @DF-RHF Final Energy:  -886.37077674472960

   => Energetics <=

    Nuclear Repulsion Energy =           1335.3458286876543752
    One-Electron Energy =               -3868.2636166138063345
    Two-Electron Energy =                1646.5470111814222491
    Total Energy =                       -886.3707767447297101
  Basis Set: (AUG-CC-PVTZ AUX)
    Blend: AUG-CC-PVTZ-RI
    Molecular point group: c1

    Geometry (in Angstrom), charge = 0, multiplicity = 1:

       Center              X                  Y                   Z               Mass
    ------------   -----------------  -----------------  -----------------  -----------------
         O           -1.329529363046     0.682791646852    -1.082950204064    15.994914619570
         O           -1.583913363046    -2.435129353148     0.529866795936    15.994914619570
         O           -3.571015363046    -1.040987353148    -0.443720204064    15.994914619570
         O           -1.450281363046     3.154417646852     0.142803795936    15.994914619570
         O            1.096200636954    -2.354409353148     0.023887795936    15.994914619570
         N            0.758283636954    -0.128988353148    -0.354349204064    14.003074004430
         N            2.926024636954    -0.964916353148     0.162293795936    14.003074004430
         N            4.695535636954     0.472066646852     0.377411795936    14.003074004430
         C           -1.387213363046    -1.039088353148     0.571563795936    12.000000000000
         C           -2.748336363046    -0.345680353148     0.474133795936    12.000000000000
         C           -0.648101363046    -0.475338353148    -0.662729204064    12.000000000000
         C           -2.381096363046     0.994500646852    -0.142220204064    12.000000000000
         C           -1.909555363046     2.018530646852     0.873423795936    12.000000000000
         C            1.220616636954     1.148035646852    -0.427937204064    12.000000000000
         C            1.600095636954    -1.218103353148    -0.042290204064    12.000000000000
         C            2.537112636954     1.404324646852    -0.183576204064    12.000000000000
         C            3.321415936954     0.274287546852     0.086885095936    12.000000000000
         H           -0.854488363046    -0.739739353148     1.486133795936     1.007825032230
         H           -3.236092363046    -0.248923353148     1.456308795936     1.007825032230
         H           -0.633059363046    -1.213856353148    -1.472086204064     1.007825032230
         H           -3.204527363046     1.407528646852    -0.730921204064     1.007825032230
         H           -1.105565363046     1.599354646852     1.496485795936     1.007825032230
         H           -2.751405363046     2.275616646852     1.532886795936     1.007825032230
         H           -0.681407363046    -2.797118353148     0.370510795936     1.007825032230
         H           -3.316699363046    -1.981566353148    -0.346643204064     1.007825032230
         H            0.482576636954     1.906781646852    -0.667750204064     1.007825032230
         H           -1.220232363046     3.844436646852     0.788319795936     1.007825032230
         H            2.923131636954     2.416512646852    -0.222626204064     1.007825032230
         H            5.148612636954     1.300228646852     0.015445795936     1.007825032230
         H            5.253178636954    -0.374171353148     0.376955795936     1.007825032230

  Basis Set: AUG-CC-PVTZ
    Blend: AUG-CC-PVTZ
  Basis Set: (AUG-CC-PVTZ AUX)
    Blend: AUG-CC-PVTZ-JKFIT
	 Reference Energy          =    -886.3707767447295964 [Eh]
	 Singles Energy            =      -0.0000000000000000 [Eh]
	 Same-Spin Energy          =      -0.9019217263976536 [Eh]
	 Opposite-Spin Energy      =      -2.7162205535229469 [Eh]
	 Correlation Energy        =      -3.6181422799206002 [Eh]
	 Total Energy              =    -889.9889190246501585 [Eh]

	 ================> DF-SCS-MP2 Energies <==================
	-----------------------------------------------------------
	 SCS Same-Spin Scale       =       0.3333333333333333 [-]
	 SCS Opposite-Spin Scale   =       1.2000000000000000 [-]
	 SCS Same-Spin Energy      =      -0.3006405754658845 [Eh]
	 SCS Opposite-Spin Energy  =      -3.2594646642275360 [Eh]
	 SCS Correlation Energy    =      -3.5601052396934203 [Eh]
	 SCS Total Energy          =    -889.9308819844229674 [Eh]
	-----------------------------------------------------------

  Dipole Moment: [D]
     X:     2.2130      Y:     5.7028      Z:     1.8669     Total:     6.3956

*** Psi4 exiting successfully. Buy a developer a beer!
