                               Psi4 1.3.2 release

  ==> Input File <==

--------------------------------------------------------------------------
#psi4
#
memory 32 gb

molecule  {
0 1
  O       -1.2481010    -0.6526680     1.0325150
  O       -1.2449750     2.4828510    -0.6861630
  O       -3.2165300     1.5210990     0.7448870
  O       -2.3570290    -3.0668370     0.0949400
  O        1.3605300     2.2470340    -0.0765420
  N        0.8434040     0.0452230     0.2559430
  N        3.0572260     0.7205030    -0.2937270
  N        4.7164630    -0.8366550    -0.5722980
  C       -1.2894840     1.0784300    -0.5920770
  C       -2.7151710     0.6552070    -0.2573930
  C       -0.5254080     0.4815200     0.6000940
  C       -2.5292560    -0.7168860     0.3610560
  C       -2.5283440    -1.8503930    -0.6392900
  C        1.2197750    -1.2614080     0.3112740
  C        1.7555940     1.0674350    -0.0594030
  C        2.5111010    -1.6091400     0.0469950
  C        3.4119830    -0.5506530    -0.2589250
  H       -0.9376060     0.5914040    -1.5148910
  H       -3.3625820     0.6426650    -1.1464650
  H       -0.4402900     1.2218800     1.4039980
  H       -3.2819570    -0.9087340     1.1307830
  H       -1.7133080    -1.7003050    -1.3694640
  H       -3.4855610    -1.8340040    -1.1841350
  H       -0.2975250     2.7131790    -0.5250000
  H       -2.8475560     2.3997430     0.5086630
  H        0.4343110    -1.9634370     0.5690680
  H       -2.4338740    -3.7984320    -0.5432330
  H        2.8291120    -2.6453980     0.0739220
  H        5.1654334    -1.7530197    -0.1220456
  H        5.3198140    -0.0200540    -0.5682940
units angstrom
no_reorient  #important for SAPT in psi4, default
symmetry c1  #important for SAPT in psi4, default
}

set PROPERTIES_ORIGIN ["COM"]
properties('MP2/aug-cc-pvtz', properties = ['dipole'])
--------------------------------------------------------------------------

    Molecular point group: c1
  Charge       = 0
  Multiplicity = 1
  Basis Set: AUG-CC-PVTZ
    Blend: AUG-CC-PVTZ
  Basis Set: (AUG-CC-PVTZ AUX)
    Blend: AUG-CC-PVTZ-JKFIT

    Orbital Energies [Eh]
    ---------------------

    Doubly Occupied:

       1A    -20.582124     2A    -20.581407     3A    -20.557643
       4A    -20.557068     5A    -20.521774     6A    -15.636516
       7A    -15.608466     8A    -15.553226     9A    -11.388107
      10A    -11.357619    11A    -11.341325    12A    -11.328005
      13A    -11.301045    14A    -11.296770    15A    -11.296453
      16A    -11.292805    17A    -11.248095    18A     -1.429145
      19A     -1.396142    20A     -1.379958    21A     -1.372669
      22A     -1.346134    23A     -1.304321    24A     -1.270404
      25A     -1.175198    26A     -1.081331    27A     -1.067559
      28A     -1.020629    29A     -0.934116    30A     -0.909089
      31A     -0.873336    32A     -0.830970    33A     -0.811549
      34A     -0.764512    35A     -0.750859    36A     -0.735968
      37A     -0.716256    38A     -0.702518    39A     -0.698272
      40A     -0.673457    41A     -0.672415    42A     -0.651625
      43A     -0.649712    44A     -0.637825    45A     -0.618957
      46A     -0.613487    47A     -0.606270    48A     -0.593117
      49A     -0.575493    50A     -0.569466    51A     -0.553771
      52A     -0.545308    53A     -0.537212    54A     -0.531309
      55A     -0.497828    56A     -0.477345    57A     -0.474266
      58A     -0.461977    59A     -0.459837    60A     -0.452666
      61A     -0.440330    62A     -0.432792    63A     -0.394097
      64A     -0.349608

  @DF-RHF Final Energy:  -886.36269646224866

   => Energetics <=

    Nuclear Repulsion Energy =           1323.1742392294327146
    One-Electron Energy =               -3844.0947664883265134
    Two-Electron Energy =                1634.5578307966452485
    Total Energy =                       -886.3626964622485502
  Basis Set: (AUG-CC-PVTZ AUX)
    Blend: AUG-CC-PVTZ-RI
    Molecular point group: c1

    Geometry (in Angstrom), charge = 0, multiplicity = 1:

       Center              X                  Y                   Z               Mass
    ------------   -----------------  -----------------  -----------------  -----------------
         O           -1.248267923285    -0.652327362438     1.032347641346    15.994914619570
         O           -1.245141923285     2.483191637562    -0.686330358654    15.994914619570
         O           -3.216696923285     1.521439637562     0.744719641346    15.994914619570
         O           -2.357195923285    -3.066496362438     0.094772641346    15.994914619570
         O            1.360363076715     2.247374637562    -0.076709358654    15.994914619570
         N            0.843237076715     0.045563637562     0.255775641346    14.003074004430
         N            3.057059076715     0.720843637562    -0.293894358654    14.003074004430
         N            4.716296076715    -0.836314362438    -0.572465358654    14.003074004430
         C           -1.289650923285     1.078770637562    -0.592244358654    12.000000000000
         C           -2.715337923285     0.655547637562    -0.257560358654    12.000000000000
         C           -0.525574923285     0.481860637562     0.599926641346    12.000000000000
         C           -2.529422923285    -0.716545362438     0.360888641346    12.000000000000
         C           -2.528510923285    -1.850052362438    -0.639457358654    12.000000000000
         C            1.219608076715    -1.261067362438     0.311106641346    12.000000000000
         C            1.755427076715     1.067775637562    -0.059570358654    12.000000000000
         C            2.510934076715    -1.608799362438     0.046827641346    12.000000000000
         C            3.411816076715    -0.550312362438    -0.259092358654    12.000000000000
         H           -0.937772923285     0.591744637562    -1.515058358654     1.007825032230
         H           -3.362748923285     0.643005637562    -1.146632358654     1.007825032230
         H           -0.440456923285     1.222220637562     1.403830641346     1.007825032230
         H           -3.282123923285    -0.908393362438     1.130615641346     1.007825032230
         H           -1.713474923285    -1.699964362438    -1.369631358654     1.007825032230
         H           -3.485727923285    -1.833663362438    -1.184302358654     1.007825032230
         H           -0.297691923285     2.713519637562    -0.525167358654     1.007825032230
         H           -2.847722923285     2.400083637562     0.508495641346     1.007825032230
         H            0.434144076715    -1.963096362438     0.568900641346     1.007825032230
         H           -2.434040923285    -3.798091362438    -0.543400358654     1.007825032230
         H            2.828945076715    -2.645057362438     0.073754641346     1.007825032230
         H            5.165266476715    -1.752679062438    -0.122212958654     1.007825032230
         H            5.319647076715    -0.019713362438    -0.568461358654     1.007825032230

  Basis Set: AUG-CC-PVTZ
    Blend: AUG-CC-PVTZ
  Basis Set: (AUG-CC-PVTZ AUX)
    Blend: AUG-CC-PVTZ-JKFIT
	 Reference Energy          =    -886.3626964622486639 [Eh]
	 Singles Energy            =      -0.0000000000000000 [Eh]
	 Same-Spin Energy          =      -0.9018414527903967 [Eh]
	 Opposite-Spin Energy      =      -2.7167422624821058 [Eh]
	 Correlation Energy        =      -3.6185837152725027 [Eh]
	 Total Energy              =    -889.9812801775211710 [Eh]

	 ================> DF-SCS-MP2 Energies <==================
	-----------------------------------------------------------
	 SCS Same-Spin Scale       =       0.3333333333333333 [-]
	 SCS Opposite-Spin Scale   =       1.2000000000000000 [-]
	 SCS Same-Spin Energy      =      -0.3006138175967989 [Eh]
	 SCS Opposite-Spin Energy  =      -3.2600907149785270 [Eh]
	 SCS Correlation Energy    =      -3.5607045325753259 [Eh]
	 SCS Total Energy          =    -889.9234009948239645 [Eh]
	-----------------------------------------------------------

  Dipole Moment: [D]
     X:     1.7691      Y:    -6.0193      Z:    -1.7975     Total:     6.5263

*** Psi4 exiting successfully. Buy a developer a beer!
