                               Psi4 1.4a3.dev225

  ==> Input File <==

--------------------------------------------------------------------------
#psi4
#
memory 32 gb

molecule  {
0 1
  O       -1.3191770     0.6538360    -1.0992360
  O       -1.5735610    -2.4640850     0.5135810
  O       -3.5606630    -1.0699430    -0.4600060
  O       -1.4399290     3.1254620     0.1265180
  O        1.1065530    -2.3833650     0.0076020
  N        0.7686360    -0.1579440    -0.3706350
  N        2.9363770    -0.9938720     0.1460080
  N        4.7058880     0.4431110     0.3611260
  C       -1.3768610    -1.0680440     0.5552780
  C       -2.7379840    -0.3746360     0.4578480
  C       -0.6377490    -0.5042940    -0.6790150
  C       -2.3707440     0.9655450    -0.1585060
  C       -1.8992030     1.9895750     0.8571380
  C        1.2309690     1.1190800    -0.4442230
  C        1.6104480    -1.2470590    -0.0585760
  C        2.5474650     1.3753690    -0.1998620
  C        3.3802090     0.2523040     0.0808410
  H       -0.8441360    -0.7686950     1.4698480
  H       -3.2257400    -0.2778790     1.4400230
  H       -0.6227070    -1.2428120    -1.4883720
  H       -3.1941750     1.3785730    -0.7472070
  H       -1.0952130     1.5703990     1.4802000
  H       -2.7410530     2.2466610     1.5166010
  H       -0.6710550    -2.8260740     0.3542250
  H       -3.3063470    -2.0105220    -0.3629290
  H        0.5269302     1.8428709    -0.6729879
  H       -1.2098800     3.8154810     0.7720340
  H        2.9334840     2.3875570    -0.2389120
  H        5.1589650     1.2712730    -0.0008400
  H        5.2635310    -0.4031270     0.3606700
units angstrom
no_reorient  #important for SAPT in psi4, default
symmetry c1  #important for SAPT in psi4, default
}

set PROPERTIES_ORIGIN ["COM"]
properties('MP2/aug-cc-pvtz', properties = ['dipole'])
--------------------------------------------------------------------------

    Molecular point group: c1
  Charge       = 0
  Multiplicity = 1
  Basis Set: AUG-CC-PVTZ
    Blend: AUG-CC-PVTZ
  Basis Set: (AUG-CC-PVTZ AUX)
    Blend: AUG-CC-PVTZ-JKFIT

    Orbital Energies [Eh]
    ---------------------

    Doubly Occupied:

       1A    -20.586142     2A    -20.581315     3A    -20.559327
       4A    -20.556354     5A    -20.519772     6A    -15.632954
       7A    -15.599869     8A    -15.552030     9A    -11.386003
      10A    -11.358289    11A    -11.339583    12A    -11.321005
      13A    -11.303304    14A    -11.297755    15A    -11.296939
      16A    -11.293401    17A    -11.246967    18A     -1.429153
      19A     -1.394071    20A     -1.382649    21A     -1.375307
      22A     -1.346485    23A     -1.303923    24A     -1.271727
      25A     -1.181457    26A     -1.080763    27A     -1.067904
      28A     -1.017223    29A     -0.936705    30A     -0.910901
      31A     -0.876940    32A     -0.830283    33A     -0.812573
      34A     -0.766707    35A     -0.752677    36A     -0.735062
      37A     -0.723599    38A     -0.707772    39A     -0.703808
      40A     -0.687615    41A     -0.675317    42A     -0.653430
      43A     -0.649305    44A     -0.633485    45A     -0.620732
      46A     -0.617805    47A     -0.609231    48A     -0.593398
      49A     -0.577604    50A     -0.565198    51A     -0.555737
      52A     -0.548284    53A     -0.536666    54A     -0.530966
      55A     -0.495809    56A     -0.480465    57A     -0.473605
      58A     -0.463578    59A     -0.458067    60A     -0.453018
      61A     -0.442107    62A     -0.430482    63A     -0.392401
      64A     -0.348480

  @DF-RHF Final Energy:  -886.37361177372111

   => Energetics <=

    Nuclear Repulsion Energy =           1334.7958636379703421
    One-Electron Energy =               -3867.2759848499745203
    Two-Electron Energy =                1646.1065094382831830
    Total Energy =                       -886.3736117737209952
  Basis Set: (AUG-CC-PVTZ AUX)
    Blend: AUG-CC-PVTZ-RI
    Molecular point group: c1

    Geometry (in Angstrom), charge = 0, multiplicity = 1:

       Center              X                  Y                   Z               Mass
    ------------   -----------------  -----------------  -----------------  -----------------
         O           -1.332061622718     0.682592389508    -1.083501594173    15.994914619570
         O           -1.586445622718    -2.435328610492     0.529315405827    15.994914619570
         O           -3.573547622718    -1.041186610492    -0.444271594173    15.994914619570
         O           -1.452813622718     3.154218389508     0.142252405827    15.994914619570
         O            1.093668377282    -2.354608610492     0.023336405827    15.994914619570
         N            0.755751377282    -0.129187610492    -0.354900594173    14.003074004430
         N            2.923492377282    -0.965115610492     0.161742405827    14.003074004430
         N            4.693003377282     0.471867389508     0.376860405827    14.003074004430
         C           -1.389745622718    -1.039287610492     0.571012405827    12.000000000000
         C           -2.750868622718    -0.345879610492     0.473582405827    12.000000000000
         C           -0.650633622718    -0.475537610492    -0.663280594173    12.000000000000
         C           -2.383628622718     0.994301389508    -0.142771594173    12.000000000000
         C           -1.912087622718     2.018331389508     0.872872405827    12.000000000000
         C            1.218084377282     1.147836389508    -0.428488594173    12.000000000000
         C            1.597563377282    -1.218302610492    -0.042841594173    12.000000000000
         C            2.534580377282     1.404125389508    -0.184127594173    12.000000000000
         C            3.367324377282     0.281060389508     0.096575405827    12.000000000000
         H           -0.857020622718    -0.739938610492     1.485582405827     1.007825032230
         H           -3.238624622718    -0.249122610492     1.455757405827     1.007825032230
         H           -0.635591622718    -1.214055610492    -1.472637594173     1.007825032230
         H           -3.207059622718     1.407329389508    -0.731472594173     1.007825032230
         H           -1.108097622718     1.599155389508     1.495934405827     1.007825032230
         H           -2.753937622718     2.275417389508     1.532335405827     1.007825032230
         H           -0.683939622718    -2.797317610492     0.369959405827     1.007825032230
         H           -3.319231622718    -1.981765610492    -0.347194594173     1.007825032230
         H            0.514045577282     1.871627289508    -0.657253494173     1.007825032230
         H           -1.222764622718     3.844237389508     0.787768405827     1.007825032230
         H            2.920599377282     2.416313389508    -0.223177594173     1.007825032230
         H            5.146080377282     1.300029389508     0.014894405827     1.007825032230
         H            5.250646377282    -0.374370610492     0.376404405827     1.007825032230

  Basis Set: AUG-CC-PVTZ
    Blend: AUG-CC-PVTZ
  Basis Set: (AUG-CC-PVTZ AUX)
    Blend: AUG-CC-PVTZ-JKFIT
	 Reference Energy          =    -886.3736117737211089 [Eh]
	 Singles Energy            =      -0.0000000000000000 [Eh]
	 Same-Spin Energy          =      -0.9015328030827299 [Eh]
	 Opposite-Spin Energy      =      -2.7154871361402066 [Eh]
	 Correlation Energy        =      -3.6170199392229367 [Eh]
	 Total Energy              =    -889.9906317129440367 [Eh]

	 ================> DF-SCS-MP2 Energies <==================
	-----------------------------------------------------------
	 SCS Same-Spin Scale       =       0.3333333333333333 [-]
	 SCS Opposite-Spin Scale   =       1.2000000000000000 [-]
	 SCS Same-Spin Energy      =      -0.3005109343609099 [Eh]
	 SCS Opposite-Spin Energy  =      -3.2585845633682480 [Eh]
	 SCS Correlation Energy    =      -3.5590954977291580 [Eh]
	 SCS Total Energy          =    -889.9327072714502265 [Eh]
	-----------------------------------------------------------

  Dipole Moment: [D]
     X:     2.7773      Y:     5.7799      Z:     1.9486     Total:     6.7021

*** Psi4 exiting successfully. Buy a developer a beer!
