                               Psi4 1.3.2 release

  ==> Input File <==

--------------------------------------------------------------------------
#psi4
#
memory 32 gb

molecule  {
0 1
  O       -1.2481010    -0.6526680     1.0325150
  O       -1.2449750     2.4828510    -0.6861630
  O       -3.2165300     1.5210990     0.7448870
  O       -2.3570290    -3.0668370     0.0949400
  O        1.3605300     2.2470340    -0.0765420
  N        0.8434040     0.0452230     0.2559430
  N        3.0572260     0.7205030    -0.2937270
  N        4.7164630    -0.8366550    -0.5722980
  C       -1.2894840     1.0784300    -0.5920770
  C       -2.7151710     0.6552070    -0.2573930
  C       -0.5254080     0.4815200     0.6000940
  C       -2.5292560    -0.7168860     0.3610560
  C       -2.5187106    -1.8443812    -0.6460063
  C        1.2197750    -1.2614080     0.3112740
  C        1.7555940     1.0674350    -0.0594030
  C        2.5111010    -1.6091400     0.0469950
  C        3.4119830    -0.5506530    -0.2589250
  H       -0.9376060     0.5914040    -1.5148910
  H       -3.3625820     0.6426650    -1.1464650
  H       -0.4402900     1.2218800     1.4039980
  H       -3.2796020    -0.9005395     1.1350692
  H       -1.7133080    -1.7003050    -1.3694640
  H       -3.4855610    -1.8340040    -1.1841350
  H       -0.2975250     2.7131790    -0.5250000
  H       -2.8475560     2.3997430     0.5086630
  H        0.4343110    -1.9634370     0.5690680
  H       -2.4338740    -3.7984320    -0.5432330
  H        2.8291120    -2.6453980     0.0739220
  H        5.1251800    -1.6708610    -0.1624140
  H        5.3198140    -0.0200540    -0.5682940
units angstrom
no_reorient  #important for SAPT in psi4, default
symmetry c1  #important for SAPT in psi4, default
}

set PROPERTIES_ORIGIN ["COM"]
properties('MP2/aug-cc-pvtz', properties = ['dipole'])
--------------------------------------------------------------------------

    Molecular point group: c1
  Charge       = 0
  Multiplicity = 1
  Basis Set: AUG-CC-PVTZ
    Blend: AUG-CC-PVTZ
  Basis Set: (AUG-CC-PVTZ AUX)
    Blend: AUG-CC-PVTZ-JKFIT

    Orbital Energies [Eh]
    ---------------------

    Doubly Occupied:

       1A    -20.581496     2A    -20.581440     3A    -20.557872
       4A    -20.557340     5A    -20.522067     6A    -15.637006
       7A    -15.599919     8A    -15.553424     9A    -11.388337
      10A    -11.357936    11A    -11.341577    12A    -11.328604
      13A    -11.301087    14A    -11.297078    15A    -11.296764
      16A    -11.292866    17A    -11.248647    18A     -1.429381
      19A     -1.396349    20A     -1.379618    21A     -1.370607
      22A     -1.346397    23A     -1.306138    24A     -1.273876
      25A     -1.182325    26A     -1.082051    27A     -1.068026
      28A     -1.021388    29A     -0.935656    30A     -0.909700
      31A     -0.877575    32A     -0.832573    33A     -0.812059
      34A     -0.767059    35A     -0.752417    36A     -0.736145
      37A     -0.720094    38A     -0.701461    39A     -0.698136
      40A     -0.685798    41A     -0.673260    42A     -0.654685
      43A     -0.651451    44A     -0.638429    45A     -0.620703
      46A     -0.613988    47A     -0.606861    48A     -0.593833
      49A     -0.575251    50A     -0.569575    51A     -0.553616
      52A     -0.545621    53A     -0.537517    54A     -0.532163
      55A     -0.498237    56A     -0.478206    57A     -0.474193
      58A     -0.462818    59A     -0.460248    60A     -0.453184
      61A     -0.440708    62A     -0.433256    63A     -0.395270
      64A     -0.350090

  @DF-RHF Final Energy:  -886.37313965957640

   => Energetics <=

    Nuclear Repulsion Energy =           1323.7809530801239362
    One-Electron Energy =               -3845.2252863694066036
    Two-Electron Energy =                1635.0711936297061584
    Total Energy =                       -886.3731396595762817
  Basis Set: (AUG-CC-PVTZ AUX)
    Blend: AUG-CC-PVTZ-RI
    Molecular point group: c1

    Geometry (in Angstrom), charge = 0, multiplicity = 1:

       Center              X                  Y                   Z               Mass
    ------------   -----------------  -----------------  -----------------  -----------------
         O           -1.248586353785    -0.652998738571     1.032828789479    15.994914619570
         O           -1.245460353785     2.482520261429    -0.685849210521    15.994914619570
         O           -3.217015353785     1.520768261429     0.745200789479    15.994914619570
         O           -2.357514353785    -3.067167738571     0.095253789479    15.994914619570
         O            1.360044646215     2.246703261429    -0.076228210521    15.994914619570
         N            0.842918646215     0.044892261429     0.256256789479    14.003074004430
         N            3.056740646215     0.720172261429    -0.293413210521    14.003074004430
         N            4.715977646215    -0.836985738571    -0.571984210521    14.003074004430
         C           -1.289969353785     1.078099261429    -0.591763210521    12.000000000000
         C           -2.715656353785     0.654876261429    -0.257079210521    12.000000000000
         C           -0.525893353785     0.481189261429     0.600407789479    12.000000000000
         C           -2.529741353785    -0.717216738571     0.361369789479    12.000000000000
         C           -2.519195953785    -1.844711938571    -0.645692510521    12.000000000000
         C            1.219289646215    -1.261738738571     0.311587789479    12.000000000000
         C            1.755108646215     1.067104261429    -0.059089210521    12.000000000000
         C            2.510615646215    -1.609470738571     0.047308789479    12.000000000000
         C            3.411497646215    -0.550983738571    -0.258611210521    12.000000000000
         H           -0.938091353785     0.591073261429    -1.514577210521     1.007825032230
         H           -3.363067353785     0.642334261429    -1.146151210521     1.007825032230
         H           -0.440775353785     1.221549261429     1.404311789479     1.007825032230
         H           -3.280087353785    -0.900870238571     1.135382989479     1.007825032230
         H           -1.713793353785    -1.700635738571    -1.369150210521     1.007825032230
         H           -3.486046353785    -1.834334738571    -1.183821210521     1.007825032230
         H           -0.298010353785     2.712848261429    -0.524686210521     1.007825032230
         H           -2.848041353785     2.399412261429     0.508976789479     1.007825032230
         H            0.433825646215    -1.963767738571     0.569381789479     1.007825032230
         H           -2.434359353785    -3.798762738571    -0.542919210521     1.007825032230
         H            2.828626646215    -2.645728738571     0.074235789479     1.007825032230
         H            5.124694646215    -1.671191738571    -0.162100210521     1.007825032230
         H            5.319328646215    -0.020384738571    -0.567980210521     1.007825032230

  Basis Set: AUG-CC-PVTZ
    Blend: AUG-CC-PVTZ
  Basis Set: (AUG-CC-PVTZ AUX)
    Blend: AUG-CC-PVTZ-JKFIT
	 Reference Energy          =    -886.3731396595763954 [Eh]
	 Singles Energy            =      -0.0000000000000000 [Eh]
	 Same-Spin Energy          =      -0.9012708400721594 [Eh]
	 Opposite-Spin Energy      =      -2.7151056612918860 [Eh]
	 Correlation Energy        =      -3.6163765013640452 [Eh]
	 Total Energy              =    -889.9895161609404113 [Eh]

	 ================> DF-SCS-MP2 Energies <==================
	-----------------------------------------------------------
	 SCS Same-Spin Scale       =       0.3333333333333333 [-]
	 SCS Opposite-Spin Scale   =       1.2000000000000000 [-]
	 SCS Same-Spin Energy      =      -0.3004236133573864 [Eh]
	 SCS Opposite-Spin Energy  =      -3.2581267935502631 [Eh]
	 SCS Correlation Energy    =      -3.5585504069076497 [Eh]
	 SCS Total Energy          =    -889.9316900664840659 [Eh]
	-----------------------------------------------------------

  Dipole Moment: [D]
     X:     1.7243      Y:    -5.9219      Z:    -1.8339     Total:     6.4347

*** Psi4 exiting successfully. Buy a developer a beer!
