                               Psi4 1.3.2 release

  ==> Input File <==

--------------------------------------------------------------------------
#psi4
#
memory 32 gb

molecule  {
0 1
  O       -1.2481010    -0.6526680     1.0325150
  O       -1.2449750     2.4828510    -0.6861630
  O       -3.2165300     1.5210990     0.7448870
  O       -2.3570290    -3.0668370     0.0949400
  O        1.3605300     2.2470340    -0.0765420
  N        0.8524258     0.0369606     0.2550185
  N        3.0544720     0.7090583    -0.2917766
  N        4.7164630    -0.8366550    -0.5722980
  C       -1.2894840     1.0784300    -0.5920770
  C       -2.7151710     0.6552070    -0.2573930
  C       -0.5254080     0.4815200     0.6000940
  C       -2.5292560    -0.7168860     0.3610560
  C       -2.5283440    -1.8503930    -0.6392900
  C        1.2197750    -1.2614080     0.3112740
  C        1.7555940     1.0674350    -0.0594030
  C        2.5111010    -1.6091400     0.0469950
  C        3.4119830    -0.5506530    -0.2589250
  H       -0.9376060     0.5914040    -1.5148910
  H       -3.3625820     0.6426650    -1.1464650
  H       -0.4402900     1.2218800     1.4039980
  H       -3.2819570    -0.9087340     1.1307830
  H       -1.7133080    -1.7003050    -1.3694640
  H       -3.4855610    -1.8340040    -1.1841350
  H       -0.2975250     2.7131790    -0.5250000
  H       -2.8475560     2.3997430     0.5086630
  H        0.4343110    -1.9634370     0.5690680
  H       -2.4338740    -3.7984320    -0.5432330
  H        2.8291120    -2.6453980     0.0739220
  H        5.1251800    -1.6708610    -0.1624140
  H        5.3198140    -0.0200540    -0.5682940
units angstrom
no_reorient  #important for SAPT in psi4, default
symmetry c1  #important for SAPT in psi4, default
}

set PROPERTIES_ORIGIN ["COM"]
properties('MP2/aug-cc-pvtz', properties = ['dipole'])
--------------------------------------------------------------------------

    Molecular point group: c1
  Charge       = 0
  Multiplicity = 1
  Basis Set: AUG-CC-PVTZ
    Blend: AUG-CC-PVTZ
  Basis Set: (AUG-CC-PVTZ AUX)
    Blend: AUG-CC-PVTZ-JKFIT

    Orbital Energies [Eh]
    ---------------------

    Doubly Occupied:

       1A    -20.582335     2A    -20.581976     3A    -20.558239
       4A    -20.557924     5A    -20.523885     6A    -15.636981
       7A    -15.598255     8A    -15.551728     9A    -11.389507
      10A    -11.355511    11A    -11.342811    12A    -11.326640
      13A    -11.301358    14A    -11.297432    15A    -11.297222
      16A    -11.293472    17A    -11.246664    18A     -1.429562
      19A     -1.397324    20A     -1.380580    21A     -1.373014
      22A     -1.346874    23A     -1.308272    24A     -1.274536
      25A     -1.182838    26A     -1.080870    27A     -1.068093
      28A     -1.021743    29A     -0.935242    30A     -0.910206
      31A     -0.878590    32A     -0.832273    33A     -0.812061
      34A     -0.766685    35A     -0.753078    36A     -0.736571
      37A     -0.720050    38A     -0.702928    39A     -0.698779
      40A     -0.685427    41A     -0.672645    42A     -0.655314
      43A     -0.651665    44A     -0.638869    45A     -0.620933
      46A     -0.614885    47A     -0.606837    48A     -0.594439
      49A     -0.575928    50A     -0.570004    51A     -0.554198
      52A     -0.545774    53A     -0.537937    54A     -0.532048
      55A     -0.499468    56A     -0.477836    57A     -0.474938
      58A     -0.463134    59A     -0.460662    60A     -0.453339
      61A     -0.440672    62A     -0.431703    63A     -0.396059
      64A     -0.349018

  @DF-RHF Final Energy:  -886.37354841340277

   => Energetics <=

    Nuclear Repulsion Energy =           1323.9321264493694343
    One-Electron Energy =               -3845.4996612183081197
    Two-Electron Energy =                1635.1939863555357988
    Total Energy =                       -886.3735484134026592
  Basis Set: (AUG-CC-PVTZ AUX)
    Blend: AUG-CC-PVTZ-RI
    Molecular point group: c1

    Geometry (in Angstrom), charge = 0, multiplicity = 1:

       Center              X                  Y                   Z               Mass
    ------------   -----------------  -----------------  -----------------  -----------------
         O           -1.248462093974    -0.651532751616     1.032455909952    15.994914619570
         O           -1.245336093974     2.483986248384    -0.686222090048    15.994914619570
         O           -3.216891093974     1.522234248384     0.744827909952    15.994914619570
         O           -2.357390093974    -3.065701751616     0.094880909952    15.994914619570
         O            1.360168906026     2.248169248384    -0.076601090048    15.994914619570
         N            0.852064706026     0.038095848384     0.254959409952    14.003074004430
         N            3.054110906026     0.710193548384    -0.291835690048    14.003074004430
         N            4.716101906026    -0.835519751616    -0.572357090048    14.003074004430
         C           -1.289845093974     1.079565248384    -0.592136090048    12.000000000000
         C           -2.715532093974     0.656342248384    -0.257452090048    12.000000000000
         C           -0.525769093974     0.482655248384     0.600034909952    12.000000000000
         C           -2.529617093974    -0.715750751616     0.360996909952    12.000000000000
         C           -2.528705093974    -1.849257751616    -0.639349090048    12.000000000000
         C            1.219413906026    -1.260272751616     0.311214909952    12.000000000000
         C            1.755232906026     1.068570248384    -0.059462090048    12.000000000000
         C            2.510739906026    -1.608004751616     0.046935909952    12.000000000000
         C            3.411621906026    -0.549517751616    -0.258984090048    12.000000000000
         H           -0.937967093974     0.592539248384    -1.514950090048     1.007825032230
         H           -3.362943093974     0.643800248384    -1.146524090048     1.007825032230
         H           -0.440651093974     1.223015248384     1.403938909952     1.007825032230
         H           -3.282318093974    -0.907598751616     1.130723909952     1.007825032230
         H           -1.713669093974    -1.699169751616    -1.369523090048     1.007825032230
         H           -3.485922093974    -1.832868751616    -1.184194090048     1.007825032230
         H           -0.297886093974     2.714314248384    -0.525059090048     1.007825032230
         H           -2.847917093974     2.400878248384     0.508603909952     1.007825032230
         H            0.433949906026    -1.962301751616     0.569008909952     1.007825032230
         H           -2.434235093974    -3.797296751616    -0.543292090048     1.007825032230
         H            2.828750906026    -2.644262751616     0.073862909952     1.007825032230
         H            5.124818906026    -1.669725751616    -0.162473090048     1.007825032230
         H            5.319452906026    -0.018918751616    -0.568353090048     1.007825032230

  Basis Set: AUG-CC-PVTZ
    Blend: AUG-CC-PVTZ
  Basis Set: (AUG-CC-PVTZ AUX)
    Blend: AUG-CC-PVTZ-JKFIT
	 Reference Energy          =    -886.3735484134027729 [Eh]
	 Singles Energy            =      -0.0000000000000000 [Eh]
	 Same-Spin Energy          =      -0.9012766107711006 [Eh]
	 Opposite-Spin Energy      =      -2.7147634681737935 [Eh]
	 Correlation Energy        =      -3.6160400789448941 [Eh]
	 Total Energy              =    -889.9895884923477070 [Eh]

	 ================> DF-SCS-MP2 Energies <==================
	-----------------------------------------------------------
	 SCS Same-Spin Scale       =       0.3333333333333333 [-]
	 SCS Opposite-Spin Scale   =       1.2000000000000000 [-]
	 SCS Same-Spin Energy      =      -0.3004255369237002 [Eh]
	 SCS Opposite-Spin Energy  =      -3.2577161618085522 [Eh]
	 SCS Correlation Energy    =      -3.5581416987322525 [Eh]
	 SCS Total Energy          =    -889.9316901121350156 [Eh]
	-----------------------------------------------------------

  Dipole Moment: [D]
     X:     1.6287      Y:    -5.8762      Z:    -1.8166     Total:     6.3626

*** Psi4 exiting successfully. Buy a developer a beer!
