                               Psi4 1.4a3.dev225

  ==> Input File <==

--------------------------------------------------------------------------
#psi4
#
memory 32 gb

molecule  {
0 1
  O       -1.3191770     0.6538360    -1.0992360
  O       -1.5735610    -2.4640850     0.5135810
  O       -3.5606630    -1.0699430    -0.4600060
  O       -1.4399290     3.1254620     0.1265180
  O        1.1065530    -2.3833650     0.0076020
  N        0.7686360    -0.1579440    -0.3706350
  N        2.9363770    -0.9938720     0.1460080
  N        4.7058880     0.4431110     0.3611260
  C       -1.3768610    -1.0680440     0.5552780
  C       -2.7379840    -0.3746360     0.4578480
  C       -0.6377490    -0.5042940    -0.6790150
  C       -2.3707440     0.9655450    -0.1585060
  C       -1.8836653     2.0233178     0.8906045
  C        1.2309690     1.1190800    -0.4442230
  C        1.6104480    -1.2470590    -0.0585760
  C        2.5474650     1.3753690    -0.1998620
  C        3.3802090     0.2523040     0.0808410
  H       -0.8441360    -0.7686950     1.4698480
  H       -3.2257400    -0.2778790     1.4400230
  H       -0.6227070    -1.2428120    -1.4883720
  H       -3.1941750     1.3785730    -0.7472070
  H       -1.0952130     1.5703990     1.4802000
  H       -2.7410530     2.2466610     1.5166010
  H       -0.6710550    -2.8260740     0.3542250
  H       -3.3063470    -2.0105220    -0.3629290
  H        0.4929290     1.8778260    -0.6840360
  H       -1.2098800     3.8154810     0.7720340
  H        2.9334840     2.3875570    -0.2389120
  H        5.1589650     1.2712730    -0.0008400
  H        5.2635310    -0.4031270     0.3606700
units angstrom
no_reorient  #important for SAPT in psi4, default
symmetry c1  #important for SAPT in psi4, default
}

set PROPERTIES_ORIGIN ["COM"]
properties('MP2/aug-cc-pvtz', properties = ['dipole'])
--------------------------------------------------------------------------

    Molecular point group: c1
  Charge       = 0
  Multiplicity = 1
  Basis Set: AUG-CC-PVTZ
    Blend: AUG-CC-PVTZ
  Basis Set: (AUG-CC-PVTZ AUX)
    Blend: AUG-CC-PVTZ-JKFIT

    Orbital Energies [Eh]
    ---------------------

    Doubly Occupied:

       1A    -20.589464     2A    -20.581006     3A    -20.558930
       4A    -20.555601     5A    -20.519618     6A    -15.632898
       7A    -15.599681     8A    -15.551751     9A    -11.385887
      10A    -11.358075    11A    -11.339170    12A    -11.325211
      13A    -11.301984    14A    -11.298714    15A    -11.296466
      16A    -11.292194    17A    -11.246636    18A     -1.428379
      19A     -1.395147    20A     -1.387173    21A     -1.376036
      22A     -1.345884    23A     -1.303602    24A     -1.271209
      25A     -1.181141    26A     -1.079112    27A     -1.062008
      28A     -1.014403    29A     -0.936070    30A     -0.906899
      31A     -0.877204    32A     -0.829438    33A     -0.811663
      34A     -0.766420    35A     -0.750275    36A     -0.734766
      37A     -0.722435    38A     -0.709244    39A     -0.701793
      40A     -0.685529    41A     -0.674013    42A     -0.656438
      43A     -0.648639    44A     -0.633281    45A     -0.620741
      46A     -0.615260    47A     -0.606571    48A     -0.593182
      49A     -0.579673    50A     -0.565539    51A     -0.556989
      52A     -0.545927    53A     -0.535975    54A     -0.529188
      55A     -0.495405    56A     -0.484553    57A     -0.473620
      58A     -0.460126    59A     -0.457508    60A     -0.450903
      61A     -0.440381    62A     -0.429522    63A     -0.392168
      64A     -0.348199

  @DF-RHF Final Energy:  -886.37191538187062

   => Energetics <=

    Nuclear Repulsion Energy =           1333.7541871443365835
    One-Electron Energy =               -3865.2463784054757525
    Two-Electron Energy =                1645.1202758792683198
    Total Energy =                       -886.3719153818706218
  Basis Set: (AUG-CC-PVTZ AUX)
    Blend: AUG-CC-PVTZ-RI
    Molecular point group: c1

    Geometry (in Angstrom), charge = 0, multiplicity = 1:

       Center              X                  Y                   Z               Mass
    ------------   -----------------  -----------------  -----------------  -----------------
         O           -1.332687678680     0.680781741865    -1.085107874331    15.994914619570
         O           -1.587071678680    -2.437139258135     0.527709125669    15.994914619570
         O           -3.574173678680    -1.042997258135    -0.445877874331    15.994914619570
         O           -1.453439678680     3.152407741865     0.140646125669    15.994914619570
         O            1.093042321320    -2.356419258135     0.021730125669    15.994914619570
         N            0.755125321320    -0.130998258135    -0.356506874331    14.003074004430
         N            2.922866321320    -0.966926258135     0.160136125669    14.003074004430
         N            4.692377321320     0.470056741865     0.375254125669    14.003074004430
         C           -1.390371678680    -1.041098258135     0.569406125669    12.000000000000
         C           -2.751494678680    -0.347690258135     0.471976125669    12.000000000000
         C           -0.651259678680    -0.477348258135    -0.664886874331    12.000000000000
         C           -2.384254678680     0.992490741865    -0.144377874331    12.000000000000
         C           -1.897175978680     2.050263541865     0.904732625669    12.000000000000
         C            1.217458321320     1.146025741865    -0.430094874331    12.000000000000
         C            1.596937321320    -1.220113258135    -0.044447874331    12.000000000000
         C            2.533954321320     1.402314741865    -0.185733874331    12.000000000000
         C            3.366698321320     0.279249741865     0.094969125669    12.000000000000
         H           -0.857646678680    -0.741749258135     1.483976125669     1.007825032230
         H           -3.239250678680    -0.250933258135     1.454151125669     1.007825032230
         H           -0.636217678680    -1.215866258135    -1.474243874331     1.007825032230
         H           -3.207685678680     1.405518741865    -0.733078874331     1.007825032230
         H           -1.108723678680     1.597344741865     1.494328125669     1.007825032230
         H           -2.754563678680     2.273606741865     1.530729125669     1.007825032230
         H           -0.684565678680    -2.799128258135     0.368353125669     1.007825032230
         H           -3.319857678680    -1.983576258135    -0.348800874331     1.007825032230
         H            0.479418321320     1.904771741865    -0.669907874331     1.007825032230
         H           -1.223390678680     3.842426741865     0.786162125669     1.007825032230
         H            2.919973321320     2.414502741865    -0.224783874331     1.007825032230
         H            5.145454321320     1.298218741865     0.013288125669     1.007825032230
         H            5.250020321320    -0.376181258135     0.374798125669     1.007825032230

  Basis Set: AUG-CC-PVTZ
    Blend: AUG-CC-PVTZ
  Basis Set: (AUG-CC-PVTZ AUX)
    Blend: AUG-CC-PVTZ-JKFIT
	 Reference Energy          =    -886.3719153818706218 [Eh]
	 Singles Energy            =      -0.0000000000000000 [Eh]
	 Same-Spin Energy          =      -0.9017341818866456 [Eh]
	 Opposite-Spin Energy      =      -2.7159536323605940 [Eh]
	 Correlation Energy        =      -3.6176878142472395 [Eh]
	 Total Energy              =    -889.9896031961178551 [Eh]

	 ================> DF-SCS-MP2 Energies <==================
	-----------------------------------------------------------
	 SCS Same-Spin Scale       =       0.3333333333333333 [-]
	 SCS Opposite-Spin Scale   =       1.2000000000000000 [-]
	 SCS Same-Spin Energy      =      -0.3005780606288818 [Eh]
	 SCS Opposite-Spin Energy  =      -3.2591443588327125 [Eh]
	 SCS Correlation Energy    =      -3.5597224194615942 [Eh]
	 SCS Total Energy          =    -889.9316378013322719 [Eh]
	-----------------------------------------------------------

  Dipole Moment: [D]
     X:     2.7662      Y:     5.8671      Z:     1.9372     Total:     6.7696

*** Psi4 exiting successfully. Buy a developer a beer!
