                               Psi4 1.3.2 release

  ==> Input File <==

--------------------------------------------------------------------------
#psi4
#
memory 32 gb

molecule  {
0 1
  O       -1.2481010    -0.6526680     1.0325150
  O       -1.2449750     2.4828510    -0.6861630
  O       -3.2165300     1.5210990     0.7448870
  O       -2.3570290    -3.0668370     0.0949400
  O        1.3605300     2.2470340    -0.0765420
  N        0.8434040     0.0452230     0.2559430
  N        3.0572260     0.7205030    -0.2937270
  N        4.7164630    -0.8366550    -0.5722980
  C       -1.2894840     1.0784300    -0.5920770
  C       -2.7151710     0.6552070    -0.2573930
  C       -0.5254080     0.4815200     0.6000940
  C       -2.5292560    -0.7168860     0.3610560
  C       -2.5044030    -2.0203888    -0.5366827
  C        1.2197750    -1.2614080     0.3112740
  C        1.7555940     1.0674350    -0.0594030
  C        2.5111010    -1.6091400     0.0469950
  C        3.4119830    -0.5506530    -0.2589250
  H       -0.9376060     0.5914040    -1.5148910
  H       -3.3625820     0.6426650    -1.1464650
  H       -0.4402900     1.2218800     1.4039980
  H       -3.2819570    -0.9087340     1.1307830
  H       -1.7133080    -1.7003050    -1.3694640
  H       -3.4855610    -1.8340040    -1.1841350
  H       -0.2975250     2.7131790    -0.5250000
  H       -2.8475560     2.3997430     0.5086630
  H        0.4343110    -1.9634370     0.5690680
  H       -2.4338740    -3.7984320    -0.5432330
  H        2.8291120    -2.6453980     0.0739220
  H        5.1251800    -1.6708610    -0.1624140
  H        5.3198140    -0.0200540    -0.5682940
units angstrom
no_reorient  #important for SAPT in psi4, default
symmetry c1  #important for SAPT in psi4, default
}

set PROPERTIES_ORIGIN ["COM"]
properties('MP2/aug-cc-pvtz', properties = ['dipole'])
--------------------------------------------------------------------------

    Molecular point group: c1
  Charge       = 0
  Multiplicity = 1
  Basis Set: AUG-CC-PVTZ
    Blend: AUG-CC-PVTZ
  Basis Set: (AUG-CC-PVTZ AUX)
    Blend: AUG-CC-PVTZ-JKFIT

    Orbital Energies [Eh]
    ---------------------

    Doubly Occupied:

       1A    -20.605716     2A    -20.577060     3A    -20.556338
       4A    -20.554589     5A    -20.520588     6A    -15.635411
       7A    -15.599163     8A    -15.552342     9A    -11.386947
      10A    -11.357003    11A    -11.338918    12A    -11.328165
      13A    -11.312780    14A    -11.294364    15A    -11.293373
      16A    -11.291974    17A    -11.247877    18A     -1.482636
      19A     -1.424368    20A     -1.393293    21A     -1.375582
      22A     -1.344225    23A     -1.304910    24A     -1.272521
      25A     -1.181230    26A     -1.080746    27A     -1.053075
      28A     -1.015454    29A     -0.930141    30A     -0.907093
      31A     -0.876874    32A     -0.830831    33A     -0.806580
      34A     -0.772340    35A     -0.765356    36A     -0.750834
      37A     -0.728656    38A     -0.716107    39A     -0.698282
      40A     -0.686907    41A     -0.677394    42A     -0.666877
      43A     -0.651725    44A     -0.641465    45A     -0.633721
      46A     -0.623721    47A     -0.610544    48A     -0.594756
      49A     -0.580970    50A     -0.574108    51A     -0.556106
      52A     -0.540991    53A     -0.535657    54A     -0.519354
      55A     -0.495581    56A     -0.474561    57A     -0.460003
      58A     -0.454819    59A     -0.451574    60A     -0.435575
      61A     -0.429171    62A     -0.422320    63A     -0.393569
      64A     -0.348831

  @DF-RHF Final Energy:  -886.32884945011983

   => Energetics <=

    Nuclear Repulsion Energy =           1324.1501783401511148
    One-Electron Energy =               -3845.7099725728367048
    Two-Electron Energy =                1635.2309447825659845
    Total Energy =                       -886.3288494501198329
  Basis Set: (AUG-CC-PVTZ AUX)
    Blend: AUG-CC-PVTZ-RI
    Molecular point group: c1

    Geometry (in Angstrom), charge = 0, multiplicity = 1:

       Center              X                  Y                   Z               Mass
    ------------   -----------------  -----------------  -----------------  -----------------
         O           -1.249282889603    -0.644276088955     1.027449762964    15.994914619570
         O           -1.246156889603     2.491242911045    -0.691228237036    15.994914619570
         O           -3.217711889603     1.529490911045     0.739821762964    15.994914619570
         O           -2.358210889603    -3.058445088955     0.089874762964    15.994914619570
         O            1.359348110397     2.255425911045    -0.081607237036    15.994914619570
         N            0.842222110397     0.053614911045     0.250877762964    14.003074004430
         N            3.056044110397     0.728894911045    -0.298792237036    14.003074004430
         N            4.715281110397    -0.828263088955    -0.577363237036    14.003074004430
         C           -1.290665889603     1.086821911045    -0.597142237036    12.000000000000
         C           -2.716352889603     0.663598911045    -0.262458237036    12.000000000000
         C           -0.526589889603     0.489911911045     0.595028762964    12.000000000000
         C           -2.530437889603    -0.708494088955     0.355990762964    12.000000000000
         C           -2.505584889603    -2.011996888955    -0.541747937036    12.000000000000
         C            1.218593110397    -1.253016088955     0.306208762964    12.000000000000
         C            1.754412110397     1.075826911045    -0.064468237036    12.000000000000
         C            2.509919110397    -1.600748088955     0.041929762964    12.000000000000
         C            3.410801110397    -0.542261088955    -0.263990237036    12.000000000000
         H           -0.938787889603     0.599795911045    -1.519956237036     1.007825032230
         H           -3.363763889603     0.651056911045    -1.151530237036     1.007825032230
         H           -0.441471889603     1.230271911045     1.398932762964     1.007825032230
         H           -3.283138889603    -0.900342088955     1.125717762964     1.007825032230
         H           -1.714489889603    -1.691913088955    -1.374529237036     1.007825032230
         H           -3.486742889603    -1.825612088955    -1.189200237036     1.007825032230
         H           -0.298706889603     2.721570911045    -0.530065237036     1.007825032230
         H           -2.848737889603     2.408134911045     0.503597762964     1.007825032230
         H            0.433129110397    -1.955045088955     0.564002762964     1.007825032230
         H           -2.435055889603    -3.790040088955    -0.548298237036     1.007825032230
         H            2.827930110397    -2.637006088955     0.068856762964     1.007825032230
         H            5.123998110397    -1.662469088955    -0.167479237036     1.007825032230
         H            5.318632110397    -0.011662088955    -0.573359237036     1.007825032230

  Basis Set: AUG-CC-PVTZ
    Blend: AUG-CC-PVTZ
  Basis Set: (AUG-CC-PVTZ AUX)
    Blend: AUG-CC-PVTZ-JKFIT
	 Reference Energy          =    -886.3288494501198329 [Eh]
	 Singles Energy            =      -0.0000000000000000 [Eh]
	 Same-Spin Energy          =      -0.9019734438634736 [Eh]
	 Opposite-Spin Energy      =      -2.7139015675110856 [Eh]
	 Correlation Energy        =      -3.6158750113745590 [Eh]
	 Total Energy              =    -889.9447244614943884 [Eh]

	 ================> DF-SCS-MP2 Energies <==================
	-----------------------------------------------------------
	 SCS Same-Spin Scale       =       0.3333333333333333 [-]
	 SCS Opposite-Spin Scale   =       1.2000000000000000 [-]
	 SCS Same-Spin Energy      =      -0.3006578146211578 [Eh]
	 SCS Opposite-Spin Energy  =      -3.2566818810133027 [Eh]
	 SCS Correlation Energy    =      -3.5573396956344605 [Eh]
	 SCS Total Energy          =    -889.8861891457543152 [Eh]
	-----------------------------------------------------------

  Dipole Moment: [D]
     X:     1.7246      Y:    -6.7538      Z:    -1.4038     Total:     7.1104

*** Psi4 exiting successfully. Buy a developer a beer!
