                               Psi4 1.3.2 release

  ==> Input File <==

--------------------------------------------------------------------------
#psi4
#
memory 32 gb

molecule  {
0 1
  O       -1.2481010    -0.6526680     1.0325150
  O       -1.2449750     2.4828510    -0.6861630
  O       -3.2165300     1.5210990     0.7448870
  O       -2.3570290    -3.0668370     0.0949400
  O        1.3605300     2.2470340    -0.0765420
  N        0.8434040     0.0452230     0.2559430
  N        3.0572260     0.7205030    -0.2937270
  N        4.7164630    -0.8366550    -0.5722980
  C       -1.2894840     1.0784300    -0.5920770
  C       -2.7151710     0.6552070    -0.2573930
  C       -0.4327522     0.4519868     0.5767982
  C       -2.5292560    -0.7168860     0.3610560
  C       -2.5283440    -1.8503930    -0.6392900
  C        1.2197750    -1.2614080     0.3112740
  C        1.7555940     1.0674350    -0.0594030
  C        2.5111010    -1.6091400     0.0469950
  C        3.4119830    -0.5506530    -0.2589250
  H       -0.9376060     0.5914040    -1.5148910
  H       -3.3625820     0.6426650    -1.1464650
  H       -0.4402900     1.2218800     1.4039980
  H       -3.2819570    -0.9087340     1.1307830
  H       -1.7133080    -1.7003050    -1.3694640
  H       -3.4855610    -1.8340040    -1.1841350
  H       -0.2975250     2.7131790    -0.5250000
  H       -2.8475560     2.3997430     0.5086630
  H        0.4343110    -1.9634370     0.5690680
  H       -2.4338740    -3.7984320    -0.5432330
  H        2.8291120    -2.6453980     0.0739220
  H        5.1251800    -1.6708610    -0.1624140
  H        5.3198140    -0.0200540    -0.5682940
units angstrom
no_reorient  #important for SAPT in psi4, default
symmetry c1  #important for SAPT in psi4, default
}

set PROPERTIES_ORIGIN ["COM"]
properties('MP2/aug-cc-pvtz', properties = ['dipole'])
--------------------------------------------------------------------------

    Molecular point group: c1
  Charge       = 0
  Multiplicity = 1
  Basis Set: AUG-CC-PVTZ
    Blend: AUG-CC-PVTZ
  Basis Set: (AUG-CC-PVTZ AUX)
    Blend: AUG-CC-PVTZ-JKFIT

    Orbital Energies [Eh]
    ---------------------

    Doubly Occupied:

       1A    -20.580217     2A    -20.573687     3A    -20.555171
       4A    -20.554061     5A    -20.527196     6A    -15.643500
       7A    -15.603540     8A    -15.558004     9A    -11.394161
      10A    -11.362359    11A    -11.338351    12A    -11.333475
      13A    -11.298519    14A    -11.295191    15A    -11.293340
      16A    -11.289823    17A    -11.253641    18A     -1.426979
      19A     -1.396161    20A     -1.376991    21A     -1.368561
      22A     -1.343040    23A     -1.313532    24A     -1.286668
      25A     -1.189257    26A     -1.090682    27A     -1.061646
      28A     -1.013201    29A     -0.941211    30A     -0.916943
      31A     -0.880338    32A     -0.832163    33A     -0.806404
      34A     -0.774144    35A     -0.757311    36A     -0.732776
      37A     -0.722936    38A     -0.703625    39A     -0.694015
      40A     -0.688460    41A     -0.673421    42A     -0.655452
      43A     -0.653223    44A     -0.635494    45A     -0.621139
      46A     -0.615969    47A     -0.603222    48A     -0.599599
      49A     -0.573094    50A     -0.566546    51A     -0.553095
      52A     -0.547191    53A     -0.533392    54A     -0.527917
      55A     -0.499566    56A     -0.474225    57A     -0.470985
      58A     -0.464216    59A     -0.457581    60A     -0.445577
      61A     -0.440995    62A     -0.433933    63A     -0.395388
      64A     -0.352536

  @DF-RHF Final Energy:  -886.36253333706657

   => Energetics <=

    Nuclear Repulsion Energy =           1324.1577923452816776
    One-Electron Energy =               -3845.9105671753864044
    Two-Electron Energy =                1635.3902414930380473
    Total Energy =                       -886.3625333370664521
  Basis Set: (AUG-CC-PVTZ AUX)
    Blend: AUG-CC-PVTZ-RI
    Molecular point group: c1

    Geometry (in Angstrom), charge = 0, multiplicity = 1:

       Center              X                  Y                   Z               Mass
    ------------   -----------------  -----------------  -----------------  -----------------
         O           -1.252675019246    -0.651210073325     1.033665012629    15.994914619570
         O           -1.249549019246     2.484308926675    -0.685012987371    15.994914619570
         O           -3.221104019246     1.522556926675     0.746037012629    15.994914619570
         O           -2.361603019246    -3.065379073325     0.096090012629    15.994914619570
         O            1.355955980754     2.248491926675    -0.075391987371    15.994914619570
         N            0.838829980754     0.046680926675     0.257093012629    14.003074004430
         N            3.052651980754     0.721960926675    -0.292576987371    14.003074004430
         N            4.711888980754    -0.835197073325    -0.571147987371    14.003074004430
         C           -1.294058019246     1.079887926675    -0.590926987371    12.000000000000
         C           -2.719745019246     0.656664926675    -0.256242987371    12.000000000000
         C           -0.437326219246     0.453444726675     0.577948212629    12.000000000000
         C           -2.533830019246    -0.715428073325     0.362206012629    12.000000000000
         C           -2.532918019246    -1.848935073325    -0.638139987371    12.000000000000
         C            1.215200980754    -1.259950073325     0.312424012629    12.000000000000
         C            1.751019980754     1.068892926675    -0.058252987371    12.000000000000
         C            2.506526980754    -1.607682073325     0.048145012629    12.000000000000
         C            3.407408980754    -0.549195073325    -0.257774987371    12.000000000000
         H           -0.942180019246     0.592861926675    -1.513740987371     1.007825032230
         H           -3.367156019246     0.644122926675    -1.145314987371     1.007825032230
         H           -0.444864019246     1.223337926675     1.405148012629     1.007825032230
         H           -3.286531019246    -0.907276073325     1.131933012629     1.007825032230
         H           -1.717882019246    -1.698847073325    -1.368313987371     1.007825032230
         H           -3.490135019246    -1.832546073325    -1.182984987371     1.007825032230
         H           -0.302099019246     2.714636926675    -0.523849987371     1.007825032230
         H           -2.852130019246     2.401200926675     0.509813012629     1.007825032230
         H            0.429736980754    -1.961979073325     0.570218012629     1.007825032230
         H           -2.438448019246    -3.796974073325    -0.542082987371     1.007825032230
         H            2.824537980754    -2.643940073325     0.075072012629     1.007825032230
         H            5.120605980754    -1.669403073325    -0.161263987371     1.007825032230
         H            5.315239980754    -0.018596073325    -0.567143987371     1.007825032230

  Basis Set: AUG-CC-PVTZ
    Blend: AUG-CC-PVTZ
  Basis Set: (AUG-CC-PVTZ AUX)
    Blend: AUG-CC-PVTZ-JKFIT
	 Reference Energy          =    -886.3625333370665658 [Eh]
	 Singles Energy            =      -0.0000000000000000 [Eh]
	 Same-Spin Energy          =      -0.9019160236139737 [Eh]
	 Opposite-Spin Energy      =      -2.7161139892316761 [Eh]
	 Correlation Energy        =      -3.6180300128456500 [Eh]
	 Total Energy              =    -889.9805633499122450 [Eh]

	 ================> DF-SCS-MP2 Energies <==================
	-----------------------------------------------------------
	 SCS Same-Spin Scale       =       0.3333333333333333 [-]
	 SCS Opposite-Spin Scale   =       1.2000000000000000 [-]
	 SCS Same-Spin Energy      =      -0.3006386745379912 [Eh]
	 SCS Opposite-Spin Energy  =      -3.2593367870780114 [Eh]
	 SCS Correlation Energy    =      -3.5599754616160029 [Eh]
	 SCS Total Energy          =    -889.9225087986825429 [Eh]
	-----------------------------------------------------------

  Dipole Moment: [D]
     X:     2.2666      Y:    -5.9760      Z:    -1.9096     Total:     6.6706

*** Psi4 exiting successfully. Buy a developer a beer!
