                               Psi4 1.3.2 release

  ==> Input File <==

--------------------------------------------------------------------------
#psi4
#
memory 32 gb

molecule  {
0 1
  O       -1.2481010    -0.6526680     1.0325150
  O       -1.2449750     2.4828510    -0.6861630
  O       -3.2165300     1.5210990     0.7448870
  O       -2.3570290    -3.0668370     0.0949400
  O        1.3605300     2.2470340    -0.0765420
  N        0.8434040     0.0452230     0.2559430
  N        3.0572260     0.7205030    -0.2937270
  N        4.7164630    -0.8366550    -0.5722980
  C       -1.2894840     1.0784300    -0.5920770
  C       -2.7151710     0.6552070    -0.2573930
  C       -0.5254080     0.4815200     0.6000940
  C       -2.5292560    -0.7168860     0.3610560
  C       -2.5283440    -1.8503930    -0.6392900
  C        1.2197750    -1.2614080     0.3112740
  C        1.7555940     1.0674350    -0.0594030
  C        2.5111010    -1.6091400     0.0469950
  C        3.4660231    -0.6014131    -0.2663426
  H       -0.9376060     0.5914040    -1.5148910
  H       -3.3625820     0.6426650    -1.1464650
  H       -0.4402900     1.2218800     1.4039980
  H       -3.2819570    -0.9087340     1.1307830
  H       -1.7133080    -1.7003050    -1.3694640
  H       -3.4855610    -1.8340040    -1.1841350
  H       -0.2975250     2.7131790    -0.5250000
  H       -2.8475560     2.3997430     0.5086630
  H        0.4343110    -1.9634370     0.5690680
  H       -2.4338740    -3.7984320    -0.5432330
  H        2.8814647    -2.6281289     0.0603778
  H        5.1251800    -1.6708610    -0.1624140
  H        5.3198140    -0.0200540    -0.5682940
units angstrom
no_reorient  #important for SAPT in psi4, default
symmetry c1  #important for SAPT in psi4, default
}

set PROPERTIES_ORIGIN ["COM"]
properties('MP2/aug-cc-pvtz', properties = ['dipole'])
--------------------------------------------------------------------------

    Molecular point group: c1
  Charge       = 0
  Multiplicity = 1
  Basis Set: AUG-CC-PVTZ
    Blend: AUG-CC-PVTZ
  Basis Set: (AUG-CC-PVTZ AUX)
    Blend: AUG-CC-PVTZ-JKFIT

    Orbital Energies [Eh]
    ---------------------

    Doubly Occupied:

       1A    -20.581386     2A    -20.579887     3A    -20.556220
       4A    -20.554683     5A    -20.514464     6A    -15.633911
       7A    -15.613066     8A    -15.546618     9A    -11.380848
      10A    -11.360437    11A    -11.339122    12A    -11.330608
      13A    -11.300105    14A    -11.295516    15A    -11.294512
      16A    -11.291329    17A    -11.248589    18A     -1.426825
      19A     -1.389862    20A     -1.378238    21A     -1.371443
      22A     -1.344098    23A     -1.312065    24A     -1.281122
      25A     -1.172184    26A     -1.079112    27A     -1.066139
      28A     -1.019944    29A     -0.935467    30A     -0.907906
      31A     -0.873362    32A     -0.831733    33A     -0.810768
      34A     -0.772568    35A     -0.750051    36A     -0.736172
      37A     -0.731210    38A     -0.703338    39A     -0.697152
      40A     -0.686726    41A     -0.674364    42A     -0.651425
      43A     -0.647600    44A     -0.633426    45A     -0.621526
      46A     -0.612073    47A     -0.607709    48A     -0.588860
      49A     -0.574430    50A     -0.570826    51A     -0.554876
      52A     -0.547116    53A     -0.537183    54A     -0.532666
      55A     -0.494930    56A     -0.476212    57A     -0.472545
      58A     -0.460128    59A     -0.451660    60A     -0.450634
      61A     -0.437931    62A     -0.423504    63A     -0.385236
      64A     -0.348020

  @DF-RHF Final Energy:  -886.36353918115583

   => Energetics <=

    Nuclear Repulsion Energy =           1322.6624393777351543
    One-Electron Energy =               -3843.1446216025815374
    Two-Electron Energy =                1634.1186430436905539
    Total Energy =                       -886.3635391811558293
  Basis Set: (AUG-CC-PVTZ AUX)
    Blend: AUG-CC-PVTZ-RI
    Molecular point group: c1

    Geometry (in Angstrom), charge = 0, multiplicity = 1:

       Center              X                  Y                   Z               Mass
    ------------   -----------------  -----------------  -----------------  -----------------
         O           -1.250985794658    -0.650233797288     1.032937333679    15.994914619570
         O           -1.247859794658     2.485285202712    -0.685740666321    15.994914619570
         O           -3.219414794658     1.523533202712     0.745309333679    15.994914619570
         O           -2.359913794658    -3.064402797288     0.095362333679    15.994914619570
         O            1.357645205342     2.249468202712    -0.076119666321    15.994914619570
         N            0.840519205342     0.047657202712     0.256365333679    14.003074004430
         N            3.054341205342     0.722937202712    -0.293304666321    14.003074004430
         N            4.713578205342    -0.834220797288    -0.571875666321    14.003074004430
         C           -1.292368794658     1.080864202712    -0.591654666321    12.000000000000
         C           -2.718055794658     0.657641202712    -0.256970666321    12.000000000000
         C           -0.528292794658     0.483954202712     0.600516333679    12.000000000000
         C           -2.532140794658    -0.714451797288     0.361478333679    12.000000000000
         C           -2.531228794658    -1.847958797288    -0.638867666321    12.000000000000
         C            1.216890205342    -1.258973797288     0.311696333679    12.000000000000
         C            1.752709205342     1.069869202712    -0.058980666321    12.000000000000
         C            2.508216205342    -1.606705797288     0.047417333679    12.000000000000
         C            3.463138305342    -0.598978897288    -0.265920266321    12.000000000000
         H           -0.940490794658     0.593838202712    -1.514468666321     1.007825032230
         H           -3.365466794658     0.645099202712    -1.146042666321     1.007825032230
         H           -0.443174794658     1.224314202712     1.404420333679     1.007825032230
         H           -3.284841794658    -0.906299797288     1.131205333679     1.007825032230
         H           -1.716192794658    -1.697870797288    -1.369041666321     1.007825032230
         H           -3.488445794658    -1.831569797288    -1.183712666321     1.007825032230
         H           -0.300409794658     2.715613202712    -0.524577666321     1.007825032230
         H           -2.850440794658     2.402177202712     0.509085333679     1.007825032230
         H            0.431426205342    -1.961002797288     0.569490333679     1.007825032230
         H           -2.436758794658    -3.795997797288    -0.542810666321     1.007825032230
         H            2.878579905342    -2.625694697288     0.060800133679     1.007825032230
         H            5.122295205342    -1.668426797288    -0.161991666321     1.007825032230
         H            5.316929205342    -0.017619797288    -0.567871666321     1.007825032230

  Basis Set: AUG-CC-PVTZ
    Blend: AUG-CC-PVTZ
  Basis Set: (AUG-CC-PVTZ AUX)
    Blend: AUG-CC-PVTZ-JKFIT
	 Reference Energy          =    -886.3635391811558293 [Eh]
	 Singles Energy            =      -0.0000000000000000 [Eh]
	 Same-Spin Energy          =      -0.9019625394141321 [Eh]
	 Opposite-Spin Energy      =      -2.7158096535636935 [Eh]
	 Correlation Energy        =      -3.6177721929778257 [Eh]
	 Total Energy              =    -889.9813113741336110 [Eh]

	 ================> DF-SCS-MP2 Energies <==================
	-----------------------------------------------------------
	 SCS Same-Spin Scale       =       0.3333333333333333 [-]
	 SCS Opposite-Spin Scale   =       1.2000000000000000 [-]
	 SCS Same-Spin Energy      =      -0.3006541798047107 [Eh]
	 SCS Opposite-Spin Energy  =      -3.2589715842764320 [Eh]
	 SCS Correlation Energy    =      -3.5596257640811428 [Eh]
	 SCS Total Energy          =    -889.9231649452369766 [Eh]
	-----------------------------------------------------------

  Dipole Moment: [D]
     X:     2.3148      Y:    -6.2697      Z:    -1.9284     Total:     6.9561

*** Psi4 exiting successfully. Buy a developer a beer!
