                               Psi4 1.3.2 release

  ==> Input File <==

--------------------------------------------------------------------------
#psi4
#
memory 32 gb

molecule  {
0 1
  O       -1.2481010    -0.6526680     1.0325150
  O       -1.2449750     2.4828510    -0.6861630
  O       -3.2165300     1.5210990     0.7448870
  O       -2.3570290    -3.0668370     0.0949400
  O        1.3605300     2.2470340    -0.0765420
  N        0.8434040     0.0452230     0.2559430
  N        3.0572260     0.7205030    -0.2937270
  N        4.7164630    -0.8366550    -0.5722980
  C       -1.2894840     1.0784300    -0.5920770
  C       -2.7151710     0.6552070    -0.2573930
  C       -0.5254080     0.4815200     0.6000940
  C       -2.5292560    -0.7168860     0.3610560
  C       -2.5283440    -1.8503930    -0.6392900
  C        1.2197750    -1.2614080     0.3112740
  C        1.7555940     1.0674350    -0.0594030
  C        2.5111010    -1.6091400     0.0469950
  C        3.4125279    -0.5408751    -0.2658093
  H       -0.9376060     0.5914040    -1.5148910
  H       -3.3625820     0.6426650    -1.1464650
  H       -0.4402900     1.2218800     1.4039980
  H       -3.2819570    -0.9087340     1.1307830
  H       -1.7133080    -1.7003050    -1.3694640
  H       -3.4855610    -1.8340040    -1.1841350
  H       -0.2975250     2.7131790    -0.5250000
  H       -2.8475560     2.3997430     0.5086630
  H        0.4343110    -1.9634370     0.5690680
  H       -2.4338740    -3.7984320    -0.5432330
  H        2.8291120    -2.6453980     0.0739220
  H        5.1328072    -1.6691212    -0.1665745
  H        5.3198140    -0.0200540    -0.5682940
units angstrom
no_reorient  #important for SAPT in psi4, default
symmetry c1  #important for SAPT in psi4, default
}

set PROPERTIES_ORIGIN ["COM"]
properties('MP2/aug-cc-pvtz', properties = ['dipole'])
--------------------------------------------------------------------------

    Molecular point group: c1
  Charge       = 0
  Multiplicity = 1
  Basis Set: AUG-CC-PVTZ
    Blend: AUG-CC-PVTZ
  Basis Set: (AUG-CC-PVTZ AUX)
    Blend: AUG-CC-PVTZ-JKFIT

    Orbital Energies [Eh]
    ---------------------

    Doubly Occupied:

       1A    -20.582068     2A    -20.581416     3A    -20.557732
       4A    -20.557329     5A    -20.522956     6A    -15.636334
       7A    -15.599518     8A    -15.553639     9A    -11.389324
      10A    -11.357916    11A    -11.341403    12A    -11.327160
      13A    -11.301027    14A    -11.296790    15A    -11.296566
      16A    -11.292878    17A    -11.248689    18A     -1.429293
      19A     -1.397007    20A     -1.380078    21A     -1.372681
      22A     -1.346339    23A     -1.306872    24A     -1.274018
      25A     -1.184208    26A     -1.080620    27A     -1.067620
      28A     -1.020883    29A     -0.935109    30A     -0.908627
      31A     -0.878480    32A     -0.832354    33A     -0.811647
      34A     -0.766574    35A     -0.752138    36A     -0.736157
      37A     -0.720889    38A     -0.702920    39A     -0.698385
      40A     -0.685696    41A     -0.672577    42A     -0.655089
      43A     -0.651347    44A     -0.638522    45A     -0.619927
      46A     -0.614470    47A     -0.606171    48A     -0.594416
      49A     -0.575670    50A     -0.569700    51A     -0.554006
      52A     -0.545755    53A     -0.537501    54A     -0.531726
      55A     -0.498158    56A     -0.477381    57A     -0.474397
      58A     -0.462366    59A     -0.460419    60A     -0.452806
      61A     -0.440463    62A     -0.433402    63A     -0.396415
      64A     -0.349438

  @DF-RHF Final Energy:  -886.37368530815797

   => Energetics <=

    Nuclear Repulsion Energy =           1323.7402466125488445
    One-Electron Energy =               -3845.1409374137497252
    Two-Electron Energy =                1635.0270054930426795
    Total Energy =                       -886.3736853081579739
  Basis Set: (AUG-CC-PVTZ AUX)
    Blend: AUG-CC-PVTZ-RI
    Molecular point group: c1

    Geometry (in Angstrom), charge = 0, multiplicity = 1:

       Center              X                  Y                   Z               Mass
    ------------   -----------------  -----------------  -----------------  -----------------
         O           -1.248159555246    -0.653157892401     1.032872102613    15.994914619570
         O           -1.245033555246     2.482361107599    -0.685805897387    15.994914619570
         O           -3.216588555246     1.520609107599     0.745244102613    15.994914619570
         O           -2.357087555246    -3.067326892401     0.095297102613    15.994914619570
         O            1.360471444754     2.246544107599    -0.076184897387    15.994914619570
         N            0.843345444754     0.044733107599     0.256300102613    14.003074004430
         N            3.057167444754     0.720013107599    -0.293369897387    14.003074004430
         N            4.716404444754    -0.837144892401    -0.571940897387    14.003074004430
         C           -1.289542555246     1.077940107599    -0.591719897387    12.000000000000
         C           -2.715229555246     0.654717107599    -0.257035897387    12.000000000000
         C           -0.525466555246     0.481030107599     0.600451102613    12.000000000000
         C           -2.529314555246    -0.717375892401     0.361413102613    12.000000000000
         C           -2.528402555246    -1.850882892401    -0.638932897387    12.000000000000
         C            1.219716444754    -1.261897892401     0.311631102613    12.000000000000
         C            1.755535444754     1.066945107599    -0.059045897387    12.000000000000
         C            2.511042444754    -1.609629892401     0.047352102613    12.000000000000
         C            3.412469344754    -0.541364992401    -0.265452197387    12.000000000000
         H           -0.937664555246     0.590914107599    -1.514533897387     1.007825032230
         H           -3.362640555246     0.642175107599    -1.146107897387     1.007825032230
         H           -0.440348555246     1.221390107599     1.404355102613     1.007825032230
         H           -3.282015555246    -0.909223892401     1.131140102613     1.007825032230
         H           -1.713366555246    -1.700794892401    -1.369106897387     1.007825032230
         H           -3.485619555246    -1.834493892401    -1.183777897387     1.007825032230
         H           -0.297583555246     2.712689107599    -0.524642897387     1.007825032230
         H           -2.847614555246     2.399253107599     0.509020102613     1.007825032230
         H            0.434252444754    -1.963926892401     0.569425102613     1.007825032230
         H           -2.433932555246    -3.798921892401    -0.542875897387     1.007825032230
         H            2.829053444754    -2.645887892401     0.074279102613     1.007825032230
         H            5.132748644754    -1.669611092401    -0.166217397387     1.007825032230
         H            5.319755444754    -0.020543892401    -0.567936897387     1.007825032230

  Basis Set: AUG-CC-PVTZ
    Blend: AUG-CC-PVTZ
  Basis Set: (AUG-CC-PVTZ AUX)
    Blend: AUG-CC-PVTZ-JKFIT
	 Reference Energy          =    -886.3736853081579739 [Eh]
	 Singles Energy            =      -0.0000000000000000 [Eh]
	 Same-Spin Energy          =      -0.9010567667170133 [Eh]
	 Opposite-Spin Energy      =      -2.7147257196798602 [Eh]
	 Correlation Energy        =      -3.6157824863968733 [Eh]
	 Total Energy              =    -889.9894677945547983 [Eh]

	 ================> DF-SCS-MP2 Energies <==================
	-----------------------------------------------------------
	 SCS Same-Spin Scale       =       0.3333333333333333 [-]
	 SCS Opposite-Spin Scale   =       1.2000000000000000 [-]
	 SCS Same-Spin Energy      =      -0.3003522555723377 [Eh]
	 SCS Opposite-Spin Energy  =      -3.2576708636158322 [Eh]
	 SCS Correlation Energy    =      -3.5580231191881699 [Eh]
	 SCS Total Energy          =    -889.9317084273461660 [Eh]
	-----------------------------------------------------------

  Dipole Moment: [D]
     X:     1.7330      Y:    -5.9103      Z:    -1.8369     Total:     6.4272

*** Psi4 exiting successfully. Buy a developer a beer!
