                               Psi4 1.3.2 release

  ==> Input File <==

--------------------------------------------------------------------------
#psi4
#
memory 32 gb

molecule  {
0 1
  O       -1.2481010    -0.6526680     1.0325150
  O       -1.2449750     2.4828510    -0.6861630
  O       -3.1779177     1.5091182     0.7733331
  O       -2.3570290    -3.0668370     0.0949400
  O        1.3605300     2.2470340    -0.0765420
  N        0.8434040     0.0452230     0.2559430
  N        3.0572260     0.7205030    -0.2937270
  N        4.7164630    -0.8366550    -0.5722980
  C       -1.2894840     1.0784300    -0.5920770
  C       -2.7151710     0.6552070    -0.2573930
  C       -0.5254080     0.4815200     0.6000940
  C       -2.5292560    -0.7168860     0.3610560
  C       -2.5283440    -1.8503930    -0.6392900
  C        1.2197750    -1.2614080     0.3112740
  C        1.7555940     1.0674350    -0.0594030
  C        2.5111010    -1.6091400     0.0469950
  C        3.4119830    -0.5506530    -0.2589250
  H       -0.9376060     0.5914040    -1.5148910
  H       -3.3385394     0.6175782    -1.1627897
  H       -0.4402900     1.2218800     1.4039980
  H       -3.2819570    -0.9087340     1.1307830
  H       -1.7133080    -1.7003050    -1.3694640
  H       -3.4855610    -1.8340040    -1.1841350
  H       -0.2975250     2.7131790    -0.5250000
  H       -2.8475560     2.3997430     0.5086630
  H        0.4343110    -1.9634370     0.5690680
  H       -2.4338740    -3.7984320    -0.5432330
  H        2.8291120    -2.6453980     0.0739220
  H        5.1251800    -1.6708610    -0.1624140
  H        5.3198140    -0.0200540    -0.5682940
units angstrom
no_reorient  #important for SAPT in psi4, default
symmetry c1  #important for SAPT in psi4, default
}

set PROPERTIES_ORIGIN ["COM"]
properties('MP2/aug-cc-pvtz', properties = ['dipole'])
--------------------------------------------------------------------------

    Molecular point group: c1
  Charge       = 0
  Multiplicity = 1
  Basis Set: AUG-CC-PVTZ
    Blend: AUG-CC-PVTZ
  Basis Set: (AUG-CC-PVTZ AUX)
    Blend: AUG-CC-PVTZ-JKFIT

    Orbital Energies [Eh]
    ---------------------

    Doubly Occupied:

       1A    -20.582063     2A    -20.580691     3A    -20.560001
       4A    -20.556682     5A    -20.521523     6A    -15.636344
       7A    -15.599518     8A    -15.552944     9A    -11.387785
      10A    -11.357457    11A    -11.340520    12A    -11.328067
      13A    -11.300902    14A    -11.296281    15A    -11.295585
      16A    -11.293385    17A    -11.248121    18A     -1.428930
      19A     -1.395980    20A     -1.380127    21A     -1.372474
      22A     -1.346067    23A     -1.305611    24A     -1.273304
      25A     -1.181845    26A     -1.081460    27A     -1.067735
      28A     -1.020733    29A     -0.935159    30A     -0.909014
      31A     -0.876915    32A     -0.831877    33A     -0.811292
      34A     -0.766510    35A     -0.751962    36A     -0.735570
      37A     -0.719681    38A     -0.702719    39A     -0.698083
      40A     -0.685237    41A     -0.674455    42A     -0.654045
      43A     -0.651198    44A     -0.637613    45A     -0.620358
      46A     -0.614021    47A     -0.605483    48A     -0.593367
      49A     -0.575616    50A     -0.569451    51A     -0.552913
      52A     -0.546128    53A     -0.536937    54A     -0.531531
      55A     -0.497300    56A     -0.477478    57A     -0.475834
      58A     -0.461275    59A     -0.459995    60A     -0.452113
      61A     -0.440548    62A     -0.432676    63A     -0.394764
      64A     -0.349503

  @DF-RHF Final Energy:  -886.37177173291559

   => Energetics <=

    Nuclear Repulsion Energy =           1324.5294239371562526
    One-Electron Energy =               -3846.7608779315428364
    Two-Electron Energy =                1635.8596822614706525
    Total Energy =                       -886.3717717329157040
  Basis Set: (AUG-CC-PVTZ AUX)
    Blend: AUG-CC-PVTZ-RI
    Molecular point group: c1

    Geometry (in Angstrom), charge = 0, multiplicity = 1:

       Center              X                  Y                   Z               Mass
    ------------   -----------------  -----------------  -----------------  -----------------
         O           -1.250741385260    -0.651775649677     1.030710948981    15.994914619570
         O           -1.247615385260     2.483743350323    -0.687967051019    15.994914619570
         O           -3.180558085260     1.510010550323     0.771529048981    15.994914619570
         O           -2.359669385260    -3.065944649677     0.093135948981    15.994914619570
         O            1.357889614740     2.247926350323    -0.078346051019    15.994914619570
         N            0.840763614740     0.046115350323     0.254138948981    14.003074004430
         N            3.054585614740     0.721395350323    -0.295531051019    14.003074004430
         N            4.713822614740    -0.835762649677    -0.574102051019    14.003074004430
         C           -1.292124385260     1.079322350323    -0.593881051019    12.000000000000
         C           -2.717811385260     0.656099350323    -0.259197051019    12.000000000000
         C           -0.528048385260     0.482412350323     0.598289948981    12.000000000000
         C           -2.531896385260    -0.715993649677     0.359251948981    12.000000000000
         C           -2.530984385260    -1.849500649677    -0.641094051019    12.000000000000
         C            1.217134614740    -1.260515649677     0.309469948981    12.000000000000
         C            1.752953614740     1.068327350323    -0.061207051019    12.000000000000
         C            2.508460614740    -1.608247649677     0.045190948981    12.000000000000
         C            3.409342614740    -0.549760649677    -0.260729051019    12.000000000000
         H           -0.940246385260     0.592296350323    -1.516695051019     1.007825032230
         H           -3.341179785260     0.618470550323    -1.164593751019     1.007825032230
         H           -0.442930385260     1.222772350323     1.402193948981     1.007825032230
         H           -3.284597385260    -0.907841649677     1.128978948981     1.007825032230
         H           -1.715948385260    -1.699412649677    -1.371268051019     1.007825032230
         H           -3.488201385260    -1.833111649677    -1.185939051019     1.007825032230
         H           -0.300165385260     2.714071350323    -0.526804051019     1.007825032230
         H           -2.850196385260     2.400635350323     0.506858948981     1.007825032230
         H            0.431670614740    -1.962544649677     0.567263948981     1.007825032230
         H           -2.436514385260    -3.797539649677    -0.545037051019     1.007825032230
         H            2.826471614740    -2.644505649677     0.072117948981     1.007825032230
         H            5.122539614740    -1.669968649677    -0.164218051019     1.007825032230
         H            5.317173614740    -0.019161649677    -0.570098051019     1.007825032230

  Basis Set: AUG-CC-PVTZ
    Blend: AUG-CC-PVTZ
  Basis Set: (AUG-CC-PVTZ AUX)
    Blend: AUG-CC-PVTZ-JKFIT
	 Reference Energy          =    -886.3717717329155903 [Eh]
	 Singles Energy            =      -0.0000000000000000 [Eh]
	 Same-Spin Energy          =      -0.9015229293451783 [Eh]
	 Opposite-Spin Energy      =      -2.7154258381156939 [Eh]
	 Correlation Energy        =      -3.6169487674608725 [Eh]
	 Total Energy              =    -889.9887205003764166 [Eh]

	 ================> DF-SCS-MP2 Energies <==================
	-----------------------------------------------------------
	 SCS Same-Spin Scale       =       0.3333333333333333 [-]
	 SCS Opposite-Spin Scale   =       1.2000000000000000 [-]
	 SCS Same-Spin Energy      =      -0.3005076431150594 [Eh]
	 SCS Opposite-Spin Energy  =      -3.2585110057388325 [Eh]
	 SCS Correlation Energy    =      -3.5590186488538920 [Eh]
	 SCS Total Energy          =    -889.9307903817694978 [Eh]
	-----------------------------------------------------------

  Dipole Moment: [D]
     X:     1.5913      Y:    -5.9080      Z:    -1.8585     Total:     6.3946

*** Psi4 exiting successfully. Buy a developer a beer!
