                               Psi4 1.4a3.dev225

  ==> Input File <==

--------------------------------------------------------------------------
#psi4
#
memory 32 gb

molecule  {
0 1
  O       -1.3191770     0.6538360    -1.0992360
  O       -1.5735610    -2.4640850     0.5135810
  O       -3.5606630    -1.0699430    -0.4600060
  O       -1.4399290     3.1254620     0.1265180
  O        1.1065530    -2.3833650     0.0076020
  N        0.7686360    -0.1579440    -0.3706350
  N        2.9363770    -0.9938720     0.1460080
  N        4.7058880     0.4431110     0.3611260
  C       -1.3768610    -1.0680440     0.5552780
  C       -2.7670504    -0.3992022     0.4254189
  C       -0.6377490    -0.5042940    -0.6790150
  C       -2.3707440     0.9655450    -0.1585060
  C       -1.8992030     1.9895750     0.8571380
  C        1.2309690     1.1190800    -0.4442230
  C        1.6104480    -1.2470590    -0.0585760
  C        2.5474650     1.3753690    -0.1998620
  C        3.3802090     0.2523040     0.0808410
  H       -0.8441360    -0.7686950     1.4698480
  H       -3.2257400    -0.2778790     1.4400230
  H       -0.6227070    -1.2428120    -1.4883720
  H       -3.1941750     1.3785730    -0.7472070
  H       -1.0952130     1.5703990     1.4802000
  H       -2.7410530     2.2466610     1.5166010
  H       -0.6710550    -2.8260740     0.3542250
  H       -3.3063470    -2.0105220    -0.3629290
  H        0.4929290     1.8778260    -0.6840360
  H       -1.2098800     3.8154810     0.7720340
  H        2.9334840     2.3875570    -0.2389120
  H        5.1589650     1.2712730    -0.0008400
  H        5.2635310    -0.4031270     0.3606700
units angstrom
no_reorient  #important for SAPT in psi4, default
symmetry c1  #important for SAPT in psi4, default
}

set PROPERTIES_ORIGIN ["COM"]
properties('MP2/aug-cc-pvtz', properties = ['dipole'])
--------------------------------------------------------------------------

    Molecular point group: c1
  Charge       = 0
  Multiplicity = 1
  Basis Set: AUG-CC-PVTZ
    Blend: AUG-CC-PVTZ
  Basis Set: (AUG-CC-PVTZ AUX)
    Blend: AUG-CC-PVTZ-JKFIT

    Orbital Energies [Eh]
    ---------------------

    Doubly Occupied:

       1A    -20.586218     2A    -20.580329     3A    -20.561515
       4A    -20.558934     5A    -20.519394     6A    -15.632495
       7A    -15.599374     8A    -15.551421     9A    -11.385599
      10A    -11.357718    11A    -11.338607    12A    -11.324678
      13A    -11.303014    14A    -11.296486    15A    -11.295959
      16A    -11.294500    17A    -11.246149    18A     -1.429947
      19A     -1.394864    20A     -1.389665    21A     -1.377799
      22A     -1.355629    23A     -1.303292    24A     -1.270908
      25A     -1.180842    26A     -1.078780    27A     -1.061878
      28A     -1.014978    29A     -0.935168    30A     -0.906177
      31A     -0.876528    32A     -0.829750    33A     -0.810834
      34A     -0.766160    35A     -0.749361    36A     -0.735360
      37A     -0.721741    38A     -0.710825    39A     -0.705385
      40A     -0.684845    41A     -0.678111    42A     -0.652966
      43A     -0.649214    44A     -0.633671    45A     -0.619880
      46A     -0.615354    47A     -0.609511    48A     -0.592973
      49A     -0.580932    50A     -0.566465    51A     -0.556140
      52A     -0.554319    53A     -0.536113    54A     -0.530729
      55A     -0.494910    56A     -0.480069    57A     -0.467635
      58A     -0.462004    59A     -0.457222    60A     -0.451149
      61A     -0.438465    62A     -0.429803    63A     -0.391723
      64A     -0.347718

  @DF-RHF Final Energy:  -886.37246118252131

   => Energetics <=

    Nuclear Repulsion Energy =           1334.5144171903020833
    One-Electron Energy =               -3866.7333891384978415
    Two-Electron Energy =                1645.8465107656743385
    Total Energy =                       -886.3724611825214197
  Basis Set: (AUG-CC-PVTZ AUX)
    Blend: AUG-CC-PVTZ-RI
    Molecular point group: c1

    Geometry (in Angstrom), charge = 0, multiplicity = 1:

       Center              X                  Y                   Z               Mass
    ------------   -----------------  -----------------  -----------------  -----------------
         O           -1.330485782003     0.683660185626    -1.081854915462    15.994914619570
         O           -1.584869782003    -2.434260814374     0.530962084538    15.994914619570
         O           -3.571971782003    -1.040118814374    -0.442624915462    15.994914619570
         O           -1.451237782003     3.155286185626     0.143899084538    15.994914619570
         O            1.095244217997    -2.353540814374     0.024983084538    15.994914619570
         N            0.757327217997    -0.128119814374    -0.353253915462    14.003074004430
         N            2.925068217997    -0.964047814374     0.163389084538    14.003074004430
         N            4.694579217997     0.472935185626     0.378507084538    14.003074004430
         C           -1.388169782003    -1.038219814374     0.572659084538    12.000000000000
         C           -2.778359182003    -0.369378014374     0.442799984538    12.000000000000
         C           -0.649057782003    -0.474469814374    -0.661633915462    12.000000000000
         C           -2.382052782003     0.995369185626    -0.141124915462    12.000000000000
         C           -1.910511782003     2.019399185626     0.874519084538    12.000000000000
         C            1.219660217997     1.148904185626    -0.426841915462    12.000000000000
         C            1.599139217997    -1.217234814374    -0.041194915462    12.000000000000
         C            2.536156217997     1.405193185626    -0.182480915462    12.000000000000
         C            3.368900217997     0.282128185626     0.098222084538    12.000000000000
         H           -0.855444782003    -0.738870814374     1.487229084538     1.007825032230
         H           -3.237048782003    -0.248054814374     1.457404084538     1.007825032230
         H           -0.634015782003    -1.212987814374    -1.470990915462     1.007825032230
         H           -3.205483782003     1.408397185626    -0.729825915462     1.007825032230
         H           -1.106521782003     1.600223185626     1.497581084538     1.007825032230
         H           -2.752361782003     2.276485185626     1.533982084538     1.007825032230
         H           -0.682363782003    -2.796249814374     0.371606084538     1.007825032230
         H           -3.317655782003    -1.980697814374    -0.345547915462     1.007825032230
         H            0.481620217997     1.907650185626    -0.666654915462     1.007825032230
         H           -1.221188782003     3.845305185626     0.789415084538     1.007825032230
         H            2.922175217997     2.417381185626    -0.221530915462     1.007825032230
         H            5.147656217997     1.301097185626     0.016541084538     1.007825032230
         H            5.252222217997    -0.373302814374     0.378051084538     1.007825032230

  Basis Set: AUG-CC-PVTZ
    Blend: AUG-CC-PVTZ
  Basis Set: (AUG-CC-PVTZ AUX)
    Blend: AUG-CC-PVTZ-JKFIT
	 Reference Energy          =    -886.3724611825213060 [Eh]
	 Singles Energy            =      -0.0000000000000000 [Eh]
	 Same-Spin Energy          =      -0.9018297150897240 [Eh]
	 Opposite-Spin Energy      =      -2.7153278742604683 [Eh]
	 Correlation Energy        =      -3.6171575893501924 [Eh]
	 Total Energy              =    -889.9896187718715055 [Eh]

	 ================> DF-SCS-MP2 Energies <==================
	-----------------------------------------------------------
	 SCS Same-Spin Scale       =       0.3333333333333333 [-]
	 SCS Opposite-Spin Scale   =       1.2000000000000000 [-]
	 SCS Same-Spin Energy      =      -0.3006099050299080 [Eh]
	 SCS Opposite-Spin Energy  =      -3.2583934491125617 [Eh]
	 SCS Correlation Energy    =      -3.5590033541424697 [Eh]
	 SCS Total Energy          =    -889.9314645366637251 [Eh]
	-----------------------------------------------------------

  Dipole Moment: [D]
     X:     2.6268      Y:     5.6933      Z:     1.8444     Total:     6.5357

*** Psi4 exiting successfully. Buy a developer a beer!
