                               Psi4 1.4a3.dev225

  ==> Input File <==

--------------------------------------------------------------------------
#psi4
#
memory 32 gb

molecule  {
0 1
  O       -1.3191770     0.6538360    -1.0992360
  O       -1.5735610    -2.4640850     0.5135810
  O       -3.5606630    -1.0699430    -0.4600060
  O       -1.4399290     3.1254620     0.1265180
  O        1.1065530    -2.3833650     0.0076020
  N        0.7686360    -0.1579440    -0.3706350
  N        2.9363770    -0.9938720     0.1460080
  N        4.7058880     0.4431110     0.3611260
  C       -1.3768610    -1.0680440     0.5552780
  C       -2.7379840    -0.3746360     0.4578480
  C       -0.6377490    -0.5042940    -0.6790150
  C       -2.3852989     0.9698594    -0.1454852
  C       -1.8992030     1.9895750     0.8571380
  C        1.2309690     1.1190800    -0.4442230
  C        1.6104480    -1.2470590    -0.0585760
  C        2.5474650     1.3753690    -0.1998620
  C        3.3802090     0.2523040     0.0808410
  H       -0.8441360    -0.7686950     1.4698480
  H       -3.2257400    -0.2778790     1.4400230
  H       -0.6227070    -1.2428120    -1.4883720
  H       -3.1941750     1.3785730    -0.7472070
  H       -1.0952130     1.5703990     1.4802000
  H       -2.7410530     2.2466610     1.5166010
  H       -0.6710550    -2.8260740     0.3542250
  H       -3.3063470    -2.0105220    -0.3629290
  H        0.4929290     1.8778260    -0.6840360
  H       -1.2098800     3.8154810     0.7720340
  H        2.9334840     2.3875570    -0.2389120
  H        5.1589650     1.2712730    -0.0008400
  H        5.2635310    -0.4031270     0.3606700
units angstrom
no_reorient  #important for SAPT in psi4, default
symmetry c1  #important for SAPT in psi4, default
}

set PROPERTIES_ORIGIN ["COM"]
properties('MP2/aug-cc-pvtz', properties = ['dipole'])
--------------------------------------------------------------------------

    Molecular point group: c1
  Charge       = 0
  Multiplicity = 1
  Basis Set: AUG-CC-PVTZ
    Blend: AUG-CC-PVTZ
  Basis Set: (AUG-CC-PVTZ AUX)
    Blend: AUG-CC-PVTZ-JKFIT

    Orbital Energies [Eh]
    ---------------------

    Doubly Occupied:

       1A    -20.587475     2A    -20.579193     3A    -20.559319
       4A    -20.556827     5A    -20.519319     6A    -15.632337
       7A    -15.599367     8A    -15.551379     9A    -11.385506
      10A    -11.357694    11A    -11.338430    12A    -11.324629
      13A    -11.304490    14A    -11.298634    15A    -11.297042
      16A    -11.294143    17A    -11.246141    18A     -1.425224
      19A     -1.393210    20A     -1.383449    21A     -1.374309
      22A     -1.346707    23A     -1.303122    24A     -1.270474
      25A     -1.180736    26A     -1.078749    27A     -1.070239
      28A     -1.016811    29A     -0.936930    30A     -0.905964
      31A     -0.876991    32A     -0.830002    33A     -0.811848
      34A     -0.766062    35A     -0.749462    36A     -0.735094
      37A     -0.721650    38A     -0.708536    39A     -0.703041
      40A     -0.684640    41A     -0.675205    42A     -0.653359
      43A     -0.648271    44A     -0.632662    45A     -0.619213
      46A     -0.614762    47A     -0.606827    48A     -0.592985
      49A     -0.577064    50A     -0.564274    51A     -0.555280
      52A     -0.548834    53A     -0.535540    54A     -0.530962
      55A     -0.495713    56A     -0.481362    57A     -0.475601
      58A     -0.463652    59A     -0.457583    60A     -0.453051
      61A     -0.442046    62A     -0.429941    63A     -0.391902
      64A     -0.347810

  @DF-RHF Final Energy:  -886.37344703148506

   => Energetics <=

    Nuclear Repulsion Energy =           1334.2559461827690939
    One-Electron Energy =               -3866.2606442114329184
    Two-Electron Energy =                1645.6312509971787676
    Total Energy =                       -886.3734470314850569
  Basis Set: (AUG-CC-PVTZ AUX)
    Blend: AUG-CC-PVTZ-RI
    Molecular point group: c1

    Geometry (in Angstrom), charge = 0, multiplicity = 1:

       Center              X                  Y                   Z               Mass
    ------------   -----------------  -----------------  -----------------  -----------------
         O           -1.331202147172     0.682234484913    -1.084098565346    15.994914619570
         O           -1.585586147172    -2.435686515087     0.528718434654    15.994914619570
         O           -3.572688147172    -1.041544515087    -0.444868565346    15.994914619570
         O           -1.451954147172     3.153860484913     0.141655434654    15.994914619570
         O            1.094527852828    -2.354966515087     0.022739434654    15.994914619570
         N            0.756610852828    -0.129545515087    -0.355497565346    14.003074004430
         N            2.924351852828    -0.965473515087     0.161145434654    14.003074004430
         N            4.693862852828     0.471509484913     0.376263434654    14.003074004430
         C           -1.388886147172    -1.039645515087     0.570415434654    12.000000000000
         C           -2.750009147172    -0.346237515087     0.472985434654    12.000000000000
         C           -0.649774147172    -0.475895515087    -0.663877565346    12.000000000000
         C           -2.397324047172     0.998257884913    -0.130347765346    12.000000000000
         C           -1.911228147172     2.017973484913     0.872275434654    12.000000000000
         C            1.218943852828     1.147478484913    -0.429085565346    12.000000000000
         C            1.598422852828    -1.218660515087    -0.043438565346    12.000000000000
         C            2.535439852828     1.403767484913    -0.184724565346    12.000000000000
         C            3.368183852828     0.280702484913     0.095978434654    12.000000000000
         H           -0.856161147172    -0.740296515087     1.484985434654     1.007825032230
         H           -3.237765147172    -0.249480515087     1.455160434654     1.007825032230
         H           -0.634732147172    -1.214413515087    -1.473234565346     1.007825032230
         H           -3.206200147172     1.406971484913    -0.732069565346     1.007825032230
         H           -1.107238147172     1.598797484913     1.495337434654     1.007825032230
         H           -2.753078147172     2.275059484913     1.531738434654     1.007825032230
         H           -0.683080147172    -2.797675515087     0.369362434654     1.007825032230
         H           -3.318372147172    -1.982123515087    -0.347791565346     1.007825032230
         H            0.480903852828     1.906224484913    -0.668898565346     1.007825032230
         H           -1.221905147172     3.843879484913     0.787171434654     1.007825032230
         H            2.921458852828     2.415955484913    -0.223774565346     1.007825032230
         H            5.146939852828     1.299671484913     0.014297434654     1.007825032230
         H            5.251505852828    -0.374728515087     0.375807434654     1.007825032230

  Basis Set: AUG-CC-PVTZ
    Blend: AUG-CC-PVTZ
  Basis Set: (AUG-CC-PVTZ AUX)
    Blend: AUG-CC-PVTZ-JKFIT
	 Reference Energy          =    -886.3734470314850569 [Eh]
	 Singles Energy            =      -0.0000000000000000 [Eh]
	 Same-Spin Energy          =      -0.9019016616823585 [Eh]
	 Opposite-Spin Energy      =      -2.7161922926998221 [Eh]
	 Correlation Energy        =      -3.6180939543821804 [Eh]
	 Total Energy              =    -889.9915409858672319 [Eh]

	 ================> DF-SCS-MP2 Energies <==================
	-----------------------------------------------------------
	 SCS Same-Spin Scale       =       0.3333333333333333 [-]
	 SCS Opposite-Spin Scale   =       1.2000000000000000 [-]
	 SCS Same-Spin Energy      =      -0.3006338872274528 [Eh]
	 SCS Opposite-Spin Energy  =      -3.2594307512397864 [Eh]
	 SCS Correlation Energy    =      -3.5600646384672392 [Eh]
	 SCS Total Energy          =    -889.9335116699522814 [Eh]
	-----------------------------------------------------------

  Dipole Moment: [D]
     X:     2.6748      Y:     5.8300      Z:     1.9806     Total:     6.7131

*** Psi4 exiting successfully. Buy a developer a beer!
