                               Psi4 1.3.2 release

  ==> Input File <==

--------------------------------------------------------------------------
#psi4
#
memory 32 gb

molecule  {
0 1
  O       -1.2481010    -0.6526680     1.0325150
  O       -1.2449750     2.4828510    -0.6861630
  O       -3.2165300     1.5210990     0.7448870
  O       -2.3570290    -3.0668370     0.0949400
  O        1.3605300     2.2470340    -0.0765420
  N        0.8434040     0.0452230     0.2559430
  N        3.0572260     0.7205030    -0.2937270
  N        4.7164630    -0.8366550    -0.5722980
  C       -1.2894840     1.0784300    -0.5920770
  C       -2.7034695     0.6743470    -0.2677704
  C       -0.5254080     0.4815200     0.6000940
  C       -2.5292560    -0.7168860     0.3610560
  C       -2.5283440    -1.8503930    -0.6392900
  C        1.2197750    -1.2614080     0.3112740
  C        1.7555940     1.0674350    -0.0594030
  C        2.5111010    -1.6091400     0.0469950
  C        3.4119830    -0.5506530    -0.2589250
  H       -0.9376060     0.5914040    -1.5148910
  H       -3.3625820     0.6426650    -1.1464650
  H       -0.4402900     1.2218800     1.4039980
  H       -3.2819570    -0.9087340     1.1307830
  H       -1.7133080    -1.7003050    -1.3694640
  H       -3.4855610    -1.8340040    -1.1841350
  H       -0.2975250     2.7131790    -0.5250000
  H       -2.8397383     2.3926622     0.4951583
  H        0.4343110    -1.9634370     0.5690680
  H       -2.4338740    -3.7984320    -0.5432330
  H        2.8291120    -2.6453980     0.0739220
  H        5.1251800    -1.6708610    -0.1624140
  H        5.3198140    -0.0200540    -0.5682940
units angstrom
no_reorient  #important for SAPT in psi4, default
symmetry c1  #important for SAPT in psi4, default
}

set PROPERTIES_ORIGIN ["COM"]
properties('MP2/aug-cc-pvtz', properties = ['dipole'])
--------------------------------------------------------------------------

    Molecular point group: c1
  Charge       = 0
  Multiplicity = 1
  Basis Set: AUG-CC-PVTZ
    Blend: AUG-CC-PVTZ
  Basis Set: (AUG-CC-PVTZ AUX)
    Blend: AUG-CC-PVTZ-JKFIT

    Orbital Energies [Eh]
    ---------------------

    Doubly Occupied:

       1A    -20.581949     2A    -20.581388     3A    -20.558490
       4A    -20.557749     5A    -20.522260     6A    -15.637169
       7A    -15.600005     8A    -15.553529     9A    -11.388501
      10A    -11.358043    11A    -11.341997    12A    -11.328696
      13A    -11.300625    14A    -11.297115    15A    -11.296402
      16A    -11.292673    17A    -11.248731    18A     -1.429377
      19A     -1.396503    20A     -1.381321    21A     -1.372804
      22A     -1.347060    23A     -1.306258    24A     -1.273961
      25A     -1.182419    26A     -1.082235    27A     -1.066060
      28A     -1.022802    29A     -0.935866    30A     -0.909470
      31A     -0.876464    32A     -0.831896    33A     -0.811977
      34A     -0.767124    35A     -0.752751    36A     -0.737575
      37A     -0.720246    38A     -0.702291    39A     -0.698021
      40A     -0.685754    41A     -0.671847    42A     -0.654737
      43A     -0.651896    44A     -0.638619    45A     -0.620944
      46A     -0.614445    47A     -0.606585    48A     -0.594084
      49A     -0.576697    50A     -0.569981    51A     -0.553062
      52A     -0.545749    53A     -0.538114    54A     -0.531882
      55A     -0.498392    56A     -0.477423    57A     -0.474553
      58A     -0.462470    59A     -0.460107    60A     -0.453528
      61A     -0.441046    62A     -0.433257    63A     -0.395456
      64A     -0.350310

  @DF-RHF Final Energy:  -886.37246566750991

   => Energetics <=

    Nuclear Repulsion Energy =           1323.8302376416290826
    One-Electron Energy =               -3845.3039217321720571
    Two-Electron Energy =                1635.1012184230330604
    Total Energy =                       -886.3724656675099141
  Basis Set: (AUG-CC-PVTZ AUX)
    Blend: AUG-CC-PVTZ-RI
    Molecular point group: c1

    Geometry (in Angstrom), charge = 0, multiplicity = 1:

       Center              X                  Y                   Z               Mass
    ------------   -----------------  -----------------  -----------------  -----------------
         O           -1.248711094434    -0.653583485741     1.033083281454    15.994914619570
         O           -1.245585094434     2.481935514259    -0.685594718546    15.994914619570
         O           -3.217140094434     1.520183514259     0.745455281454    15.994914619570
         O           -2.357639094434    -3.067752485741     0.095508281454    15.994914619570
         O            1.359919905566     2.246118514259    -0.075973718546    15.994914619570
         N            0.842793905566     0.044307514259     0.256511281454    14.003074004430
         N            3.056615905566     0.719587514259    -0.293158718546    14.003074004430
         N            4.715852905566    -0.837570485741    -0.571729718546    14.003074004430
         C           -1.290094094434     1.077514514259    -0.591508718546    12.000000000000
         C           -2.704079594434     0.673431514259    -0.267202118546    12.000000000000
         C           -0.526018094434     0.480604514259     0.600662281454    12.000000000000
         C           -2.529866094434    -0.717801485741     0.361624281454    12.000000000000
         C           -2.528954094434    -1.851308485741    -0.638721718546    12.000000000000
         C            1.219164905566    -1.262323485741     0.311842281454    12.000000000000
         C            1.754983905566     1.066519514259    -0.058834718546    12.000000000000
         C            2.510490905566    -1.610055485741     0.047563281454    12.000000000000
         C            3.411372905566    -0.551568485741    -0.258356718546    12.000000000000
         H           -0.938216094434     0.590488514259    -1.514322718546     1.007825032230
         H           -3.363192094434     0.641749514259    -1.145896718546     1.007825032230
         H           -0.440900094434     1.220964514259     1.404566281454     1.007825032230
         H           -3.282567094434    -0.909649485741     1.131351281454     1.007825032230
         H           -1.713918094434    -1.701220485741    -1.368895718546     1.007825032230
         H           -3.486171094434    -1.834919485741    -1.183566718546     1.007825032230
         H           -0.298135094434     2.712263514259    -0.524431718546     1.007825032230
         H           -2.840348394434     2.391746714259     0.495726581454     1.007825032230
         H            0.433700905566    -1.964352485741     0.569636281454     1.007825032230
         H           -2.434484094434    -3.799347485741    -0.542664718546     1.007825032230
         H            2.828501905566    -2.646313485741     0.074490281454     1.007825032230
         H            5.124569905566    -1.671776485741    -0.161845718546     1.007825032230
         H            5.319203905566    -0.020969485741    -0.567725718546     1.007825032230

  Basis Set: AUG-CC-PVTZ
    Blend: AUG-CC-PVTZ
  Basis Set: (AUG-CC-PVTZ AUX)
    Blend: AUG-CC-PVTZ-JKFIT
	 Reference Energy          =    -886.3724656675099141 [Eh]
	 Singles Energy            =      -0.0000000000000000 [Eh]
	 Same-Spin Energy          =      -0.9013218914710417 [Eh]
	 Opposite-Spin Energy      =      -2.7151484429545656 [Eh]
	 Correlation Energy        =      -3.6164703344256073 [Eh]
	 Total Energy              =    -889.9889360019354854 [Eh]

	 ================> DF-SCS-MP2 Energies <==================
	-----------------------------------------------------------
	 SCS Same-Spin Scale       =       0.3333333333333333 [-]
	 SCS Opposite-Spin Scale   =       1.2000000000000000 [-]
	 SCS Same-Spin Energy      =      -0.3004406304903472 [Eh]
	 SCS Opposite-Spin Energy  =      -3.2581781315454785 [Eh]
	 SCS Correlation Energy    =      -3.5586187620358256 [Eh]
	 SCS Total Energy          =    -889.9310844295457628 [Eh]
	-----------------------------------------------------------

  Dipole Moment: [D]
     X:     1.7464      Y:    -5.9477      Z:    -1.8380     Total:     6.4656

*** Psi4 exiting successfully. Buy a developer a beer!
