                               Psi4 1.3.2 release

  ==> Input File <==

--------------------------------------------------------------------------
#psi4
#
memory 32 gb

molecule  {
0 1
  O       -1.2481010    -0.6526680     1.0325150
  O       -1.2449750     2.4828510    -0.6861630
  O       -3.2165300     1.5210990     0.7448870
  O       -2.3570290    -3.0668370     0.0949400
  O        1.3605300     2.2470340    -0.0765420
  N        0.8434040     0.0452230     0.2559430
  N        3.0572260     0.7205030    -0.2937270
  N        4.7164630    -0.8366550    -0.5722980
  C       -1.2894840     1.0784300    -0.5920770
  C       -2.7151710     0.6552070    -0.2573930
  C       -0.5254080     0.4815200     0.6000940
  C       -2.5292560    -0.7168860     0.3610560
  C       -2.5283440    -1.8503930    -0.6392900
  C        1.2859074    -1.2411398     0.2941886
  C        1.8079667     1.0161056    -0.0657042
  C        2.5111010    -1.6091400     0.0469950
  C        3.4119830    -0.5506530    -0.2589250
  H       -0.9376060     0.5914040    -1.5148910
  H       -3.3625820     0.6426650    -1.1464650
  H       -0.4402900     1.2218800     1.4039980
  H       -3.2819570    -0.9087340     1.1307830
  H       -1.7133080    -1.7003050    -1.3694640
  H       -3.4855610    -1.8340040    -1.1841350
  H       -0.2975250     2.7131790    -0.5250000
  H       -2.8475560     2.3997430     0.5086630
  H        0.4343110    -1.9634370     0.5690680
  H       -2.4338740    -3.7984320    -0.5432330
  H        2.8291120    -2.6453980     0.0739220
  H        5.1251800    -1.6708610    -0.1624140
  H        5.3198140    -0.0200540    -0.5682940
units angstrom
no_reorient  #important for SAPT in psi4, default
symmetry c1  #important for SAPT in psi4, default
}

set PROPERTIES_ORIGIN ["COM"]
properties('MP2/aug-cc-pvtz', properties = ['dipole'])
--------------------------------------------------------------------------

    Molecular point group: c1
  Charge       = 0
  Multiplicity = 1
  Basis Set: AUG-CC-PVTZ
    Blend: AUG-CC-PVTZ
  Basis Set: (AUG-CC-PVTZ AUX)
    Blend: AUG-CC-PVTZ-JKFIT

    Orbital Energies [Eh]
    ---------------------

    Doubly Occupied:

       1A    -20.581153     2A    -20.580397     3A    -20.555366
       4A    -20.551328     5A    -20.501929     6A    -15.636950
       7A    -15.609469     8A    -15.559995     9A    -11.382961
      10A    -11.369346    11A    -11.342085    12A    -11.325470
      13A    -11.299880    14A    -11.295340    15A    -11.293751
      16A    -11.290666    17A    -11.248645    18A     -1.425881
      19A     -1.382248    20A     -1.377165    21A     -1.369586
      22A     -1.342705    23A     -1.297689    24A     -1.268843
      25A     -1.201813    26A     -1.098162    27A     -1.065693
      28A     -1.022747    29A     -0.937468    30A     -0.901844
      31A     -0.886952    32A     -0.835481    33A     -0.811023
      34A     -0.776879    35A     -0.752875    36A     -0.732851
      37A     -0.721859    38A     -0.701435    39A     -0.696120
      40A     -0.683697    41A     -0.671664    42A     -0.655123
      43A     -0.646675    44A     -0.641919    45A     -0.618948
      46A     -0.612423    47A     -0.601319    48A     -0.583658
      49A     -0.571264    50A     -0.568601    51A     -0.551748
      52A     -0.544430    53A     -0.533150    54A     -0.527683
      55A     -0.491699    56A     -0.475857    57A     -0.472141
      58A     -0.460194    59A     -0.451180    60A     -0.449009
      61A     -0.442915    62A     -0.429756    63A     -0.399649
      64A     -0.358719

  @DF-RHF Final Energy:  -886.35614523867002

   => Energetics <=

    Nuclear Repulsion Energy =           1324.0230599407145746
    One-Electron Energy =               -3845.8074616736130338
    Two-Electron Energy =                1635.4282564942284353
    Total Energy =                       -886.3561452386700239
  Basis Set: (AUG-CC-PVTZ AUX)
    Blend: AUG-CC-PVTZ-RI
    Molecular point group: c1

    Geometry (in Angstrom), charge = 0, multiplicity = 1:

       Center              X                  Y                   Z               Mass
    ------------   -----------------  -----------------  -----------------  -----------------
         O           -1.253951078797    -0.651134643082     1.033669495002    15.994914619570
         O           -1.250825078797     2.484384356918    -0.685008504998    15.994914619570
         O           -3.222380078797     1.522632356918     0.746041495002    15.994914619570
         O           -2.362879078797    -3.065303643082     0.096094495002    15.994914619570
         O            1.354679921203     2.248567356918    -0.075387504998    15.994914619570
         N            0.837553921203     0.046756356918     0.257097495002    14.003074004430
         N            3.051375921203     0.722036356918    -0.292572504998    14.003074004430
         N            4.710612921203    -0.835121643082    -0.571143504998    14.003074004430
         C           -1.295334078797     1.079963356918    -0.590922504998    12.000000000000
         C           -2.721021078797     0.656740356918    -0.256238504998    12.000000000000
         C           -0.531258078797     0.483053356918     0.601248495002    12.000000000000
         C           -2.535106078797    -0.715352643082     0.362210495002    12.000000000000
         C           -2.534194078797    -1.848859643082    -0.638135504998    12.000000000000
         C            1.280057321203    -1.239606443082     0.295343095002    12.000000000000
         C            1.802116621203     1.017638956918    -0.064549704998    12.000000000000
         C            2.505250921203    -1.607606643082     0.048149495002    12.000000000000
         C            3.406132921203    -0.549119643082    -0.257770504998    12.000000000000
         H           -0.943456078797     0.592937356918    -1.513736504998     1.007825032230
         H           -3.368432078797     0.644198356918    -1.145310504998     1.007825032230
         H           -0.446140078797     1.223413356918     1.405152495002     1.007825032230
         H           -3.287807078797    -0.907200643082     1.131937495002     1.007825032230
         H           -1.719158078797    -1.698771643082    -1.368309504998     1.007825032230
         H           -3.491411078797    -1.832470643082    -1.182980504998     1.007825032230
         H           -0.303375078797     2.714712356918    -0.523845504998     1.007825032230
         H           -2.853406078797     2.401276356918     0.509817495002     1.007825032230
         H            0.428460921203    -1.961903643082     0.570222495002     1.007825032230
         H           -2.439724078797    -3.796898643082    -0.542078504998     1.007825032230
         H            2.823261921203    -2.643864643082     0.075076495002     1.007825032230
         H            5.119329921203    -1.669327643082    -0.161259504998     1.007825032230
         H            5.313963921203    -0.018520643082    -0.567139504998     1.007825032230

  Basis Set: AUG-CC-PVTZ
    Blend: AUG-CC-PVTZ
  Basis Set: (AUG-CC-PVTZ AUX)
    Blend: AUG-CC-PVTZ-JKFIT
	 Reference Energy          =    -886.3561452386700239 [Eh]
	 Singles Energy            =      -0.0000000000000000 [Eh]
	 Same-Spin Energy          =      -0.9019014525858651 [Eh]
	 Opposite-Spin Energy      =      -2.7155020791214159 [Eh]
	 Correlation Energy        =      -3.6174035317072812 [Eh]
	 Total Energy              =    -889.9735487703773060 [Eh]

	 ================> DF-SCS-MP2 Energies <==================
	-----------------------------------------------------------
	 SCS Same-Spin Scale       =       0.3333333333333333 [-]
	 SCS Opposite-Spin Scale   =       1.2000000000000000 [-]
	 SCS Same-Spin Energy      =      -0.3006338175286217 [Eh]
	 SCS Opposite-Spin Energy  =      -3.2586024949456989 [Eh]
	 SCS Correlation Energy    =      -3.5592363124743205 [Eh]
	 SCS Total Energy          =    -889.9153815511443781 [Eh]
	-----------------------------------------------------------

  Dipole Moment: [D]
     X:     2.3096      Y:    -6.5714      Z:    -1.8736     Total:     7.2130

*** Psi4 exiting successfully. Buy a developer a beer!
