                               Psi4 1.4a3.dev225

  ==> Input File <==

--------------------------------------------------------------------------
#psi4
#
memory 32 gb

molecule  {
0 1
  O       -1.3191770     0.6538360    -1.0992360
  O       -1.5735610    -2.4640850     0.5135810
  O       -3.5606630    -1.0699430    -0.4600060
  O       -1.4399290     3.1254620     0.1265180
  O        1.1065530    -2.3833650     0.0076020
  N        0.7686360    -0.1579440    -0.3706350
  N        2.9363770    -0.9938720     0.1460080
  N        4.7058880     0.4431110     0.3611260
  C       -1.3768610    -1.0680440     0.5552780
  C       -2.7379840    -0.3746360     0.4578480
  C       -0.6377490    -0.5042940    -0.6790150
  C       -2.3707440     0.9655450    -0.1585060
  C       -1.8992030     1.9895750     0.8571380
  C        1.2309690     1.1190800    -0.4442230
  C        1.6223763    -1.2624915    -0.0541542
  C        2.5474650     1.3753690    -0.1998620
  C        3.3802090     0.2523040     0.0808410
  H       -0.8441360    -0.7686950     1.4698480
  H       -3.2257400    -0.2778790     1.4400230
  H       -0.6227070    -1.2428120    -1.4883720
  H       -3.1941750     1.3785730    -0.7472070
  H       -1.0952130     1.5703990     1.4802000
  H       -2.7410530     2.2466610     1.5166010
  H       -0.6710550    -2.8260740     0.3542250
  H       -3.3063470    -2.0105220    -0.3629290
  H        0.4929290     1.8778260    -0.6840360
  H       -1.2098800     3.8154810     0.7720340
  H        2.9334840     2.3875570    -0.2389120
  H        5.1589650     1.2712730    -0.0008400
  H        5.2635310    -0.4031270     0.3606700
units angstrom
no_reorient  #important for SAPT in psi4, default
symmetry c1  #important for SAPT in psi4, default
}

set PROPERTIES_ORIGIN ["COM"]
properties('MP2/aug-cc-pvtz', properties = ['dipole'])
--------------------------------------------------------------------------

    Molecular point group: c1
  Charge       = 0
  Multiplicity = 1
  Basis Set: AUG-CC-PVTZ
    Blend: AUG-CC-PVTZ
  Basis Set: (AUG-CC-PVTZ AUX)
    Blend: AUG-CC-PVTZ-JKFIT

    Orbital Energies [Eh]
    ---------------------

    Doubly Occupied:

       1A    -20.586265     2A    -20.580581     3A    -20.559614
       4A    -20.556174     5A    -20.522086     6A    -15.630458
       7A    -15.599943     8A    -15.550897     9A    -11.386734
      10A    -11.358958    11A    -11.338448    12A    -11.324214
      13A    -11.303071    14A    -11.297413    15A    -11.296488
      16A    -11.293121    17A    -11.244801    18A     -1.428479
      19A     -1.397084    20A     -1.382936    21A     -1.375263
      22A     -1.346577    23A     -1.304938    24A     -1.268981
      25A     -1.182911    26A     -1.078125    27A     -1.067510
      28A     -1.015940    29A     -0.935893    30A     -0.902466
      31A     -0.877785    32A     -0.829685    33A     -0.811776
      34A     -0.765880    35A     -0.749012    36A     -0.734589
      37A     -0.722208    38A     -0.707358    39A     -0.703006
      40A     -0.685152    41A     -0.674442    42A     -0.652769
      43A     -0.650481    44A     -0.632683    45A     -0.619904
      46A     -0.615011    47A     -0.607447    48A     -0.594728
      49A     -0.576689    50A     -0.564557    51A     -0.555536
      52A     -0.547866    53A     -0.536910    54A     -0.531385
      55A     -0.497227    56A     -0.480424    57A     -0.473313
      58A     -0.463846    59A     -0.459492    60A     -0.452654
      61A     -0.441650    62A     -0.428610    63A     -0.393008
      64A     -0.346956

  @DF-RHF Final Energy:  -886.37438303048134

   => Energetics <=

    Nuclear Repulsion Energy =           1334.3191897682045237
    One-Electron Energy =               -3866.3863293301114936
    Two-Electron Energy =                1645.6927565314256299
    Total Energy =                       -886.3743830304813400
  Basis Set: (AUG-CC-PVTZ AUX)
    Blend: AUG-CC-PVTZ-RI
    Molecular point group: c1

    Geometry (in Angstrom), charge = 0, multiplicity = 1:

       Center              X                  Y                   Z               Mass
    ------------   -----------------  -----------------  -----------------  -----------------
         O           -1.332509499413     0.683209297396    -1.083674072765    15.994914619570
         O           -1.586893499413    -2.434711702604     0.529142927235    15.994914619570
         O           -3.573995499413    -1.040569702604    -0.444444072765    15.994914619570
         O           -1.453261499413     3.154835297396     0.142079927235    15.994914619570
         O            1.093220500587    -2.353991702604     0.023163927235    15.994914619570
         N            0.755303500587    -0.128570702604    -0.355073072765    14.003074004430
         N            2.923044500587    -0.964498702604     0.161569927235    14.003074004430
         N            4.692555500587     0.472484297396     0.376687927235    14.003074004430
         C           -1.390193499413    -1.038670702604     0.570839927235    12.000000000000
         C           -2.751316499413    -0.345262702604     0.473409927235    12.000000000000
         C           -0.651081499413    -0.474920702604    -0.663453072765    12.000000000000
         C           -2.384076499413     0.994918297396    -0.142944072765    12.000000000000
         C           -1.912535499413     2.018948297396     0.872699927235    12.000000000000
         C            1.217636500587     1.148453297396    -0.428661072765    12.000000000000
         C            1.609043800587    -1.233118202604    -0.038592272765    12.000000000000
         C            2.534132500587     1.404742297396    -0.184300072765    12.000000000000
         C            3.366876500587     0.281677297396     0.096402927235    12.000000000000
         H           -0.857468499413    -0.739321702604     1.485409927235     1.007825032230
         H           -3.239072499413    -0.248505702604     1.455584927235     1.007825032230
         H           -0.636039499413    -1.213438702604    -1.472810072765     1.007825032230
         H           -3.207507499413     1.407946297396    -0.731645072765     1.007825032230
         H           -1.108545499413     1.599772297396     1.495761927235     1.007825032230
         H           -2.754385499413     2.276034297396     1.532162927235     1.007825032230
         H           -0.684387499413    -2.796700702604     0.369786927235     1.007825032230
         H           -3.319679499413    -1.981148702604    -0.347367072765     1.007825032230
         H            0.479596500587     1.907199297396    -0.668474072765     1.007825032230
         H           -1.223212499413     3.844854297396     0.787595927235     1.007825032230
         H            2.920151500587     2.416930297396    -0.223350072765     1.007825032230
         H            5.145632500587     1.300646297396     0.014721927235     1.007825032230
         H            5.250198500587    -0.373753702604     0.376231927235     1.007825032230

  Basis Set: AUG-CC-PVTZ
    Blend: AUG-CC-PVTZ
  Basis Set: (AUG-CC-PVTZ AUX)
    Blend: AUG-CC-PVTZ-JKFIT
	 Reference Energy          =    -886.3743830304813400 [Eh]
	 Singles Energy            =      -0.0000000000000000 [Eh]
	 Same-Spin Energy          =      -0.9016954829304442 [Eh]
	 Opposite-Spin Energy      =      -2.7155784065120168 [Eh]
	 Correlation Energy        =      -3.6172738894424610 [Eh]
	 Total Energy              =    -889.9916569199237983 [Eh]

	 ================> DF-SCS-MP2 Energies <==================
	-----------------------------------------------------------
	 SCS Same-Spin Scale       =       0.3333333333333333 [-]
	 SCS Opposite-Spin Scale   =       1.2000000000000000 [-]
	 SCS Same-Spin Energy      =      -0.3005651609768147 [Eh]
	 SCS Opposite-Spin Energy  =      -3.2586940878144199 [Eh]
	 SCS Correlation Energy    =      -3.5592592487912347 [Eh]
	 SCS Total Energy          =    -889.9336422792725898 [Eh]
	-----------------------------------------------------------

  Dipole Moment: [D]
     X:     2.7698      Y:     5.6876      Z:     1.9658     Total:     6.6246

*** Psi4 exiting successfully. Buy a developer a beer!
