                               Psi4 1.3.2 release

  ==> Input File <==

--------------------------------------------------------------------------
#psi4
#
memory 32 gb

molecule  {
0 1
  O       -1.2481010    -0.6526680     1.0325150
  O       -1.2449750     2.4828510    -0.6861630
  O       -3.2165300     1.5210990     0.7448870
  O       -2.3570290    -3.0668370     0.0949400
  O        1.3605300     2.2470340    -0.0765420
  N        0.8434040     0.0452230     0.2559430
  N        3.0572260     0.7205030    -0.2937270
  N        4.7164630    -0.8366550    -0.5722980
  C       -1.3015553     1.0787131    -0.5943651
  C       -2.7151710     0.6552070    -0.2573930
  C       -0.5254080     0.4815200     0.6000940
  C       -2.5292560    -0.7168860     0.3610560
  C       -2.5283440    -1.8503930    -0.6392900
  C        1.2197750    -1.2614080     0.3112740
  C        1.7555940     1.0674350    -0.0594030
  C        2.5111010    -1.6091400     0.0469950
  C        3.4119830    -0.5506530    -0.2589250
  H       -0.9376060     0.5914040    -1.5148910
  H       -3.3625820     0.6426650    -1.1464650
  H       -0.4402900     1.2218800     1.4039980
  H       -3.2819570    -0.9087340     1.1307830
  H       -1.7133080    -1.7003050    -1.3694640
  H       -3.4855610    -1.8340040    -1.1841350
  H       -0.2994309     2.7215342    -0.5259675
  H       -2.8475560     2.3997430     0.5086630
  H        0.4343110    -1.9634370     0.5690680
  H       -2.4338740    -3.7984320    -0.5432330
  H        2.8291120    -2.6453980     0.0739220
  H        5.1251800    -1.6708610    -0.1624140
  H        5.3198140    -0.0200540    -0.5682940
units angstrom
no_reorient  #important for SAPT in psi4, default
symmetry c1  #important for SAPT in psi4, default
}

set PROPERTIES_ORIGIN ["COM"]
properties('MP2/aug-cc-pvtz', properties = ['dipole'])
--------------------------------------------------------------------------

    Molecular point group: c1
  Charge       = 0
  Multiplicity = 1
  Basis Set: AUG-CC-PVTZ
    Blend: AUG-CC-PVTZ
  Basis Set: (AUG-CC-PVTZ AUX)
    Blend: AUG-CC-PVTZ-JKFIT

    Orbital Energies [Eh]
    ---------------------

    Doubly Occupied:

       1A    -20.582290     2A    -20.581377     3A    -20.557929
       4A    -20.556935     5A    -20.521643     6A    -15.636894
       7A    -15.599770     8A    -15.553202     9A    -11.388046
      10A    -11.357750    11A    -11.341467    12A    -11.328447
      13A    -11.301251    14A    -11.297163    15A    -11.296976
      16A    -11.292770    17A    -11.248476    18A     -1.429138
      19A     -1.396136    20A     -1.380175    21A     -1.372782
      22A     -1.346073    23A     -1.305874    24A     -1.273640
      25A     -1.182095    26A     -1.081620    27A     -1.068745
      28A     -1.021096    29A     -0.935741    30A     -0.909353
      31A     -0.877140    32A     -0.832624    33A     -0.811511
      34A     -0.766840    35A     -0.752361    36A     -0.736314
      37A     -0.720156    38A     -0.703012    39A     -0.698716
      40A     -0.685488    41A     -0.673167    42A     -0.654392
      43A     -0.651621    44A     -0.638019    45A     -0.620680
      46A     -0.614543    47A     -0.606667    48A     -0.593477
      49A     -0.576262    50A     -0.569712    51A     -0.553320
      52A     -0.545593    53A     -0.536858    54A     -0.531771
      55A     -0.498117    56A     -0.477664    57A     -0.475480
      58A     -0.462279    59A     -0.459778    60A     -0.452815
      61A     -0.440149    62A     -0.432896    63A     -0.394969
      64A     -0.349808

  @DF-RHF Final Energy:  -886.37348722744446

   => Energetics <=

    Nuclear Repulsion Energy =           1323.6064774392698382
    One-Electron Energy =               -3844.8818245496177042
    Two-Electron Energy =                1634.9018598829034090
    Total Energy =                       -886.3734872274444569
  Basis Set: (AUG-CC-PVTZ AUX)
    Blend: AUG-CC-PVTZ-RI
    Molecular point group: c1

    Geometry (in Angstrom), charge = 0, multiplicity = 1:

       Center              X                  Y                   Z               Mass
    ------------   -----------------  -----------------  -----------------  -----------------
         O           -1.247497228274    -0.652716605590     1.032631971546    15.994914619570
         O           -1.244371228274     2.482802394410    -0.686046028454    15.994914619570
         O           -3.215926228274     1.521050394410     0.745003971546    15.994914619570
         O           -2.356425228274    -3.066885605590     0.095056971546    15.994914619570
         O            1.361133771726     2.246985394410    -0.076425028454    15.994914619570
         N            0.844007771726     0.045174394410     0.256059971546    14.003074004430
         N            3.057829771726     0.720454394410    -0.293610028454    14.003074004430
         N            4.717066771726    -0.836703605590    -0.572181028454    14.003074004430
         C           -1.300951528274     1.078664494410    -0.594248128454    12.000000000000
         C           -2.714567228274     0.655158394410    -0.257276028454    12.000000000000
         C           -0.524804228274     0.481471394410     0.600210971546    12.000000000000
         C           -2.528652228274    -0.716934605590     0.361172971546    12.000000000000
         C           -2.527740228274    -1.850441605590    -0.639173028454    12.000000000000
         C            1.220378771726    -1.261456605590     0.311390971546    12.000000000000
         C            1.756197771726     1.067386394410    -0.059286028454    12.000000000000
         C            2.511704771726    -1.609188605590     0.047111971546    12.000000000000
         C            3.412586771726    -0.550701605590    -0.258808028454    12.000000000000
         H           -0.937002228274     0.591355394410    -1.514774028454     1.007825032230
         H           -3.361978228274     0.642616394410    -1.146348028454     1.007825032230
         H           -0.439686228274     1.221831394410     1.404114971546     1.007825032230
         H           -3.281353228274    -0.908782605590     1.130899971546     1.007825032230
         H           -1.712704228274    -1.700353605590    -1.369347028454     1.007825032230
         H           -3.484957228274    -1.834052605590    -1.184018028454     1.007825032230
         H           -0.298827128274     2.721485594410    -0.525850528454     1.007825032230
         H           -2.846952228274     2.399694394410     0.508779971546     1.007825032230
         H            0.434914771726    -1.963485605590     0.569184971546     1.007825032230
         H           -2.433270228274    -3.798480605590    -0.543116028454     1.007825032230
         H            2.829715771726    -2.645446605590     0.074038971546     1.007825032230
         H            5.125783771726    -1.670909605590    -0.162297028454     1.007825032230
         H            5.320417771726    -0.020102605590    -0.568177028454     1.007825032230

  Basis Set: AUG-CC-PVTZ
    Blend: AUG-CC-PVTZ
  Basis Set: (AUG-CC-PVTZ AUX)
    Blend: AUG-CC-PVTZ-JKFIT
	 Reference Energy          =    -886.3734872274444569 [Eh]
	 Singles Energy            =      -0.0000000000000000 [Eh]
	 Same-Spin Energy          =      -0.9011741659323678 [Eh]
	 Opposite-Spin Energy      =      -2.7148086528511222 [Eh]
	 Correlation Energy        =      -3.6159828187834897 [Eh]
	 Total Energy              =    -889.9894700462278934 [Eh]

	 ================> DF-SCS-MP2 Energies <==================
	-----------------------------------------------------------
	 SCS Same-Spin Scale       =       0.3333333333333333 [-]
	 SCS Opposite-Spin Scale   =       1.2000000000000000 [-]
	 SCS Same-Spin Energy      =      -0.3003913886441226 [Eh]
	 SCS Opposite-Spin Energy  =      -3.2577703834213465 [Eh]
	 SCS Correlation Energy    =      -3.5581617720654690 [Eh]
	 SCS Total Energy          =    -889.9316489995098891 [Eh]
	-----------------------------------------------------------

  Dipole Moment: [D]
     X:     1.6952      Y:    -5.9420      Z:    -1.8262     Total:     6.4433

*** Psi4 exiting successfully. Buy a developer a beer!
