                               Psi4 1.3.2 release

  ==> Input File <==

--------------------------------------------------------------------------
#psi4
#
memory 32 gb

molecule  {
0 1
  O       -1.2481010    -0.6526680     1.0325150
  O       -1.2449750     2.4828510    -0.6861630
  O       -3.2165300     1.5210990     0.7448870
  O       -2.3570290    -3.0668370     0.0949400
  O        1.3605300     2.2470340    -0.0765420
  N        0.8434040     0.0452230     0.2559430
  N        3.0572260     0.7205030    -0.2937270
  N        4.7164630    -0.8366550    -0.5722980
  C       -1.2894840     1.0784300    -0.5920770
  C       -2.7151710     0.6552070    -0.2573930
  C       -0.5254080     0.4815200     0.6000940
  C       -2.5448336    -0.7271932     0.3423048
  C       -2.5283440    -1.8503930    -0.6392900
  C        1.2197750    -1.2614080     0.3112740
  C        1.7555940     1.0674350    -0.0594030
  C        2.5111010    -1.6091400     0.0469950
  C        3.4119830    -0.5506530    -0.2589250
  H       -0.9376060     0.5914040    -1.5148910
  H       -3.3647332     0.6236991    -1.1444238
  H       -0.4402900     1.2218800     1.4039980
  H       -3.2819570    -0.9087340     1.1307830
  H       -1.7133080    -1.7003050    -1.3694640
  H       -3.4855610    -1.8340040    -1.1841350
  H       -0.2975250     2.7131790    -0.5250000
  H       -2.8475560     2.3997430     0.5086630
  H        0.4343110    -1.9634370     0.5690680
  H       -2.4338740    -3.7984320    -0.5432330
  H        2.8291120    -2.6453980     0.0739220
  H        5.1251800    -1.6708610    -0.1624140
  H        5.3198140    -0.0200540    -0.5682940
units angstrom
no_reorient  #important for SAPT in psi4, default
symmetry c1  #important for SAPT in psi4, default
}

set PROPERTIES_ORIGIN ["COM"]
properties('MP2/aug-cc-pvtz', properties = ['dipole'])
--------------------------------------------------------------------------

    Molecular point group: c1
  Charge       = 0
  Multiplicity = 1
  Basis Set: AUG-CC-PVTZ
    Blend: AUG-CC-PVTZ
  Basis Set: (AUG-CC-PVTZ AUX)
    Blend: AUG-CC-PVTZ-JKFIT

    Orbital Energies [Eh]
    ---------------------

    Doubly Occupied:

       1A    -20.583424     2A    -20.578788     3A    -20.558753
       4A    -20.557083     5A    -20.521498     6A    -15.636142
       7A    -15.599482     8A    -15.552873     9A    -11.387694
      10A    -11.357398    11A    -11.340161    12A    -11.327910
      13A    -11.302117    14A    -11.297680    15A    -11.296769
      16A    -11.294042    17A    -11.248036    18A     -1.424989
      19A     -1.394877    20A     -1.380373    21A     -1.372362
      22A     -1.346464    23A     -1.305350    24A     -1.272759
      25A     -1.181694    26A     -1.081323    27A     -1.071039
      28A     -1.021382    29A     -0.936658    30A     -0.908630
      31A     -0.877406    32A     -0.831748    33A     -0.810643
      34A     -0.766548    35A     -0.751237    36A     -0.736128
      37A     -0.719707    38A     -0.704108    39A     -0.698216
      40A     -0.685032    41A     -0.673403    42A     -0.654456
      43A     -0.650863    44A     -0.637245    45A     -0.620214
      46A     -0.613705    47A     -0.606049    48A     -0.593743
      49A     -0.575780    50A     -0.567202    51A     -0.553880
      52A     -0.546911    53A     -0.536099    54A     -0.532040
      55A     -0.497944    56A     -0.478462    57A     -0.474875
      58A     -0.463920    59A     -0.459722    60A     -0.452214
      61A     -0.441125    62A     -0.432795    63A     -0.394798
      64A     -0.349503

  @DF-RHF Final Energy:  -886.37204999988603

   => Energetics <=

    Nuclear Repulsion Energy =           1323.4135287095864442
    One-Electron Energy =               -3844.5202138821973676
    Two-Electron Energy =                1634.7346351727248930
    Total Energy =                       -886.3720499998860305
  Basis Set: (AUG-CC-PVTZ AUX)
    Blend: AUG-CC-PVTZ-RI
    Molecular point group: c1

    Geometry (in Angstrom), charge = 0, multiplicity = 1:

       Center              X                  Y                   Z               Mass
    ------------   -----------------  -----------------  -----------------  -----------------
         O           -1.247323121567    -0.652080539369     1.033432204141    15.994914619570
         O           -1.244197121567     2.483438460631    -0.685245795859    15.994914619570
         O           -3.215752121567     1.521686460631     0.745804204141    15.994914619570
         O           -2.356251121567    -3.066249539369     0.095857204141    15.994914619570
         O            1.361307878433     2.247621460631    -0.075624795859    15.994914619570
         N            0.844181878433     0.045810460631     0.256860204141    14.003074004430
         N            3.058003878433     0.721090460631    -0.292809795859    14.003074004430
         N            4.717240878433    -0.836067539369    -0.571380795859    14.003074004430
         C           -1.288706121567     1.079017460631    -0.591159795859    12.000000000000
         C           -2.714393121567     0.655794460631    -0.256475795859    12.000000000000
         C           -0.524630121567     0.482107460631     0.601011204141    12.000000000000
         C           -2.544055721567    -0.726605739369     0.343222004141    12.000000000000
         C           -2.527566121567    -1.849805539369    -0.638372795859    12.000000000000
         C            1.220552878433    -1.260820539369     0.312191204141    12.000000000000
         C            1.756371878433     1.068022460631    -0.058485795859    12.000000000000
         C            2.511878878433    -1.608552539369     0.047912204141    12.000000000000
         C            3.412760878433    -0.550065539369    -0.258007795859    12.000000000000
         H           -0.936828121567     0.591991460631    -1.513973795859     1.007825032230
         H           -3.363955321567     0.624286560631    -1.143506595859     1.007825032230
         H           -0.439512121567     1.222467460631     1.404915204141     1.007825032230
         H           -3.281179121567    -0.908146539369     1.131700204141     1.007825032230
         H           -1.712530121567    -1.699717539369    -1.368546795859     1.007825032230
         H           -3.484783121567    -1.833416539369    -1.183217795859     1.007825032230
         H           -0.296747121567     2.713766460631    -0.524082795859     1.007825032230
         H           -2.846778121567     2.400330460631     0.509580204141     1.007825032230
         H            0.435088878433    -1.962849539369     0.569985204141     1.007825032230
         H           -2.433096121567    -3.797844539369    -0.542315795859     1.007825032230
         H            2.829889878433    -2.644810539369     0.074839204141     1.007825032230
         H            5.125957878433    -1.670273539369    -0.161496795859     1.007825032230
         H            5.320591878433    -0.019466539369    -0.567376795859     1.007825032230

  Basis Set: AUG-CC-PVTZ
    Blend: AUG-CC-PVTZ
  Basis Set: (AUG-CC-PVTZ AUX)
    Blend: AUG-CC-PVTZ-JKFIT
	 Reference Energy          =    -886.3720499998860305 [Eh]
	 Singles Energy            =      -0.0000000000000000 [Eh]
	 Same-Spin Energy          =      -0.9014588733611072 [Eh]
	 Opposite-Spin Energy      =      -2.7153870876995168 [Eh]
	 Correlation Energy        =      -3.6168459610606241 [Eh]
	 Total Energy              =    -889.9888959609467065 [Eh]

	 ================> DF-SCS-MP2 Energies <==================
	-----------------------------------------------------------
	 SCS Same-Spin Scale       =       0.3333333333333333 [-]
	 SCS Opposite-Spin Scale   =       1.2000000000000000 [-]
	 SCS Same-Spin Energy      =      -0.3004862911203691 [Eh]
	 SCS Opposite-Spin Energy  =      -3.2584645052394201 [Eh]
	 SCS Correlation Energy    =      -3.5589507963597891 [Eh]
	 SCS Total Energy          =    -889.9310007962458258 [Eh]
	-----------------------------------------------------------

  Dipole Moment: [D]
     X:     1.6213      Y:    -5.9909      Z:    -1.8565     Total:     6.4782

*** Psi4 exiting successfully. Buy a developer a beer!
