                               Psi4 1.3.2 release

  ==> Input File <==

--------------------------------------------------------------------------
#psi4
#
memory 32 gb

molecule  {
0 1
  O       -1.2312675    -0.6564074     1.0501373
  O       -1.2449750     2.4828510    -0.6861630
  O       -3.2165300     1.5210990     0.7448870
  O       -2.3570290    -3.0668370     0.0949400
  O        1.3605300     2.2470340    -0.0765420
  N        0.8434040     0.0452230     0.2559430
  N        3.0572260     0.7205030    -0.2937270
  N        4.7164630    -0.8366550    -0.5722980
  C       -1.2708923     1.0976576    -0.5940639
  C       -2.7151710     0.6552070    -0.2573930
  C       -0.5254080     0.4815200     0.6000940
  C       -2.5292560    -0.7168860     0.3610560
  C       -2.5283440    -1.8503930    -0.6392900
  C        1.2197750    -1.2614080     0.3112740
  C        1.7555940     1.0674350    -0.0594030
  C        2.5111010    -1.6091400     0.0469950
  C        3.4119830    -0.5506530    -0.2589250
  H       -0.9376060     0.5914040    -1.5148910
  H       -3.3625820     0.6426650    -1.1464650
  H       -0.4402900     1.2218800     1.4039980
  H       -3.2819570    -0.9087340     1.1307830
  H       -1.7133080    -1.7003050    -1.3694640
  H       -3.4855610    -1.8340040    -1.1841350
  H       -0.2975250     2.7131790    -0.5250000
  H       -2.8475560     2.3997430     0.5086630
  H        0.4343110    -1.9634370     0.5690680
  H       -2.4338740    -3.7984320    -0.5432330
  H        2.8291120    -2.6453980     0.0739220
  H        5.1251800    -1.6708610    -0.1624140
  H        5.3198140    -0.0200540    -0.5682940
units angstrom
no_reorient  #important for SAPT in psi4, default
symmetry c1  #important for SAPT in psi4, default
}

set PROPERTIES_ORIGIN ["COM"]
properties('MP2/aug-cc-pvtz', properties = ['dipole'])
--------------------------------------------------------------------------

    Molecular point group: c1
  Charge       = 0
  Multiplicity = 1
  Basis Set: AUG-CC-PVTZ
    Blend: AUG-CC-PVTZ
  Basis Set: (AUG-CC-PVTZ AUX)
    Blend: AUG-CC-PVTZ-JKFIT

    Orbital Energies [Eh]
    ---------------------

    Doubly Occupied:

       1A    -20.582576     2A    -20.582138     3A    -20.559954
       4A    -20.557881     5A    -20.521862     6A    -15.635680
       7A    -15.599341     8A    -15.552785     9A    -11.387684
      10A    -11.357231    11A    -11.340092    12A    -11.327559
      13A    -11.302255    14A    -11.298753    15A    -11.297497
      16A    -11.294182    17A    -11.247764    18A     -1.426025
      19A     -1.394800    20A     -1.383825    21A     -1.373428
      22A     -1.349997    23A     -1.305330    24A     -1.272525
      25A     -1.181577    26A     -1.080953    27A     -1.066864
      28A     -1.018438    29A     -0.934093    30A     -0.908256
      31A     -0.877015    32A     -0.831953    33A     -0.811039
      34A     -0.766424    35A     -0.751328    36A     -0.736985
      37A     -0.719461    38A     -0.703514    39A     -0.698483
      40A     -0.684910    41A     -0.672570    42A     -0.653560
      43A     -0.651172    44A     -0.638213    45A     -0.621048
      46A     -0.614390    47A     -0.605772    48A     -0.594571
      49A     -0.575389    50A     -0.567426    51A     -0.556778
      52A     -0.546562    53A     -0.539032    54A     -0.531245
      55A     -0.497851    56A     -0.478075    57A     -0.473259
      58A     -0.462753    59A     -0.460135    60A     -0.451406
      61A     -0.439573    62A     -0.432854    63A     -0.394553
      64A     -0.349232

  @DF-RHF Final Energy:  -886.37149191279752

   => Energetics <=

    Nuclear Repulsion Energy =           1323.1129769747947194
    One-Electron Energy =               -3843.9091789891249391
    Two-Electron Energy =                1634.4247101015330372
    Total Energy =                       -886.3714919127974099
  Basis Set: (AUG-CC-PVTZ AUX)
    Blend: AUG-CC-PVTZ-RI
    Molecular point group: c1

    Geometry (in Angstrom), charge = 0, multiplicity = 1:

       Center              X                  Y                   Z               Mass
    ------------   -----------------  -----------------  -----------------  -----------------
         O           -1.233292956077    -0.657110516135     1.049075852305    15.994914619570
         O           -1.247000456077     2.482147883865    -0.687224447695    15.994914619570
         O           -3.218555456077     1.520395883865     0.743825552305    15.994914619570
         O           -2.359054456077    -3.067540116135     0.093878552305    15.994914619570
         O            1.358504543923     2.246330883865    -0.077603447695    15.994914619570
         N            0.841378543923     0.044519883865     0.254881552305    14.003074004430
         N            3.055200543923     0.719799883865    -0.294788447695    14.003074004430
         N            4.714437543923    -0.837358116135    -0.573359447695    14.003074004430
         C           -1.272917756077     1.096954483865    -0.595125347695    12.000000000000
         C           -2.717196456077     0.654503883865    -0.258454447695    12.000000000000
         C           -0.527433456077     0.480816883865     0.599032552305    12.000000000000
         C           -2.531281456077    -0.717589116135     0.359994552305    12.000000000000
         C           -2.530369456077    -1.851096116135    -0.640351447695    12.000000000000
         C            1.217749543923    -1.262111116135     0.310212552305    12.000000000000
         C            1.753568543923     1.066731883865    -0.060464447695    12.000000000000
         C            2.509075543923    -1.609843116135     0.045933552305    12.000000000000
         C            3.409957543923    -0.551356116135    -0.259986447695    12.000000000000
         H           -0.939631456077     0.590700883865    -1.515952447695     1.007825032230
         H           -3.364607456077     0.641961883865    -1.147526447695     1.007825032230
         H           -0.442315456077     1.221176883865     1.402936552305     1.007825032230
         H           -3.283982456077    -0.909437116135     1.129721552305     1.007825032230
         H           -1.715333456077    -1.701008116135    -1.370525447695     1.007825032230
         H           -3.487586456077    -1.834707116135    -1.185196447695     1.007825032230
         H           -0.299550456077     2.712475883865    -0.526061447695     1.007825032230
         H           -2.849581456077     2.399039883865     0.507601552305     1.007825032230
         H            0.432285543923    -1.964140116135     0.568006552305     1.007825032230
         H           -2.435899456077    -3.799135116135    -0.544294447695     1.007825032230
         H            2.827086543923    -2.646101116135     0.072860552305     1.007825032230
         H            5.123154543923    -1.671564116135    -0.163475447695     1.007825032230
         H            5.317788543923    -0.020757116135    -0.569355447695     1.007825032230

  Basis Set: AUG-CC-PVTZ
    Blend: AUG-CC-PVTZ
  Basis Set: (AUG-CC-PVTZ AUX)
    Blend: AUG-CC-PVTZ-JKFIT
	 Reference Energy          =    -886.3714919127975236 [Eh]
	 Singles Energy            =      -0.0000000000000000 [Eh]
	 Same-Spin Energy          =      -0.9014537400349210 [Eh]
	 Opposite-Spin Energy      =      -2.7154643103954941 [Eh]
	 Correlation Energy        =      -3.6169180504304150 [Eh]
	 Total Energy              =    -889.9884099632279231 [Eh]

	 ================> DF-SCS-MP2 Energies <==================
	-----------------------------------------------------------
	 SCS Same-Spin Scale       =       0.3333333333333333 [-]
	 SCS Opposite-Spin Scale   =       1.2000000000000000 [-]
	 SCS Same-Spin Energy      =      -0.3004845800116403 [Eh]
	 SCS Opposite-Spin Energy  =      -3.2585571724745930 [Eh]
	 SCS Correlation Energy    =      -3.5590417524862334 [Eh]
	 SCS Total Energy          =    -889.9305336652837468 [Eh]
	-----------------------------------------------------------

  Dipole Moment: [D]
     X:     1.6230      Y:    -5.8880      Z:    -1.8739     Total:     6.3886

*** Psi4 exiting successfully. Buy a developer a beer!
