                               Psi4 1.3.2 release

  ==> Input File <==

--------------------------------------------------------------------------
#psi4
#
memory 32 gb

molecule  {
0 1
  O       -1.2481010    -0.6526680     1.0325150
  O       -1.2449750     2.4828510    -0.6861630
  O       -3.2165300     1.5210990     0.7448870
  O       -2.3570290    -3.0668370     0.0949400
  O        1.3605300     2.2470340    -0.0765420
  N        0.8434040     0.0452230     0.2559430
  N        3.0572260     0.7205030    -0.2937270
  N        4.7164630    -0.8366550    -0.5722980
  C       -1.2894840     1.0784300    -0.5920770
  C       -2.7151710     0.6552070    -0.2573930
  C       -0.5254080     0.4815200     0.6000940
  C       -2.5292560    -0.7168860     0.3610560
  C       -2.5283440    -1.8503930    -0.6392900
  C        1.2197750    -1.2614080     0.3112740
  C        1.7555940     1.0674350    -0.0594030
  C        2.4163727    -1.5836313     0.0663818
  C        3.4119830    -0.5506530    -0.2589250
  H       -0.9376060     0.5914040    -1.5148910
  H       -3.3625820     0.6426650    -1.1464650
  H       -0.4402900     1.2218800     1.4039980
  H       -3.2819570    -0.9087340     1.1307830
  H       -1.7133080    -1.7003050    -1.3694640
  H       -3.4855610    -1.8340040    -1.1841350
  H       -0.2975250     2.7131790    -0.5250000
  H       -2.8475560     2.3997430     0.5086630
  H        0.4343110    -1.9634370     0.5690680
  H       -2.4338740    -3.7984320    -0.5432330
  H        2.8291120    -2.6453980     0.0739220
  H        5.1251800    -1.6708610    -0.1624140
  H        5.3198140    -0.0200540    -0.5682940
units angstrom
no_reorient  #important for SAPT in psi4, default
symmetry c1  #important for SAPT in psi4, default
}

set PROPERTIES_ORIGIN ["COM"]
properties('MP2/aug-cc-pvtz', properties = ['dipole'])
--------------------------------------------------------------------------

    Molecular point group: c1
  Charge       = 0
  Multiplicity = 1
  Basis Set: AUG-CC-PVTZ
    Blend: AUG-CC-PVTZ
  Basis Set: (AUG-CC-PVTZ AUX)
    Blend: AUG-CC-PVTZ-JKFIT

    Orbital Energies [Eh]
    ---------------------

    Doubly Occupied:

       1A    -20.580395     2A    -20.578276     3A    -20.555778
       4A    -20.555218     5A    -20.521667     6A    -15.626320
       7A    -15.608655     8A    -15.555789     9A    -11.387596
      10A    -11.366168    11A    -11.337370    12A    -11.305956
      13A    -11.299182    14A    -11.294526    15A    -11.293611
      16A    -11.290601    17A    -11.248385    18A     -1.426222
      19A     -1.395135    20A     -1.378023    21A     -1.370686
      22A     -1.344299    23A     -1.307666    24A     -1.273599
      25A     -1.185332    26A     -1.096452    27A     -1.065261
      28A     -1.018358    29A     -0.931996    30A     -0.900545
      31A     -0.879884    32A     -0.831519    33A     -0.809908
      34A     -0.770360    35A     -0.750387    36A     -0.733366
      37A     -0.721905    38A     -0.701320    39A     -0.696112
      40A     -0.686920    41A     -0.671588    42A     -0.653157
      43A     -0.646615    44A     -0.635509    45A     -0.622190
      46A     -0.614067    47A     -0.608251    48A     -0.585008
      49A     -0.574101    50A     -0.567997    51A     -0.552598
      52A     -0.543863    53A     -0.535345    54A     -0.530117
      55A     -0.502245    56A     -0.475613    57A     -0.472723
      58A     -0.460522    59A     -0.457331    60A     -0.450541
      61A     -0.440648    62A     -0.430452    63A     -0.396327
      64A     -0.358597

  @DF-RHF Final Energy:  -886.36056920507781

   => Energetics <=

    Nuclear Repulsion Energy =           1325.3469497197547753
    One-Electron Energy =               -3848.4827274720050809
    Two-Electron Energy =                1636.7752085471724968
    Total Energy =                       -886.3605692050778089
  Basis Set: (AUG-CC-PVTZ AUX)
    Blend: AUG-CC-PVTZ-RI
    Molecular point group: c1

    Geometry (in Angstrom), charge = 0, multiplicity = 1:

       Center              X                  Y                   Z               Mass
    ------------   -----------------  -----------------  -----------------  -----------------
         O           -1.243424738954    -0.653927235576     1.031557971457    15.994914619570
         O           -1.240298738954     2.481591764424    -0.687120028543    15.994914619570
         O           -3.211853738954     1.519839764424     0.743929971457    15.994914619570
         O           -2.352352738954    -3.068096235576     0.093982971457    15.994914619570
         O            1.365206261046     2.245774764424    -0.077499028543    15.994914619570
         N            0.848080261046     0.043963764424     0.254985971457    14.003074004430
         N            3.061902261046     0.719243764424    -0.294684028543    14.003074004430
         N            4.721139261046    -0.837914235576    -0.573255028543    14.003074004430
         C           -1.284807738954     1.077170764424    -0.593034028543    12.000000000000
         C           -2.710494738954     0.653947764424    -0.258350028543    12.000000000000
         C           -0.520731738954     0.480260764424     0.599136971457    12.000000000000
         C           -2.524579738954    -0.718145235576     0.360098971457    12.000000000000
         C           -2.523667738954    -1.851652235576    -0.640247028543    12.000000000000
         C            1.224451261046    -1.262667235576     0.310316971457    12.000000000000
         C            1.760270261046     1.066175764424    -0.060360028543    12.000000000000
         C            2.421048961046    -1.584890535576     0.065424771457    12.000000000000
         C            3.416659261046    -0.551912235576    -0.259882028543    12.000000000000
         H           -0.932929738954     0.590144764424    -1.515848028543     1.007825032230
         H           -3.357905738954     0.641405764424    -1.147422028543     1.007825032230
         H           -0.435613738954     1.220620764424     1.403040971457     1.007825032230
         H           -3.277280738954    -0.909993235576     1.129825971457     1.007825032230
         H           -1.708631738954    -1.701564235576    -1.370421028543     1.007825032230
         H           -3.480884738954    -1.835263235576    -1.185092028543     1.007825032230
         H           -0.292848738954     2.711919764424    -0.525957028543     1.007825032230
         H           -2.842879738954     2.398483764424     0.507705971457     1.007825032230
         H            0.438987261046    -1.964696235576     0.568110971457     1.007825032230
         H           -2.429197738954    -3.799691235576    -0.544190028543     1.007825032230
         H            2.833788261046    -2.646657235576     0.072964971457     1.007825032230
         H            5.129856261046    -1.672120235576    -0.163371028543     1.007825032230
         H            5.324490261046    -0.021313235576    -0.569251028543     1.007825032230

  Basis Set: AUG-CC-PVTZ
    Blend: AUG-CC-PVTZ
  Basis Set: (AUG-CC-PVTZ AUX)
    Blend: AUG-CC-PVTZ-JKFIT
	 Reference Energy          =    -886.3605692050778089 [Eh]
	 Singles Energy            =      -0.0000000000000000 [Eh]
	 Same-Spin Energy          =      -0.9001646306295052 [Eh]
	 Opposite-Spin Energy      =      -2.7138327559945505 [Eh]
	 Correlation Energy        =      -3.6139973866240558 [Eh]
	 Total Energy              =    -889.9745665917018869 [Eh]

	 ================> DF-SCS-MP2 Energies <==================
	-----------------------------------------------------------
	 SCS Same-Spin Scale       =       0.3333333333333333 [-]
	 SCS Opposite-Spin Scale   =       1.2000000000000000 [-]
	 SCS Same-Spin Energy      =      -0.3000548768765017 [Eh]
	 SCS Opposite-Spin Energy  =      -3.2565993071934605 [Eh]
	 SCS Correlation Energy    =      -3.5566541840699624 [Eh]
	 SCS Total Energy          =    -889.9172233891478072 [Eh]
	-----------------------------------------------------------

  Dipole Moment: [D]
     X:     2.1122      Y:    -5.9590      Z:    -1.8897     Total:     6.5986

*** Psi4 exiting successfully. Buy a developer a beer!
