                               Psi4 1.3.2 release

  ==> Input File <==

--------------------------------------------------------------------------
#psi4
#
memory 32 gb

molecule  {
0 1
  O       -1.2481010    -0.6526680     1.0325150
  O       -1.2449750     2.4828510    -0.6861630
  O       -3.2165300     1.5210990     0.7448870
  O       -2.3570290    -3.0668370     0.0949400
  O        1.3605300     2.2470340    -0.0765420
  N        0.8434040     0.0452230     0.2559430
  N        3.0572260     0.7205030    -0.2937270
  N        4.7164630    -0.8366550    -0.5722980
  C       -1.2894840     1.0784300    -0.5920770
  C       -2.7151710     0.6552070    -0.2573930
  C       -0.5254080     0.4815200     0.6000940
  C       -2.5292560    -0.7168860     0.3610560
  C       -2.5283440    -1.8503930    -0.6392900
  C        1.2639891    -1.2482906     0.2998977
  C        1.7907959     1.0335182    -0.0637009
  C        2.5111010    -1.6091400     0.0469950
  C        3.4119830    -0.5506530    -0.2589250
  H       -0.9376060     0.5914040    -1.5148910
  H       -3.3625820     0.6426650    -1.1464650
  H       -0.4402900     1.2218800     1.4039980
  H       -3.2819570    -0.9087340     1.1307830
  H       -1.7133080    -1.7003050    -1.3694640
  H       -3.4855610    -1.8340040    -1.1841350
  H       -0.2975250     2.7131790    -0.5250000
  H       -2.8475560     2.3997430     0.5086630
  H        0.4343110    -1.9634370     0.5690680
  H       -2.4338740    -3.7984320    -0.5432330
  H        2.8291120    -2.6453980     0.0739220
  H        5.1251800    -1.6708610    -0.1624140
  H        5.3198140    -0.0200540    -0.5682940
units angstrom
no_reorient  #important for SAPT in psi4, default
symmetry c1  #important for SAPT in psi4, default
}

set PROPERTIES_ORIGIN ["COM"]
properties('MP2/aug-cc-pvtz', properties = ['dipole'])
--------------------------------------------------------------------------

    Molecular point group: c1
  Charge       = 0
  Multiplicity = 1
  Basis Set: AUG-CC-PVTZ
    Blend: AUG-CC-PVTZ
  Basis Set: (AUG-CC-PVTZ AUX)
    Blend: AUG-CC-PVTZ-JKFIT

    Orbital Energies [Eh]
    ---------------------

    Doubly Occupied:

       1A    -20.581533     2A    -20.580795     3A    -20.556164
       4A    -20.553267     5A    -20.508619     6A    -15.636869
       7A    -15.606218     8A    -15.557816     9A    -11.384847
      10A    -11.365481    11A    -11.341895    12A    -11.326441
      13A    -11.300323    14A    -11.295867    15A    -11.294702
      16A    -11.291423    17A    -11.248573    18A     -1.426764
      19A     -1.384371    20A     -1.378036    21A     -1.370701
      22A     -1.343730    23A     -1.300425    24A     -1.272435
      25A     -1.195438    26A     -1.092484    27A     -1.066364
      28A     -1.022356    29A     -0.936689    30A     -0.904086
      31A     -0.883927    32A     -0.834593    33A     -0.811176
      34A     -0.773639    35A     -0.752267    36A     -0.733913
      37A     -0.720912    38A     -0.701902    39A     -0.696890
      40A     -0.683882    41A     -0.671856    42A     -0.654577
      43A     -0.647468    44A     -0.640504    45A     -0.619046
      46A     -0.612842    47A     -0.604302    48A     -0.587289
      49A     -0.573175    50A     -0.569457    51A     -0.552711
      52A     -0.544977    53A     -0.534428    54A     -0.528804
      55A     -0.493439    56A     -0.476391    57A     -0.472824
      58A     -0.460635    59A     -0.451876    60A     -0.450497
      61A     -0.442684    62A     -0.433464    63A     -0.398648
      64A     -0.356276

  @DF-RHF Final Energy:  -886.36582015712031

   => Energetics <=

    Nuclear Repulsion Energy =           1323.8808808883757138
    One-Electron Energy =               -3845.5014371056895470
    Two-Electron Energy =                1635.2547360601931814
    Total Energy =                       -886.3658201571204245
  Basis Set: (AUG-CC-PVTZ AUX)
    Blend: AUG-CC-PVTZ-RI
    Molecular point group: c1

    Geometry (in Angstrom), charge = 0, multiplicity = 1:

       Center              X                  Y                   Z               Mass
    ------------   -----------------  -----------------  -----------------  -----------------
         O           -1.252021431984    -0.651641220355     1.033288769734    15.994914619570
         O           -1.248895431984     2.483877779645    -0.685389230266    15.994914619570
         O           -3.220450431984     1.522125779645     0.745660769734    15.994914619570
         O           -2.360949431984    -3.065810220355     0.095713769734    15.994914619570
         O            1.356609568016     2.248060779645    -0.075768230266    15.994914619570
         N            0.839483568016     0.046249779645     0.256716769734    14.003074004430
         N            3.053305568016     0.721529779645    -0.292953230266    14.003074004430
         N            4.712542568016    -0.835628220355    -0.571524230266    14.003074004430
         C           -1.293404431984     1.079456779645    -0.591303230266    12.000000000000
         C           -2.719091431984     0.656233779645    -0.256619230266    12.000000000000
         C           -0.529328431984     0.482546779645     0.600867769734    12.000000000000
         C           -2.533176431984    -0.715859220355     0.361829769734    12.000000000000
         C           -2.532264431984    -1.849366220355    -0.638516230266    12.000000000000
         C            1.260068668016    -1.247263820355     0.300671469734    12.000000000000
         C            1.786875468016     1.034544979645    -0.062927130266    12.000000000000
         C            2.507180568016    -1.608113220355     0.047768769734    12.000000000000
         C            3.408062568016    -0.549626220355    -0.258151230266    12.000000000000
         H           -0.941526431984     0.592430779645    -1.514117230266     1.007825032230
         H           -3.366502431984     0.643691779645    -1.145691230266     1.007825032230
         H           -0.444210431984     1.222906779645     1.404771769734     1.007825032230
         H           -3.285877431984    -0.907707220355     1.131556769734     1.007825032230
         H           -1.717228431984    -1.699278220355    -1.368690230266     1.007825032230
         H           -3.489481431984    -1.832977220355    -1.183361230266     1.007825032230
         H           -0.301445431984     2.714205779645    -0.524226230266     1.007825032230
         H           -2.851476431984     2.400769779645     0.509436769734     1.007825032230
         H            0.430390568016    -1.962410220355     0.569841769734     1.007825032230
         H           -2.437794431984    -3.797405220355    -0.542459230266     1.007825032230
         H            2.825191568016    -2.644371220355     0.074695769734     1.007825032230
         H            5.121259568016    -1.669834220355    -0.161640230266     1.007825032230
         H            5.315893568016    -0.019027220355    -0.567520230266     1.007825032230

  Basis Set: AUG-CC-PVTZ
    Blend: AUG-CC-PVTZ
  Basis Set: (AUG-CC-PVTZ AUX)
    Blend: AUG-CC-PVTZ-JKFIT
	 Reference Energy          =    -886.3658201571203108 [Eh]
	 Singles Energy            =      -0.0000000000000000 [Eh]
	 Same-Spin Energy          =      -0.9016036930700493 [Eh]
	 Opposite-Spin Energy      =      -2.7151194754773487 [Eh]
	 Correlation Energy        =      -3.6167231685473977 [Eh]
	 Total Energy              =    -889.9825433256677343 [Eh]

	 ================> DF-SCS-MP2 Energies <==================
	-----------------------------------------------------------
	 SCS Same-Spin Scale       =       0.3333333333333333 [-]
	 SCS Opposite-Spin Scale   =       1.2000000000000000 [-]
	 SCS Same-Spin Energy      =      -0.3005345643566831 [Eh]
	 SCS Opposite-Spin Energy  =      -3.2581433705728182 [Eh]
	 SCS Correlation Energy    =      -3.5586779349295012 [Eh]
	 SCS Total Energy          =    -889.9244980920498165 [Eh]
	-----------------------------------------------------------

  Dipole Moment: [D]
     X:     2.1063      Y:    -6.3662      Z:    -1.8556     Total:     6.9576

*** Psi4 exiting successfully. Buy a developer a beer!
