                               Psi4 1.3.2 release

  ==> Input File <==

--------------------------------------------------------------------------
#psi4
#
memory 32 gb

molecule  {
0 1
  O       -1.2481010    -0.6526680     1.0325150
  O       -1.2449750     2.4828510    -0.6861630
  O       -3.2165300     1.5210990     0.7448870
  O       -2.3570290    -3.0668370     0.0949400
  O        1.3605300     2.2470340    -0.0765420
  N        0.8434040     0.0452230     0.2559430
  N        3.0572260     0.7205030    -0.2937270
  N        4.7164630    -0.8366550    -0.5722980
  C       -1.2894840     1.0784300    -0.5920770
  C       -2.7255619     0.6573059    -0.2494712
  C       -0.5254080     0.4815200     0.6000940
  C       -2.5292560    -0.7168860     0.3610560
  C       -2.5283440    -1.8503930    -0.6392900
  C        1.2197750    -1.2614080     0.3112740
  C        1.7555940     1.0674350    -0.0594030
  C        2.5111010    -1.6091400     0.0469950
  C        3.4119830    -0.5506530    -0.2589250
  H       -0.9376060     0.5914040    -1.5148910
  H       -3.3625820     0.6426650    -1.1464650
  H       -0.4402900     1.2218800     1.4039980
  H       -3.2857291    -0.9001154     1.1291833
  H       -1.7133080    -1.7003050    -1.3694640
  H       -3.4855610    -1.8340040    -1.1841350
  H       -0.2975250     2.7131790    -0.5250000
  H       -2.8475560     2.3997430     0.5086630
  H        0.4343110    -1.9634370     0.5690680
  H       -2.4338740    -3.7984320    -0.5432330
  H        2.8291120    -2.6453980     0.0739220
  H        5.1251800    -1.6708610    -0.1624140
  H        5.3198140    -0.0200540    -0.5682940
units angstrom
no_reorient  #important for SAPT in psi4, default
symmetry c1  #important for SAPT in psi4, default
}

set PROPERTIES_ORIGIN ["COM"]
properties('MP2/aug-cc-pvtz', properties = ['dipole'])
--------------------------------------------------------------------------

    Molecular point group: c1
  Charge       = 0
  Multiplicity = 1
  Basis Set: AUG-CC-PVTZ
    Blend: AUG-CC-PVTZ
  Basis Set: (AUG-CC-PVTZ AUX)
    Blend: AUG-CC-PVTZ-JKFIT

    Orbital Energies [Eh]
    ---------------------

    Doubly Occupied:

       1A    -20.582135     2A    -20.581585     3A    -20.558695
       4A    -20.557044     5A    -20.521886     6A    -15.636821
       7A    -15.599784     8A    -15.553264     9A    -11.388163
      10A    -11.357777    11A    -11.341317    12A    -11.328434
      13A    -11.301233    14A    -11.296606    15A    -11.296504
      16A    -11.293001    17A    -11.248470    18A     -1.429339
      19A     -1.396404    20A     -1.381294    21A     -1.372892
      22A     -1.348399    23A     -1.305968    24A     -1.273705
      25A     -1.182166    26A     -1.081808    27A     -1.066571
      28A     -1.020217    29A     -0.934975    30A     -0.909403
      31A     -0.877479    32A     -0.832273    33A     -0.811628
      34A     -0.766873    35A     -0.752111    36A     -0.735746
      37A     -0.720070    38A     -0.703876    39A     -0.699003
      40A     -0.685573    41A     -0.673740    42A     -0.654420
      43A     -0.651493    44A     -0.638482    45A     -0.620565
      46A     -0.614377    47A     -0.607087    48A     -0.593797
      49A     -0.576328    50A     -0.569839    51A     -0.554826
      52A     -0.546749    53A     -0.537493    54A     -0.531732
      55A     -0.497716    56A     -0.477101    57A     -0.472753
      58A     -0.462104    59A     -0.459934    60A     -0.452204
      61A     -0.440169    62A     -0.433083    63A     -0.395069
      64A     -0.349860

  @DF-RHF Final Energy:  -886.37354911782347

   => Energetics <=

    Nuclear Repulsion Energy =           1323.5951385234081954
    One-Electron Energy =               -3844.8545512888608755
    Two-Electron Energy =                1634.8858636476295487
    Total Energy =                       -886.3735491178233588
  Basis Set: (AUG-CC-PVTZ AUX)
    Blend: AUG-CC-PVTZ-RI
    Molecular point group: c1

    Geometry (in Angstrom), charge = 0, multiplicity = 1:

       Center              X                  Y                   Z               Mass
    ------------   -----------------  -----------------  -----------------  -----------------
         O           -1.247572444588    -0.652807335227     1.032130577416    15.994914619570
         O           -1.244446444588     2.482711664773    -0.686547422584    15.994914619570
         O           -3.216001444588     1.520959664773     0.744502577416    15.994914619570
         O           -2.356500444588    -3.066976335227     0.094555577416    15.994914619570
         O            1.361058555412     2.246894664773    -0.076926422584    15.994914619570
         N            0.843932555412     0.045083664773     0.255558577416    14.003074004430
         N            3.057754555412     0.720363664773    -0.294111422584    14.003074004430
         N            4.716991555412    -0.836794335227    -0.572682422584    14.003074004430
         C           -1.288955444588     1.078290664773    -0.592461422584    12.000000000000
         C           -2.725033344588     0.657166564773    -0.249855622584    12.000000000000
         C           -0.524879444588     0.481380664773     0.599709577416    12.000000000000
         C           -2.528727444588    -0.717025335227     0.360671577416    12.000000000000
         C           -2.527815444588    -1.850532335227    -0.639674422584    12.000000000000
         C            1.220303555412    -1.261547335227     0.310889577416    12.000000000000
         C            1.756122555412     1.067295664773    -0.059787422584    12.000000000000
         C            2.511629555412    -1.609279335227     0.046610577416    12.000000000000
         C            3.412511555412    -0.550792335227    -0.259309422584    12.000000000000
         H           -0.937077444588     0.591264664773    -1.515275422584     1.007825032230
         H           -3.362053444588     0.642525664773    -1.146849422584     1.007825032230
         H           -0.439761444588     1.221740664773     1.403613577416     1.007825032230
         H           -3.285200544588    -0.900254735227     1.128798877416     1.007825032230
         H           -1.712779444588    -1.700444335227    -1.369848422584     1.007825032230
         H           -3.485032444588    -1.834143335227    -1.184519422584     1.007825032230
         H           -0.296996444588     2.713039664773    -0.525384422584     1.007825032230
         H           -2.847027444588     2.399603664773     0.508278577416     1.007825032230
         H            0.434839555412    -1.963576335227     0.568683577416     1.007825032230
         H           -2.433345444588    -3.798571335227    -0.543617422584     1.007825032230
         H            2.829640555412    -2.645537335227     0.073537577416     1.007825032230
         H            5.125708555412    -1.671000335227    -0.162798422584     1.007825032230
         H            5.320342555412    -0.020193335227    -0.568678422584     1.007825032230

  Basis Set: AUG-CC-PVTZ
    Blend: AUG-CC-PVTZ
  Basis Set: (AUG-CC-PVTZ AUX)
    Blend: AUG-CC-PVTZ-JKFIT
	 Reference Energy          =    -886.3735491178234724 [Eh]
	 Singles Energy            =      -0.0000000000000000 [Eh]
	 Same-Spin Energy          =      -0.9012233277714551 [Eh]
	 Opposite-Spin Energy      =      -2.7147818852886094 [Eh]
	 Correlation Energy        =      -3.6160052130600646 [Eh]
	 Total Energy              =    -889.9895543308834931 [Eh]

	 ================> DF-SCS-MP2 Energies <==================
	-----------------------------------------------------------
	 SCS Same-Spin Scale       =       0.3333333333333333 [-]
	 SCS Opposite-Spin Scale   =       1.2000000000000000 [-]
	 SCS Same-Spin Energy      =      -0.3004077759238183 [Eh]
	 SCS Opposite-Spin Energy  =      -3.2577382623463311 [Eh]
	 SCS Correlation Energy    =      -3.5581460382701495 [Eh]
	 SCS Total Energy          =    -889.9316951560936104 [Eh]
	-----------------------------------------------------------

  Dipole Moment: [D]
     X:     1.6869      Y:    -5.9247      Z:    -1.8060     Total:     6.4195

*** Psi4 exiting successfully. Buy a developer a beer!
