                               Psi4 1.3.2 release

  ==> Input File <==

--------------------------------------------------------------------------
#psi4
#
memory 32 gb

molecule  {
0 1
  O       -1.2481010    -0.6526680     1.0325150
  O       -1.2449750     2.4828510    -0.6861630
  O       -3.2165300     1.5210990     0.7448870
  O       -2.3570290    -3.0668370     0.0949400
  O        1.3605300     2.2470340    -0.0765420
  N        0.8880207     0.0567220     0.2443888
  N        3.0572260     0.7205030    -0.2937270
  N        4.7164630    -0.8366550    -0.5722980
  C       -1.2894840     1.0784300    -0.5920770
  C       -2.7151710     0.6552070    -0.2573930
  C       -0.5254080     0.4815200     0.6000940
  C       -2.5292560    -0.7168860     0.3610560
  C       -2.5283440    -1.8503930    -0.6392900
  C        1.2197750    -1.2614080     0.3112740
  C        1.7555940     1.0674350    -0.0594030
  C        2.5111010    -1.6091400     0.0469950
  C        3.4119830    -0.5506530    -0.2589250
  H       -0.9376060     0.5914040    -1.5148910
  H       -3.3625820     0.6426650    -1.1464650
  H       -0.4402900     1.2218800     1.4039980
  H       -3.2819570    -0.9087340     1.1307830
  H       -1.7133080    -1.7003050    -1.3694640
  H       -3.4855610    -1.8340040    -1.1841350
  H       -0.2975250     2.7131790    -0.5250000
  H       -2.8475560     2.3997430     0.5086630
  H        0.4594776    -1.9915827     0.5663207
  H       -2.4338740    -3.7984320    -0.5432330
  H        2.8291120    -2.6453980     0.0739220
  H        5.1251800    -1.6708610    -0.1624140
  H        5.3198140    -0.0200540    -0.5682940
units angstrom
no_reorient  #important for SAPT in psi4, default
symmetry c1  #important for SAPT in psi4, default
}

set PROPERTIES_ORIGIN ["COM"]
properties('MP2/aug-cc-pvtz', properties = ['dipole'])
--------------------------------------------------------------------------

    Molecular point group: c1
  Charge       = 0
  Multiplicity = 1
  Basis Set: AUG-CC-PVTZ
    Blend: AUG-CC-PVTZ
  Basis Set: (AUG-CC-PVTZ AUX)
    Blend: AUG-CC-PVTZ-JKFIT

    Orbital Energies [Eh]
    ---------------------

    Doubly Occupied:

       1A    -20.583607     2A    -20.582909     3A    -20.558301
       4A    -20.557227     5A    -20.517886     6A    -15.637264
       7A    -15.598468     8A    -15.551174     9A    -11.383149
      10A    -11.355988    11A    -11.344986    12A    -11.328650
      13A    -11.301885    14A    -11.297990    15A    -11.297643
      16A    -11.293689    17A    -11.249100    18A     -1.429224
      19A     -1.398157    20A     -1.380540    21A     -1.373182
      22A     -1.346627    23A     -1.306277    24A     -1.272673
      25A     -1.179562    26A     -1.082068    27A     -1.068482
      28A     -1.023440    29A     -0.933235    30A     -0.915426
      31A     -0.876659    32A     -0.831519    33A     -0.812215
      34A     -0.767682    35A     -0.752985    36A     -0.736010
      37A     -0.719200    38A     -0.702982    39A     -0.698610
      40A     -0.686034    41A     -0.673065    42A     -0.655337
      43A     -0.651292    44A     -0.640262    45A     -0.621330
      46A     -0.616128    47A     -0.607016    48A     -0.589003
      49A     -0.576064    50A     -0.570100    51A     -0.553396
      52A     -0.545087    53A     -0.537454    54A     -0.532408
      55A     -0.496195    56A     -0.478049    57A     -0.474826
      58A     -0.462520    59A     -0.458541    60A     -0.453252
      61A     -0.440804    62A     -0.431900    63A     -0.393901
      64A     -0.351553

  @DF-RHF Final Energy:  -886.37104217355079

   => Energetics <=

    Nuclear Repulsion Energy =           1323.4997399386913912
    One-Electron Energy =               -3844.6571973569880356
    Two-Electron Energy =                1634.7864152447459674
    Total Energy =                       -886.3710421735509044
  Basis Set: (AUG-CC-PVTZ AUX)
    Blend: AUG-CC-PVTZ-RI
    Molecular point group: c1

    Geometry (in Angstrom), charge = 0, multiplicity = 1:

       Center              X                  Y                   Z               Mass
    ------------   -----------------  -----------------  -----------------  -----------------
         O           -1.250775543220    -0.653213704829     1.033191983695    15.994914619570
         O           -1.247649543220     2.482305295171    -0.685486016305    15.994914619570
         O           -3.219204543220     1.520553295171     0.745563983695    15.994914619570
         O           -2.359703543220    -3.067382704829     0.095616983695    15.994914619570
         O            1.357855456780     2.246488295171    -0.075865016305    15.994914619570
         N            0.885346156780     0.056176295171     0.245065783695    14.003074004430
         N            3.054551456780     0.719957295171    -0.293050016305    14.003074004430
         N            4.713788456780    -0.837200704829    -0.571621016305    14.003074004430
         C           -1.292158543220     1.077884295171    -0.591400016305    12.000000000000
         C           -2.717845543220     0.654661295171    -0.256716016305    12.000000000000
         C           -0.528082543220     0.480974295171     0.600770983695    12.000000000000
         C           -2.531930543220    -0.717431704829     0.361732983695    12.000000000000
         C           -2.531018543220    -1.850938704829    -0.638613016305    12.000000000000
         C            1.217100456780    -1.261953704829     0.311950983695    12.000000000000
         C            1.752919456780     1.066889295171    -0.058726016305    12.000000000000
         C            2.508426456780    -1.609685704829     0.047671983695    12.000000000000
         C            3.409308456780    -0.551198704829    -0.258248016305    12.000000000000
         H           -0.940280543220     0.590858295171    -1.514214016305     1.007825032230
         H           -3.365256543220     0.642119295171    -1.145788016305     1.007825032230
         H           -0.442964543220     1.221334295171     1.404674983695     1.007825032230
         H           -3.284631543220    -0.909279704829     1.131459983695     1.007825032230
         H           -1.715982543220    -1.700850704829    -1.368787016305     1.007825032230
         H           -3.488235543220    -1.834549704829    -1.183458016305     1.007825032230
         H           -0.300199543220     2.712633295171    -0.524323016305     1.007825032230
         H           -2.850230543220     2.399197295171     0.509339983695     1.007825032230
         H            0.456803056780    -1.992128404829     0.566997683695     1.007825032230
         H           -2.436548543220    -3.798977704829    -0.542556016305     1.007825032230
         H            2.826437456780    -2.645943704829     0.074598983695     1.007825032230
         H            5.122505456780    -1.671406704829    -0.161737016305     1.007825032230
         H            5.317139456780    -0.020599704829    -0.567617016305     1.007825032230

  Basis Set: AUG-CC-PVTZ
    Blend: AUG-CC-PVTZ
  Basis Set: (AUG-CC-PVTZ AUX)
    Blend: AUG-CC-PVTZ-JKFIT
	 Reference Energy          =    -886.3710421735507907 [Eh]
	 Singles Energy            =      -0.0000000000000000 [Eh]
	 Same-Spin Energy          =      -0.9012300932765331 [Eh]
	 Opposite-Spin Energy      =      -2.7148893508020242 [Eh]
	 Correlation Energy        =      -3.6161194440785573 [Eh]
	 Total Energy              =    -889.9871616176293401 [Eh]

	 ================> DF-SCS-MP2 Energies <==================
	-----------------------------------------------------------
	 SCS Same-Spin Scale       =       0.3333333333333333 [-]
	 SCS Opposite-Spin Scale   =       1.2000000000000000 [-]
	 SCS Same-Spin Energy      =      -0.3004100310921777 [Eh]
	 SCS Opposite-Spin Energy  =      -3.2578672209624289 [Eh]
	 SCS Correlation Energy    =      -3.5582772520546064 [Eh]
	 SCS Total Energy          =    -889.9293194256053994 [Eh]
	-----------------------------------------------------------

  Dipole Moment: [D]
     X:     1.5947      Y:    -6.0916      Z:    -1.7900     Total:     6.5464

*** Psi4 exiting successfully. Buy a developer a beer!
