                               Psi4 1.3.2 release

  ==> Input File <==

--------------------------------------------------------------------------
#psi4
#
memory 32 gb

molecule  {
0 1
  O       -1.2481010    -0.6526680     1.0325150
  O       -1.2449750     2.4828510    -0.6861630
  O       -3.2165300     1.5210990     0.7448870
  O       -2.3570290    -3.0668370     0.0949400
  O        1.3605300     2.2470340    -0.0765420
  N        0.8434040     0.0452230     0.2559430
  N        3.0572260     0.7205030    -0.2937270
  N        4.7164630    -0.8366550    -0.5722980
  C       -1.2894840     1.0784300    -0.5920770
  C       -2.7151710     0.6552070    -0.2573930
  C       -0.5254080     0.4815200     0.6000940
  C       -2.5292560    -0.7168860     0.3610560
  C       -2.5283440    -1.8503930    -0.6392900
  C        1.2197750    -1.2614080     0.3112740
  C        1.7873486     0.9726207    -0.0580254
  C        2.5111010    -1.6091400     0.0469950
  C        3.4119830    -0.5506530    -0.2589250
  H       -0.9376060     0.5914040    -1.5148910
  H       -3.3625820     0.6426650    -1.1464650
  H       -0.4402900     1.2218800     1.4039980
  H       -3.2819570    -0.9087340     1.1307830
  H       -1.7133080    -1.7003050    -1.3694640
  H       -3.4855610    -1.8340040    -1.1841350
  H       -0.2975250     2.7131790    -0.5250000
  H       -2.8475560     2.3997430     0.5086630
  H        0.4343110    -1.9634370     0.5690680
  H       -2.4338740    -3.7984320    -0.5432330
  H        2.8291120    -2.6453980     0.0739220
  H        5.1251800    -1.6708610    -0.1624140
  H        5.3198140    -0.0200540    -0.5682940
units angstrom
no_reorient  #important for SAPT in psi4, default
symmetry c1  #important for SAPT in psi4, default
}

set PROPERTIES_ORIGIN ["COM"]
properties('MP2/aug-cc-pvtz', properties = ['dipole'])
--------------------------------------------------------------------------

    Molecular point group: c1
  Charge       = 0
  Multiplicity = 1
  Basis Set: AUG-CC-PVTZ
    Blend: AUG-CC-PVTZ
  Basis Set: (AUG-CC-PVTZ AUX)
    Blend: AUG-CC-PVTZ-JKFIT

    Orbital Energies [Eh]
    ---------------------

    Doubly Occupied:

       1A    -20.583472     2A    -20.583305     3A    -20.556283
       4A    -20.550379     5A    -20.494755     6A    -15.646971
       7A    -15.607619     8A    -15.563041     9A    -11.382100
      10A    -11.366802    11A    -11.344385    12A    -11.335025
      13A    -11.302001    14A    -11.297518    15A    -11.295219
      16A    -11.292032    17A    -11.258042    18A     -1.430100
      19A     -1.383625    20A     -1.378428    21A     -1.370434
      22A     -1.342805    23A     -1.293877    24A     -1.264204
      25A     -1.198885    26A     -1.087861    27A     -1.067888
      28A     -1.024923    29A     -0.939434    30A     -0.921455
      31A     -0.883884    32A     -0.836286    33A     -0.812417
      34A     -0.777372    35A     -0.756509    36A     -0.734503
      37A     -0.723142    38A     -0.703478    39A     -0.697628
      40A     -0.689198    41A     -0.674094    42A     -0.657295
      43A     -0.644078    44A     -0.642749    45A     -0.625768
      46A     -0.614976    47A     -0.607171    48A     -0.578625
      49A     -0.571446    50A     -0.566874    51A     -0.552908
      52A     -0.544070    53A     -0.534742    54A     -0.528422
      55A     -0.483052    56A     -0.477353    57A     -0.472111
      58A     -0.463436    59A     -0.453952    60A     -0.449763
      61A     -0.443398    62A     -0.424004    63A     -0.398302
      64A     -0.354189

  @DF-RHF Final Energy:  -886.35505645890612

   => Energetics <=

    Nuclear Repulsion Energy =           1324.1555360029001349
    One-Electron Energy =               -3845.9410552238623495
    Two-Electron Energy =                1635.4304627620560950
    Total Energy =                       -886.3550564589061196
  Basis Set: (AUG-CC-PVTZ AUX)
    Blend: AUG-CC-PVTZ-RI
    Molecular point group: c1

    Geometry (in Angstrom), charge = 0, multiplicity = 1:

       Center              X                  Y                   Z               Mass
    ------------   -----------------  -----------------  -----------------  -----------------
         O           -1.249668610644    -0.647987449459     1.032447001785    15.994914619570
         O           -1.246542610644     2.487531550541    -0.686230998215    15.994914619570
         O           -3.218097610644     1.525779550541     0.744819001785    15.994914619570
         O           -2.358596610644    -3.062156449459     0.094872001785    15.994914619570
         O            1.358962389356     2.251714550541    -0.076609998215    15.994914619570
         N            0.841836389356     0.049903550541     0.255875001785    14.003074004430
         N            3.055658389356     0.725183550541    -0.293794998215    14.003074004430
         N            4.714895389356    -0.831974449459    -0.572365998215    14.003074004430
         C           -1.291051610644     1.083110550541    -0.592144998215    12.000000000000
         C           -2.716738610644     0.659887550541    -0.257460998215    12.000000000000
         C           -0.526975610644     0.486200550541     0.600026001785    12.000000000000
         C           -2.530823610644    -0.712205449459     0.360988001785    12.000000000000
         C           -2.529911610644    -1.845712449459    -0.639357998215    12.000000000000
         C            1.218207389356    -1.256727449459     0.311206001785    12.000000000000
         C            1.785780989356     0.977301250541    -0.058093398215    12.000000000000
         C            2.509533389356    -1.604459449459     0.046927001785    12.000000000000
         C            3.410415389356    -0.545972449459    -0.258992998215    12.000000000000
         H           -0.939173610644     0.596084550541    -1.514958998215     1.007825032230
         H           -3.364149610644     0.647345550541    -1.146532998215     1.007825032230
         H           -0.441857610644     1.226560550541     1.403930001785     1.007825032230
         H           -3.283524610644    -0.904053449459     1.130715001785     1.007825032230
         H           -1.714875610644    -1.695624449459    -1.369531998215     1.007825032230
         H           -3.487128610644    -1.829323449459    -1.184202998215     1.007825032230
         H           -0.299092610644     2.717859550541    -0.525067998215     1.007825032230
         H           -2.849123610644     2.404423550541     0.508595001785     1.007825032230
         H            0.432743389356    -1.958756449459     0.569000001785     1.007825032230
         H           -2.435441610644    -3.793751449459    -0.543300998215     1.007825032230
         H            2.827544389356    -2.640717449459     0.073854001785     1.007825032230
         H            5.123612389356    -1.666180449459    -0.162481998215     1.007825032230
         H            5.318246389356    -0.015373449459    -0.568361998215     1.007825032230

  Basis Set: AUG-CC-PVTZ
    Blend: AUG-CC-PVTZ
  Basis Set: (AUG-CC-PVTZ AUX)
    Blend: AUG-CC-PVTZ-JKFIT
	 Reference Energy          =    -886.3550564589061196 [Eh]
	 Singles Energy            =      -0.0000000000000000 [Eh]
	 Same-Spin Energy          =      -0.9027095940734198 [Eh]
	 Opposite-Spin Energy      =      -2.7171358088881123 [Eh]
	 Correlation Energy        =      -3.6198454029615323 [Eh]
	 Total Energy              =    -889.9749018618676928 [Eh]

	 ================> DF-SCS-MP2 Energies <==================
	-----------------------------------------------------------
	 SCS Same-Spin Scale       =       0.3333333333333333 [-]
	 SCS Opposite-Spin Scale   =       1.2000000000000000 [-]
	 SCS Same-Spin Energy      =      -0.3009031980244732 [Eh]
	 SCS Opposite-Spin Energy  =      -3.2605629706657346 [Eh]
	 SCS Correlation Energy    =      -3.5614661686902078 [Eh]
	 SCS Total Energy          =    -889.9165226275963505 [Eh]
	-----------------------------------------------------------

  Dipole Moment: [D]
     X:     2.1429      Y:    -6.8986      Z:    -1.8079     Total:     7.4465

*** Psi4 exiting successfully. Buy a developer a beer!
