                               Psi4 1.3.2 release

  ==> Input File <==

--------------------------------------------------------------------------
#psi4
#
memory 32 gb

molecule  {
0 1
  O       -1.2481010    -0.6526680     1.0325150
  O       -1.2449750     2.4828510    -0.6861630
  O       -3.2165300     1.5210990     0.7448870
  O       -2.3570290    -3.0668370     0.0949400
  O        1.3605300     2.2470340    -0.0765420
  N        0.8434040     0.0452230     0.2559430
  N        3.0572260     0.7205030    -0.2937270
  N        4.7164630    -0.8366550    -0.5722980
  C       -1.2894840     1.0784300    -0.5920770
  C       -2.7151710     0.6552070    -0.2573930
  C       -0.4886568     0.4685473     0.6303009
  C       -2.5395246    -0.7592645     0.3866036
  C       -2.5283440    -1.8503930    -0.6392900
  C        1.2197750    -1.2614080     0.3112740
  C        1.7555940     1.0674350    -0.0594030
  C        2.5111010    -1.6091400     0.0469950
  C        3.4119830    -0.5506530    -0.2589250
  H       -0.9376060     0.5914040    -1.5148910
  H       -3.3625820     0.6426650    -1.1464650
  H       -0.4402900     1.2218800     1.4039980
  H       -3.2819570    -0.9087340     1.1307830
  H       -1.7133080    -1.7003050    -1.3694640
  H       -3.4855610    -1.8340040    -1.1841350
  H       -0.2975250     2.7131790    -0.5250000
  H       -2.8475560     2.3997430     0.5086630
  H        0.4343110    -1.9634370     0.5690680
  H       -2.4338740    -3.7984320    -0.5432330
  H        2.8291120    -2.6453980     0.0739220
  H        5.1251800    -1.6708610    -0.1624140
  H        5.3198140    -0.0200540    -0.5682940
units angstrom
no_reorient  #important for SAPT in psi4, default
symmetry c1  #important for SAPT in psi4, default
}

set PROPERTIES_ORIGIN ["COM"]
properties('MP2/aug-cc-pvtz', properties = ['dipole'])
--------------------------------------------------------------------------

    Molecular point group: c1
  Charge       = 0
  Multiplicity = 1
  Basis Set: AUG-CC-PVTZ
    Blend: AUG-CC-PVTZ
  Basis Set: (AUG-CC-PVTZ AUX)
    Blend: AUG-CC-PVTZ-JKFIT

    Orbital Energies [Eh]
    ---------------------

    Doubly Occupied:

       1A    -20.581118     2A    -20.577616     3A    -20.555458
       4A    -20.555046     5A    -20.523299     6A    -15.638869
       7A    -15.600858     8A    -15.554648     9A    -11.389986
      10A    -11.359069    11A    -11.339821    12A    -11.329658
      13A    -11.300030    14A    -11.296042    15A    -11.295282
      16A    -11.292077    17A    -11.249856    18A     -1.426459
      19A     -1.396548    20A     -1.378279    21A     -1.371639
      22A     -1.343489    23A     -1.307935    24A     -1.277485
      25A     -1.184185    26A     -1.083906    27A     -1.060703
      28A     -1.015440    29A     -0.936851    30A     -0.911692
      31A     -0.876484    32A     -0.831852    33A     -0.810167
      34A     -0.769794    35A     -0.752330    36A     -0.735859
      37A     -0.719994    38A     -0.702932    39A     -0.696456
      40A     -0.687008    41A     -0.673019    42A     -0.656639
      43A     -0.651553    44A     -0.636522    45A     -0.620090
      46A     -0.615757    47A     -0.607067    48A     -0.595375
      49A     -0.575534    50A     -0.573535    51A     -0.551706
      52A     -0.544211    53A     -0.534344    54A     -0.532911
      55A     -0.498383    56A     -0.476261    57A     -0.467968
      58A     -0.462782    59A     -0.460006    60A     -0.446474
      61A     -0.437391    62A     -0.434408    63A     -0.394913
      64A     -0.350308

  @DF-RHF Final Energy:  -886.36937349679340

   => Energetics <=

    Nuclear Repulsion Energy =           1322.7279107832118825
    One-Electron Energy =               -3843.1678130753393816
    Two-Electron Energy =                1634.0705287953342122
    Total Energy =                       -886.3693734967932869
  Basis Set: (AUG-CC-PVTZ AUX)
    Blend: AUG-CC-PVTZ-RI
    Molecular point group: c1

    Geometry (in Angstrom), charge = 0, multiplicity = 1:

       Center              X                  Y                   Z               Mass
    ------------   -----------------  -----------------  -----------------  -----------------
         O           -1.249408356558    -0.649935558910     1.029762667487    15.994914619570
         O           -1.246282356558     2.485583441090    -0.688915332513    15.994914619570
         O           -3.217837356558     1.523831441090     0.742134667487    15.994914619570
         O           -2.358336356558    -3.064104558910     0.092187667487    15.994914619570
         O            1.359222643442     2.249766441090    -0.079294332513    15.994914619570
         N            0.842096643442     0.047955441090     0.253190667487    14.003074004430
         N            3.055918643442     0.723235441090    -0.296479332513    14.003074004430
         N            4.715155643442    -0.833922558910    -0.575050332513    14.003074004430
         C           -1.290791356558     1.081162441090    -0.594829332513    12.000000000000
         C           -2.716478356558     0.657939441090    -0.260145332513    12.000000000000
         C           -0.489964156558     0.471279741090     0.627548567487    12.000000000000
         C           -2.540831956558    -0.756532058910     0.383851267487    12.000000000000
         C           -2.529651356558    -1.847660558910    -0.642042332513    12.000000000000
         C            1.218467643442    -1.258675558910     0.308521667487    12.000000000000
         C            1.754286643442     1.070167441090    -0.062155332513    12.000000000000
         C            2.509793643442    -1.606407558910     0.044242667487    12.000000000000
         C            3.410675643442    -0.547920558910    -0.261677332513    12.000000000000
         H           -0.938913356558     0.594136441090    -1.517643332513     1.007825032230
         H           -3.363889356558     0.645397441090    -1.149217332513     1.007825032230
         H           -0.441597356558     1.224612441090     1.401245667487     1.007825032230
         H           -3.283264356558    -0.906001558910     1.128030667487     1.007825032230
         H           -1.714615356558    -1.697572558910    -1.372216332513     1.007825032230
         H           -3.486868356558    -1.831271558910    -1.186887332513     1.007825032230
         H           -0.298832356558     2.715911441090    -0.527752332513     1.007825032230
         H           -2.848863356558     2.402475441090     0.505910667487     1.007825032230
         H            0.433003643442    -1.960704558910     0.566315667487     1.007825032230
         H           -2.435181356558    -3.795699558910    -0.545985332513     1.007825032230
         H            2.827804643442    -2.642665558910     0.071169667487     1.007825032230
         H            5.123872643442    -1.668128558910    -0.165166332513     1.007825032230
         H            5.318506643442    -0.017321558910    -0.571046332513     1.007825032230

  Basis Set: AUG-CC-PVTZ
    Blend: AUG-CC-PVTZ
  Basis Set: (AUG-CC-PVTZ AUX)
    Blend: AUG-CC-PVTZ-JKFIT
	 Reference Energy          =    -886.3693734967934006 [Eh]
	 Singles Energy            =      -0.0000000000000000 [Eh]
	 Same-Spin Energy          =      -0.9008729523310856 [Eh]
	 Opposite-Spin Energy      =      -2.7145391411575091 [Eh]
	 Correlation Energy        =      -3.6154120934885947 [Eh]
	 Total Energy              =    -889.9847855902819447 [Eh]

	 ================> DF-SCS-MP2 Energies <==================
	-----------------------------------------------------------
	 SCS Same-Spin Scale       =       0.3333333333333333 [-]
	 SCS Opposite-Spin Scale   =       1.2000000000000000 [-]
	 SCS Same-Spin Energy      =      -0.3002909841103618 [Eh]
	 SCS Opposite-Spin Energy  =      -3.2574469693890107 [Eh]
	 SCS Correlation Energy    =      -3.5577379534993723 [Eh]
	 SCS Total Energy          =    -889.9271114502927276 [Eh]
	-----------------------------------------------------------

  Dipole Moment: [D]
     X:     1.8498      Y:    -6.0157      Z:    -1.7866     Total:     6.5423

*** Psi4 exiting successfully. Buy a developer a beer!
