                               Psi4 1.3.2 release

  ==> Input File <==

--------------------------------------------------------------------------
#psi4
#
memory 32 gb

molecule  {
0 1
  O       -1.2481010    -0.6526680     1.0325150
  O       -1.2449750     2.4828510    -0.6861630
  O       -3.2165300     1.5210990     0.7448870
  O       -2.3570290    -3.0668370     0.0949400
  O        1.3605300     2.2470340    -0.0765420
  N        0.8434040     0.0452230     0.2559430
  N        3.0572260     0.7205030    -0.2937270
  N        4.7164630    -0.8366550    -0.5722980
  C       -1.2894840     1.0784300    -0.5920770
  C       -2.7151710     0.6552070    -0.2573930
  C       -0.5254080     0.4815200     0.6000940
  C       -2.5292560    -0.7168860     0.3610560
  C       -2.5283440    -1.8503930    -0.6392900
  C        1.2197750    -1.2614080     0.3112740
  C        1.7555940     1.0674350    -0.0594030
  C        2.5111010    -1.6091400     0.0469950
  C        3.4119830    -0.5506530    -0.2589250
  H       -0.9376060     0.5914040    -1.5148910
  H       -3.3625820     0.6426650    -1.1464650
  H       -0.4402900     1.2218800     1.4039980
  H       -3.2819570    -0.9087340     1.1307830
  H       -1.7133080    -1.7003050    -1.3694640
  H       -3.4855610    -1.8340040    -1.1841350
  H       -0.2975250     2.7131790    -0.5250000
  H       -2.8475560     2.3997430     0.5086630
  H        0.4343110    -1.9634370     0.5690680
  H       -2.4338740    -3.7984320    -0.5432330
  H        2.8877699    -2.8365382     0.0788887
  H        5.1251800    -1.6708610    -0.1624140
  H        5.3198140    -0.0200540    -0.5682940
units angstrom
no_reorient  #important for SAPT in psi4, default
symmetry c1  #important for SAPT in psi4, default
}

set PROPERTIES_ORIGIN ["COM"]
properties('MP2/aug-cc-pvtz', properties = ['dipole'])
--------------------------------------------------------------------------

    Molecular point group: c1
  Charge       = 0
  Multiplicity = 1
  Basis Set: AUG-CC-PVTZ
    Blend: AUG-CC-PVTZ
  Basis Set: (AUG-CC-PVTZ AUX)
    Blend: AUG-CC-PVTZ-JKFIT

    Orbital Energies [Eh]
    ---------------------

    Doubly Occupied:

       1A    -20.582301     2A    -20.582008     3A    -20.558053
       4A    -20.557623     5A    -20.522698     6A    -15.638063
       7A    -15.599680     8A    -15.554966     9A    -11.389191
      10A    -11.360067    11A    -11.342211    12A    -11.330218
      13A    -11.301319    14A    -11.297179    15A    -11.297054
      16A    -11.293258    17A    -11.269072    18A     -1.429868
      19A     -1.397136    20A     -1.380402    21A     -1.372982
      22A     -1.346640    23A     -1.306831    24A     -1.274479
      25A     -1.182928    26A     -1.078897    27A     -1.068014
      28A     -1.020392    29A     -0.935419    30A     -0.908531
      31A     -0.876247    32A     -0.831258    33A     -0.812179
      34A     -0.767544    35A     -0.747903    36A     -0.735315
      37A     -0.720608    38A     -0.703038    39A     -0.698365
      40A     -0.685216    41A     -0.671220    42A     -0.654966
      43A     -0.644495    44A     -0.627716    45A     -0.620473
      46A     -0.613488    47A     -0.607104    48A     -0.577857
      49A     -0.573986    50A     -0.570099    51A     -0.553777
      52A     -0.544889    53A     -0.536859    54A     -0.531904
      55A     -0.498930    56A     -0.477576    57A     -0.474671
      58A     -0.462573    59A     -0.459936    60A     -0.453171
      61A     -0.440932    62A     -0.433384    63A     -0.395873
      64A     -0.350998

  @DF-RHF Final Energy:  -886.35072943099624

   => Energetics <=

    Nuclear Repulsion Energy =           1322.6388249635740522
    One-Electron Energy =               -3842.9150418689387152
    Two-Electron Energy =                1633.9254874743685377
    Total Energy =                       -886.3507294309963527
  Basis Set: (AUG-CC-PVTZ AUX)
    Blend: AUG-CC-PVTZ-RI
    Molecular point group: c1

    Geometry (in Angstrom), charge = 0, multiplicity = 1:

       Center              X                  Y                   Z               Mass
    ------------   -----------------  -----------------  -----------------  -----------------
         O           -1.248344227771    -0.651875528518     1.032494415696    15.994914619570
         O           -1.245218227771     2.483643471482    -0.686183584304    15.994914619570
         O           -3.216773227771     1.521891471482     0.744866415696    15.994914619570
         O           -2.357272227771    -3.066044528518     0.094919415696    15.994914619570
         O            1.360286772229     2.247826471482    -0.076562584304    15.994914619570
         N            0.843160772229     0.046015471482     0.255922415696    14.003074004430
         N            3.056982772229     0.721295471482    -0.293747584304    14.003074004430
         N            4.716219772229    -0.835862528518    -0.572318584304    14.003074004430
         C           -1.289727227771     1.079222471482    -0.592097584304    12.000000000000
         C           -2.715414227771     0.655999471482    -0.257413584304    12.000000000000
         C           -0.525651227771     0.482312471482     0.600073415696    12.000000000000
         C           -2.529499227771    -0.716093528518     0.361035415696    12.000000000000
         C           -2.528587227771    -1.849600528518    -0.639310584304    12.000000000000
         C            1.219531772229    -1.260615528518     0.311253415696    12.000000000000
         C            1.755350772229     1.068227471482    -0.059423584304    12.000000000000
         C            2.510857772229    -1.608347528518     0.046974415696    12.000000000000
         C            3.411739772229    -0.549860528518    -0.258945584304    12.000000000000
         H           -0.937849227771     0.592196471482    -1.514911584304     1.007825032230
         H           -3.362825227771     0.643457471482    -1.146485584304     1.007825032230
         H           -0.440533227771     1.222672471482     1.403977415696     1.007825032230
         H           -3.282200227771    -0.907941528518     1.130762415696     1.007825032230
         H           -1.713551227771    -1.699512528518    -1.369484584304     1.007825032230
         H           -3.485804227771    -1.833211528518    -1.184155584304     1.007825032230
         H           -0.297768227771     2.713971471482    -0.525020584304     1.007825032230
         H           -2.847799227771     2.400535471482     0.508642415696     1.007825032230
         H            0.434067772229    -1.962644528518     0.569047415696     1.007825032230
         H           -2.434117227771    -3.797639528518    -0.543253584304     1.007825032230
         H            2.887526672229    -2.835745728518     0.078868115696     1.007825032230
         H            5.124936772229    -1.670068528518    -0.162434584304     1.007825032230
         H            5.319570772229    -0.019261528518    -0.568314584304     1.007825032230

  Basis Set: AUG-CC-PVTZ
    Blend: AUG-CC-PVTZ
  Basis Set: (AUG-CC-PVTZ AUX)
    Blend: AUG-CC-PVTZ-JKFIT
	 Reference Energy          =    -886.3507294309962390 [Eh]
	 Singles Energy            =      -0.0000000000000000 [Eh]
	 Same-Spin Energy          =      -0.9017517602070589 [Eh]
	 Opposite-Spin Energy      =      -2.7170764728442172 [Eh]
	 Correlation Energy        =      -3.6188282330512762 [Eh]
	 Total Energy              =    -889.9695576640475565 [Eh]

	 ================> DF-SCS-MP2 Energies <==================
	-----------------------------------------------------------
	 SCS Same-Spin Scale       =       0.3333333333333333 [-]
	 SCS Opposite-Spin Scale   =       1.2000000000000000 [-]
	 SCS Same-Spin Energy      =      -0.3005839200690196 [Eh]
	 SCS Opposite-Spin Energy  =      -3.2604917674130607 [Eh]
	 SCS Correlation Energy    =      -3.5610756874820804 [Eh]
	 SCS Total Energy          =    -889.9118051184783553 [Eh]
	-----------------------------------------------------------

  Dipole Moment: [D]
     X:     1.6958      Y:    -5.9097      Z:    -1.8295     Total:     6.4146

*** Psi4 exiting successfully. Buy a developer a beer!
