                               Psi4 1.3.2 release

  ==> Input File <==

--------------------------------------------------------------------------
#psi4
#
memory 32 gb

molecule  {
0 1
  O       -1.2679176    -0.6384285     1.0360416
  O       -1.2449750     2.4828510    -0.6861630
  O       -3.2165300     1.5210990     0.7448870
  O       -2.3570290    -3.0668370     0.0949400
  O        1.3605300     2.2470340    -0.0765420
  N        0.8493208     0.0695155     0.2496454
  N        3.0572260     0.7205030    -0.2937270
  N        4.7164630    -0.8366550    -0.5722980
  C       -1.2894840     1.0784300    -0.5920770
  C       -2.7151710     0.6552070    -0.2573930
  C       -0.5254080     0.4815200     0.6000940
  C       -2.5292560    -0.7168860     0.3610560
  C       -2.5283440    -1.8503930    -0.6392900
  C        1.2197750    -1.2614080     0.3112740
  C        1.7555940     1.0674350    -0.0594030
  C        2.5111010    -1.6091400     0.0469950
  C        3.4119830    -0.5506530    -0.2589250
  H       -0.9376060     0.5914040    -1.5148910
  H       -3.3625820     0.6426650    -1.1464650
  H       -0.4402900     1.2218800     1.4039980
  H       -3.2819570    -0.9087340     1.1307830
  H       -1.7133080    -1.7003050    -1.3694640
  H       -3.4855610    -1.8340040    -1.1841350
  H       -0.2975250     2.7131790    -0.5250000
  H       -2.8475560     2.3997430     0.5086630
  H        0.4343110    -1.9634370     0.5690680
  H       -2.4338740    -3.7984320    -0.5432330
  H        2.8291120    -2.6453980     0.0739220
  H        5.1251800    -1.6708610    -0.1624140
  H        5.3198140    -0.0200540    -0.5682940
units angstrom
no_reorient  #important for SAPT in psi4, default
symmetry c1  #important for SAPT in psi4, default
}

set PROPERTIES_ORIGIN ["COM"]
properties('MP2/aug-cc-pvtz', properties = ['dipole'])
--------------------------------------------------------------------------

    Molecular point group: c1
  Charge       = 0
  Multiplicity = 1
  Basis Set: AUG-CC-PVTZ
    Blend: AUG-CC-PVTZ
  Basis Set: (AUG-CC-PVTZ AUX)
    Blend: AUG-CC-PVTZ-JKFIT

    Orbital Energies [Eh]
    ---------------------

    Doubly Occupied:

       1A    -20.582183     2A    -20.581753     3A    -20.556696
       4A    -20.556024     5A    -20.518550     6A    -15.637083
       7A    -15.601094     8A    -15.553974     9A    -11.385500
      10A    -11.359192    11A    -11.341344    12A    -11.331595
      13A    -11.300638    14A    -11.295388    15A    -11.295335
      16A    -11.291371    17A    -11.252393    18A     -1.431387
      19A     -1.397823    20A     -1.379314    21A     -1.372746
      22A     -1.345169    23A     -1.305289    24A     -1.273071
      25A     -1.182767    26A     -1.083762    27A     -1.066241
      28A     -1.022766    29A     -0.935475    30A     -0.912359
      31A     -0.877037    32A     -0.831511    33A     -0.812064
      34A     -0.768522    35A     -0.751599    36A     -0.735383
      37A     -0.721210    38A     -0.703088    39A     -0.698417
      40A     -0.686716    41A     -0.673686    42A     -0.654540
      43A     -0.651958    44A     -0.639446    45A     -0.621085
      46A     -0.616782    47A     -0.607606    48A     -0.590925
      49A     -0.575749    50A     -0.570264    51A     -0.553197
      52A     -0.545681    53A     -0.537090    54A     -0.532303
      55A     -0.494731    56A     -0.476757    57A     -0.472658
      58A     -0.460424    59A     -0.458852    60A     -0.451549
      61A     -0.440604    62A     -0.434064    63A     -0.395266
      64A     -0.352856

  @DF-RHF Final Energy:  -886.37321410570530

   => Energetics <=

    Nuclear Repulsion Energy =           1323.9072686454687755
    One-Electron Energy =               -3845.4771617357901050
    Two-Electron Energy =                1635.1966789846160282
    Total Energy =                       -886.3732141057053013
  Basis Set: (AUG-CC-PVTZ AUX)
    Blend: AUG-CC-PVTZ-RI
    Molecular point group: c1

    Geometry (in Angstrom), charge = 0, multiplicity = 1:

       Center              X                  Y                   Z               Mass
    ------------   -----------------  -----------------  -----------------  -----------------
         O           -1.266954551330    -0.640764825077     1.036172335518    15.994914619570
         O           -1.244011951330     2.480514674923    -0.686032264482    15.994914619570
         O           -3.215566951330     1.518762674923     0.745017735518    15.994914619570
         O           -2.356065951330    -3.069173325077     0.095070735518    15.994914619570
         O            1.361493048670     2.244697674923    -0.076411264482    15.994914619570
         N            0.850283848670     0.067179174923     0.249776135518    14.003074004430
         N            3.058189048670     0.718166674923    -0.293596264482    14.003074004430
         N            4.717426048670    -0.838991325077    -0.572167264482    14.003074004430
         C           -1.288520951330     1.076093674923    -0.591946264482    12.000000000000
         C           -2.714207951330     0.652870674923    -0.257262264482    12.000000000000
         C           -0.524444951330     0.479183674923     0.600224735518    12.000000000000
         C           -2.528292951330    -0.719222325077     0.361186735518    12.000000000000
         C           -2.527380951330    -1.852729325077    -0.639159264482    12.000000000000
         C            1.220738048670    -1.263744325077     0.311404735518    12.000000000000
         C            1.756557048670     1.065098674923    -0.059272264482    12.000000000000
         C            2.512064048670    -1.611476325077     0.047125735518    12.000000000000
         C            3.412946048670    -0.552989325077    -0.258794264482    12.000000000000
         H           -0.936642951330     0.589067674923    -1.514760264482     1.007825032230
         H           -3.361618951330     0.640328674923    -1.146334264482     1.007825032230
         H           -0.439326951330     1.219543674923     1.404128735518     1.007825032230
         H           -3.280993951330    -0.911070325077     1.130913735518     1.007825032230
         H           -1.712344951330    -1.702641325077    -1.369333264482     1.007825032230
         H           -3.484597951330    -1.836340325077    -1.184004264482     1.007825032230
         H           -0.296561951330     2.710842674923    -0.524869264482     1.007825032230
         H           -2.846592951330     2.397406674923     0.508793735518     1.007825032230
         H            0.435274048670    -1.965773325077     0.569198735518     1.007825032230
         H           -2.432910951330    -3.800768325077    -0.543102264482     1.007825032230
         H            2.830075048670    -2.647734325077     0.074052735518     1.007825032230
         H            5.126143048670    -1.673197325077    -0.162283264482     1.007825032230
         H            5.320777048670    -0.022390325077    -0.568163264482     1.007825032230

  Basis Set: AUG-CC-PVTZ
    Blend: AUG-CC-PVTZ
  Basis Set: (AUG-CC-PVTZ AUX)
    Blend: AUG-CC-PVTZ-JKFIT
	 Reference Energy          =    -886.3732141057053013 [Eh]
	 Singles Energy            =      -0.0000000000000000 [Eh]
	 Same-Spin Energy          =      -0.9009571145933819 [Eh]
	 Opposite-Spin Energy      =      -2.7144911915338699 [Eh]
	 Correlation Energy        =      -3.6154483061272518 [Eh]
	 Total Energy              =    -889.9886624118325926 [Eh]

	 ================> DF-SCS-MP2 Energies <==================
	-----------------------------------------------------------
	 SCS Same-Spin Scale       =       0.3333333333333333 [-]
	 SCS Opposite-Spin Scale   =       1.2000000000000000 [-]
	 SCS Same-Spin Energy      =      -0.3003190381977939 [Eh]
	 SCS Opposite-Spin Energy  =      -3.2573894298406438 [Eh]
	 SCS Correlation Energy    =      -3.5577084680384377 [Eh]
	 SCS Total Energy          =    -889.9309225737437146 [Eh]
	-----------------------------------------------------------

  Dipole Moment: [D]
     X:     1.8503      Y:    -6.0980      Z:    -1.8123     Total:     6.6252

*** Psi4 exiting successfully. Buy a developer a beer!
