                               Psi4 1.3.2 release

  ==> Input File <==

--------------------------------------------------------------------------
#psi4
#
memory 32 gb

molecule  {
0 1
  O       -1.2481010    -0.6526680     1.0325150
  O       -1.2449750     2.4828510    -0.6861630
  O       -3.2165300     1.5210990     0.7448870
  O       -2.3570290    -3.0668370     0.0949400
  O        1.3605300     2.2470340    -0.0765420
  N        0.8434040     0.0452230     0.2559430
  N        3.0572260     0.7205030    -0.2937270
  N        4.7164630    -0.8366550    -0.5722980
  C       -1.2894840     1.0784300    -0.5920770
  C       -2.7151710     0.6552070    -0.2573930
  C       -0.5254080     0.4815200     0.6000940
  C       -2.5292560    -0.7168860     0.3610560
  C       -2.5283440    -1.8503930    -0.6392900
  C        1.2145175    -1.2843561     0.3147082
  C        1.7555940     1.0674350    -0.0594030
  C        2.5111010    -1.6091400     0.0469950
  C        3.4119830    -0.5506530    -0.2589250
  H       -0.9376060     0.5914040    -1.5148910
  H       -3.3625820     0.6426650    -1.1464650
  H       -0.4402900     1.2218800     1.4039980
  H       -3.2819570    -0.9087340     1.1307830
  H       -1.7133080    -1.7003050    -1.3694640
  H       -3.4855610    -1.8340040    -1.1841350
  H       -0.2975250     2.7131790    -0.5250000
  H       -2.8475560     2.3997430     0.5086630
  H        0.4343110    -1.9634370     0.5690680
  H       -2.4338740    -3.7984320    -0.5432330
  H        2.8114751    -2.6505191     0.0784869
  H        5.1251800    -1.6708610    -0.1624140
  H        5.3198140    -0.0200540    -0.5682940
units angstrom
no_reorient  #important for SAPT in psi4, default
symmetry c1  #important for SAPT in psi4, default
}

set PROPERTIES_ORIGIN ["COM"]
properties('MP2/aug-cc-pvtz', properties = ['dipole'])
--------------------------------------------------------------------------

    Molecular point group: c1
  Charge       = 0
  Multiplicity = 1
  Basis Set: AUG-CC-PVTZ
    Blend: AUG-CC-PVTZ
  Basis Set: (AUG-CC-PVTZ AUX)
    Blend: AUG-CC-PVTZ-JKFIT

    Orbital Energies [Eh]
    ---------------------

    Doubly Occupied:

       1A    -20.582163     2A    -20.580937     3A    -20.557230
       4A    -20.556539     5A    -20.521525     6A    -15.635185
       7A    -15.600903     8A    -15.554154     9A    -11.387975
      10A    -11.359612    11A    -11.340047    12A    -11.329162
      13A    -11.300944    14A    -11.296453    15A    -11.295657
      16A    -11.292330    17A    -11.250660    18A     -1.428119
      19A     -1.395302    20A     -1.379537    21A     -1.372486
      22A     -1.345668    23A     -1.304677    24A     -1.270353
      25A     -1.182378    26A     -1.082691    27A     -1.067176
      28A     -1.020275    29A     -0.934558    30A     -0.909569
      31A     -0.876852    32A     -0.831446    33A     -0.811428
      34A     -0.766143    35A     -0.751283    36A     -0.735066
      37A     -0.721457    38A     -0.702887    39A     -0.697918
      40A     -0.687503    41A     -0.672289    42A     -0.653690
      43A     -0.650973    44A     -0.637522    45A     -0.623418
      46A     -0.614866    47A     -0.607610    48A     -0.590882
      49A     -0.575864    50A     -0.569492    51A     -0.553593
      52A     -0.545099    53A     -0.537031    54A     -0.531525
      55A     -0.495889    56A     -0.477105    57A     -0.473749
      58A     -0.461658    59A     -0.459932    60A     -0.452195
      61A     -0.440526    62A     -0.433365    63A     -0.395071
      64A     -0.351187

  @DF-RHF Final Energy:  -886.37212083324869

   => Energetics <=

    Nuclear Repulsion Energy =           1323.2303388538689433
    One-Electron Energy =               -3844.1633609334935500
    Two-Electron Energy =                1634.5609012463758063
    Total Energy =                       -886.3721208332488004
  Basis Set: (AUG-CC-PVTZ AUX)
    Blend: AUG-CC-PVTZ-RI
    Molecular point group: c1

    Geometry (in Angstrom), charge = 0, multiplicity = 1:

       Center              X                  Y                   Z               Mass
    ------------   -----------------  -----------------  -----------------  -----------------
         O           -1.247768373607    -0.651513917121     1.032326551087    15.994914619570
         O           -1.244642373607     2.484005082879    -0.686351448913    15.994914619570
         O           -3.216197373607     1.522253082879     0.744698551087    15.994914619570
         O           -2.356696373607    -3.065682917121     0.094751551087    15.994914619570
         O            1.360862626393     2.248188082879    -0.076730448913    15.994914619570
         N            0.843736626393     0.046377082879     0.255754551087    14.003074004430
         N            3.057558626393     0.721657082879    -0.293915448913    14.003074004430
         N            4.716795626393    -0.835500917121    -0.572486448913    14.003074004430
         C           -1.289151373607     1.079584082879    -0.592265448913    12.000000000000
         C           -2.714838373607     0.656361082879    -0.257581448913    12.000000000000
         C           -0.525075373607     0.482674082879     0.599905551087    12.000000000000
         C           -2.528923373607    -0.715731917121     0.360867551087    12.000000000000
         C           -2.528011373607    -1.849238917121    -0.639478448913    12.000000000000
         C            1.214850126393    -1.283202017121     0.314519751087    12.000000000000
         C            1.755926626393     1.068589082879    -0.059591448913    12.000000000000
         C            2.511433626393    -1.607985917121     0.046806551087    12.000000000000
         C            3.412315626393    -0.549498917121    -0.259113448913    12.000000000000
         H           -0.937273373607     0.592558082879    -1.515079448913     1.007825032230
         H           -3.362249373607     0.643819082879    -1.146653448913     1.007825032230
         H           -0.439957373607     1.223034082879     1.403809551087     1.007825032230
         H           -3.281624373607    -0.907579917121     1.130594551087     1.007825032230
         H           -1.712975373607    -1.699150917121    -1.369652448913     1.007825032230
         H           -3.485228373607    -1.832849917121    -1.184323448913     1.007825032230
         H           -0.297192373607     2.714333082879    -0.525188448913     1.007825032230
         H           -2.847223373607     2.400897082879     0.508474551087     1.007825032230
         H            0.434643626393    -1.962282917121     0.568879551087     1.007825032230
         H           -2.433541373607    -3.797277917121    -0.543421448913     1.007825032230
         H            2.811807726393    -2.649365017121     0.078298451087     1.007825032230
         H            5.125512626393    -1.669706917121    -0.162602448913     1.007825032230
         H            5.320146626393    -0.018899917121    -0.568482448913     1.007825032230

  Basis Set: AUG-CC-PVTZ
    Blend: AUG-CC-PVTZ
  Basis Set: (AUG-CC-PVTZ AUX)
    Blend: AUG-CC-PVTZ-JKFIT
	 Reference Energy          =    -886.3721208332486867 [Eh]
	 Singles Energy            =      -0.0000000000000000 [Eh]
	 Same-Spin Energy          =      -0.9012170012429213 [Eh]
	 Opposite-Spin Energy      =      -2.7153191688354044 [Eh]
	 Correlation Energy        =      -3.6165361700783256 [Eh]
	 Total Energy              =    -889.9886570033270345 [Eh]

	 ================> DF-SCS-MP2 Energies <==================
	-----------------------------------------------------------
	 SCS Same-Spin Scale       =       0.3333333333333333 [-]
	 SCS Opposite-Spin Scale   =       1.2000000000000000 [-]
	 SCS Same-Spin Energy      =      -0.3004056670809737 [Eh]
	 SCS Opposite-Spin Energy  =      -3.2583830026024851 [Eh]
	 SCS Correlation Energy    =      -3.5587886696834587 [Eh]
	 SCS Total Energy          =    -889.9309095029321952 [Eh]
	-----------------------------------------------------------

  Dipole Moment: [D]
     X:     1.7870      Y:    -5.9980      Z:    -1.8284     Total:     6.5201

*** Psi4 exiting successfully. Buy a developer a beer!
