                               Psi4 1.3.2 release

  ==> Input File <==

--------------------------------------------------------------------------
#psi4
#
memory 32 gb

molecule  {
0 1
  O       -1.2481010    -0.6526680     1.0325150
  O       -1.2449750     2.4828510    -0.6861630
  O       -3.2165300     1.5210990     0.7448870
  O       -2.3570290    -3.0668370     0.0949400
  O        1.3605300     2.2470340    -0.0765420
  N        0.8434040     0.0452230     0.2559430
  N        3.0572260     0.7205030    -0.2937270
  N        4.7164630    -0.8366550    -0.5722980
  C       -1.2894840     1.0784300    -0.5920770
  C       -2.7151710     0.6552070    -0.2573930
  C       -0.5254080     0.4815200     0.6000940
  C       -2.5292560    -0.7168860     0.3610560
  C       -2.5283440    -1.8503930    -0.6392900
  C        1.2197750    -1.2614080     0.3112740
  C        1.7502127     1.0443833    -0.0563809
  C        2.5111010    -1.6091400     0.0469950
  C        3.3902084    -0.5563873    -0.2540375
  H       -0.9376060     0.5914040    -1.5148910
  H       -3.3625820     0.6426650    -1.1464650
  H       -0.4402900     1.2218800     1.4039980
  H       -3.2819570    -0.9087340     1.1307830
  H       -1.7133080    -1.7003050    -1.3694640
  H       -3.4855610    -1.8340040    -1.1841350
  H       -0.2975250     2.7131790    -0.5250000
  H       -2.8475560     2.3997430     0.5086630
  H        0.4343110    -1.9634370     0.5690680
  H       -2.4338740    -3.7984320    -0.5432330
  H        2.8291120    -2.6453980     0.0739220
  H        5.1251800    -1.6708610    -0.1624140
  H        5.3198140    -0.0200540    -0.5682940
units angstrom
no_reorient  #important for SAPT in psi4, default
symmetry c1  #important for SAPT in psi4, default
}

set PROPERTIES_ORIGIN ["COM"]
properties('MP2/aug-cc-pvtz', properties = ['dipole'])
--------------------------------------------------------------------------

    Molecular point group: c1
  Charge       = 0
  Multiplicity = 1
  Basis Set: AUG-CC-PVTZ
    Blend: AUG-CC-PVTZ
  Basis Set: (AUG-CC-PVTZ AUX)
    Blend: AUG-CC-PVTZ-JKFIT

    Orbital Energies [Eh]
    ---------------------

    Doubly Occupied:

       1A    -20.583381     2A    -20.583313     3A    -20.558363
       4A    -20.556668     5A    -20.516921     6A    -15.642297
       7A    -15.596974     8A    -15.556766     9A    -11.387161
      10A    -11.357380    11A    -11.343886    12A    -11.332491
      13A    -11.302280    14A    -11.298100    15A    -11.297661
      16A    -11.293806    17A    -11.250975    18A     -1.430858
      19A     -1.391676    20A     -1.380631    21A     -1.373435
      22A     -1.346291    23A     -1.301864    24A     -1.273412
      25A     -1.180162    26A     -1.087510    27A     -1.068881
      28A     -1.024376    29A     -0.937565    30A     -0.916931
      31A     -0.876599    32A     -0.833369    33A     -0.813026
      34A     -0.768002    35A     -0.755415    36A     -0.737088
      37A     -0.716955    38A     -0.703182    39A     -0.699059
      40A     -0.683918    41A     -0.673253    42A     -0.655391
      43A     -0.650663    44A     -0.641134    45A     -0.623002
      46A     -0.614556    47A     -0.607482    48A     -0.589547
      49A     -0.576604    50A     -0.570465    51A     -0.554522
      52A     -0.545636    53A     -0.537334    54A     -0.529400
      55A     -0.495586    56A     -0.478444    57A     -0.475103
      58A     -0.463238    59A     -0.457380    60A     -0.453327
      61A     -0.443061    62A     -0.436196    63A     -0.395543
      64A     -0.353311

  @DF-RHF Final Energy:  -886.37025392043211

   => Energetics <=

    Nuclear Repulsion Energy =           1324.2166455195979324
    One-Electron Energy =               -3846.0161862083950837
    Two-Electron Energy =                1635.4292867683650456
    Total Energy =                       -886.3702539204321056
  Basis Set: (AUG-CC-PVTZ AUX)
    Blend: AUG-CC-PVTZ-RI
    Molecular point group: c1

    Geometry (in Angstrom), charge = 0, multiplicity = 1:

       Center              X                  Y                   Z               Mass
    ------------   -----------------  -----------------  -----------------  -----------------
         O           -1.246760473629    -0.651246959109     1.032124547367    15.994914619570
         O           -1.243634473629     2.484272040891    -0.686553452633    15.994914619570
         O           -3.215189473629     1.522520040891     0.744496547367    15.994914619570
         O           -2.355688473629    -3.065415959109     0.094549547367    15.994914619570
         O            1.361870526371     2.248455040891    -0.076932452633    15.994914619570
         N            0.844744526371     0.046644040891     0.255552547367    14.003074004430
         N            3.058566526371     0.721924040891    -0.294117452633    14.003074004430
         N            4.717803526371    -0.835233959109    -0.572688452633    14.003074004430
         C           -1.288143473629     1.079851040891    -0.592467452633    12.000000000000
         C           -2.713830473629     0.656628040891    -0.257783452633    12.000000000000
         C           -0.524067473629     0.482941040891     0.599703547367    12.000000000000
         C           -2.527915473629    -0.715464959109     0.360665547367    12.000000000000
         C           -2.527003473629    -1.848971959109    -0.639680452633    12.000000000000
         C            1.221115526371    -1.259986959109     0.310883547367    12.000000000000
         C            1.751553226371     1.045804340891    -0.056771352633    12.000000000000
         C            2.512441526371    -1.607718959109     0.046604547367    12.000000000000
         C            3.391548926371    -0.554966259109    -0.254427952633    12.000000000000
         H           -0.936265473629     0.592825040891    -1.515281452633     1.007825032230
         H           -3.361241473629     0.644086040891    -1.146855452633     1.007825032230
         H           -0.438949473629     1.223301040891     1.403607547367     1.007825032230
         H           -3.280616473629    -0.907312959109     1.130392547367     1.007825032230
         H           -1.711967473629    -1.698883959109    -1.369854452633     1.007825032230
         H           -3.484220473629    -1.832582959109    -1.184525452633     1.007825032230
         H           -0.296184473629     2.714600040891    -0.525390452633     1.007825032230
         H           -2.846215473629     2.401164040891     0.508272547367     1.007825032230
         H            0.435651526371    -1.962015959109     0.568677547367     1.007825032230
         H           -2.432533473629    -3.797010959109    -0.543623452633     1.007825032230
         H            2.830452526371    -2.643976959109     0.073531547367     1.007825032230
         H            5.126520526371    -1.669439959109    -0.162804452633     1.007825032230
         H            5.321154526371    -0.018632959109    -0.568684452633     1.007825032230

  Basis Set: AUG-CC-PVTZ
    Blend: AUG-CC-PVTZ
  Basis Set: (AUG-CC-PVTZ AUX)
    Blend: AUG-CC-PVTZ-JKFIT
	 Reference Energy          =    -886.3702539204321056 [Eh]
	 Singles Energy            =      -0.0000000000000000 [Eh]
	 Same-Spin Energy          =      -0.9017550288940777 [Eh]
	 Opposite-Spin Energy      =      -2.7158185096825371 [Eh]
	 Correlation Energy        =      -3.6175735385766146 [Eh]
	 Total Energy              =    -889.9878274590087130 [Eh]

	 ================> DF-SCS-MP2 Energies <==================
	-----------------------------------------------------------
	 SCS Same-Spin Scale       =       0.3333333333333333 [-]
	 SCS Opposite-Spin Scale   =       1.2000000000000000 [-]
	 SCS Same-Spin Energy      =      -0.3005850096313592 [Eh]
	 SCS Opposite-Spin Energy  =      -3.2589822116190446 [Eh]
	 SCS Correlation Energy    =      -3.5595672212504037 [Eh]
	 SCS Total Energy          =    -889.9298211416825097 [Eh]
	-----------------------------------------------------------

  Dipole Moment: [D]
     X:     1.5133      Y:    -6.1424      Z:    -1.7625     Total:     6.5670

*** Psi4 exiting successfully. Buy a developer a beer!
