                               Psi4 1.3.2 release

  ==> Input File <==

--------------------------------------------------------------------------
#psi4
#
memory 32 gb

molecule  {
0 1
  O       -1.2481010    -0.6526680     1.0325150
  O       -1.2449750     2.4828510    -0.6861630
  O       -3.2165300     1.5210990     0.7448870
  O       -2.3570290    -3.0668370     0.0949400
  O        1.3605300     2.2470340    -0.0765420
  N        0.8434040     0.0452230     0.2559430
  N        3.0572260     0.7205030    -0.2937270
  N        4.7164630    -0.8366550    -0.5722980
  C       -1.2894840     1.0784300    -0.5920770
  C       -2.7151710     0.6552070    -0.2573930
  C       -0.5254080     0.4815200     0.6000940
  C       -2.5292560    -0.7168860     0.3610560
  C       -2.5268488    -1.8438786    -0.6287399
  C        1.2197750    -1.2614080     0.3112740
  C        1.7555940     1.0674350    -0.0594030
  C        2.5111010    -1.6091400     0.0469950
  C        3.4119830    -0.5506530    -0.2589250
  H       -0.9376060     0.5914040    -1.5148910
  H       -3.3625820     0.6426650    -1.1464650
  H       -0.4402900     1.2218800     1.4039980
  H       -3.2819570    -0.9087340     1.1307830
  H       -1.7133080    -1.7003050    -1.3694640
  H       -3.4855610    -1.8340040    -1.1841350
  H       -0.2975250     2.7131790    -0.5250000
  H       -2.8475560     2.3997430     0.5086630
  H        0.4343110    -1.9634370     0.5690680
  H       -2.4326017    -3.8040033    -0.5369428
  H        2.8291120    -2.6453980     0.0739220
  H        5.1251800    -1.6708610    -0.1624140
  H        5.3198140    -0.0200540    -0.5682940
units angstrom
no_reorient  #important for SAPT in psi4, default
symmetry c1  #important for SAPT in psi4, default
}

set PROPERTIES_ORIGIN ["COM"]
properties('MP2/aug-cc-pvtz', properties = ['dipole'])
--------------------------------------------------------------------------

    Molecular point group: c1
  Charge       = 0
  Multiplicity = 1
  Basis Set: AUG-CC-PVTZ
    Blend: AUG-CC-PVTZ
  Basis Set: (AUG-CC-PVTZ AUX)
    Blend: AUG-CC-PVTZ-JKFIT

    Orbital Energies [Eh]
    ---------------------

    Doubly Occupied:

       1A    -20.581680     2A    -20.581594     3A    -20.557978
       4A    -20.557300     5A    -20.522007     6A    -15.636944
       7A    -15.599858     8A    -15.553352     9A    -11.388277
      10A    -11.357866    11A    -11.341615    12A    -11.328532
      13A    -11.301732    14A    -11.296725    15A    -11.296621
      16A    -11.293299    17A    -11.248559    18A     -1.429564
      19A     -1.396452    20A     -1.380090    21A     -1.372326
      22A     -1.346430    23A     -1.306080    24A     -1.273832
      25A     -1.182269    26A     -1.082074    27A     -1.069126
      28A     -1.022084    29A     -0.935577    30A     -0.909387
      31A     -0.877171    32A     -0.832457    33A     -0.811843
      34A     -0.766965    35A     -0.752407    36A     -0.736477
      37A     -0.720292    38A     -0.703713    39A     -0.698431
      40A     -0.685617    41A     -0.672893    42A     -0.654214
      43A     -0.651359    44A     -0.638568    45A     -0.620305
      46A     -0.614996    47A     -0.606953    48A     -0.593893
      49A     -0.575646    50A     -0.569365    51A     -0.553647
      52A     -0.546082    53A     -0.537570    54A     -0.531832
      55A     -0.498085    56A     -0.476562    57A     -0.474286
      58A     -0.462969    59A     -0.460035    60A     -0.452804
      61A     -0.440859    62A     -0.433264    63A     -0.395220
      64A     -0.350020

  @DF-RHF Final Energy:  -886.37331080452577

   => Energetics <=

    Nuclear Repulsion Energy =           1323.9393250313571571
    One-Electron Energy =               -3845.5332085404324971
    Two-Electron Energy =                1635.2205727045497952
    Total Energy =                       -886.3733108045257723
  Basis Set: (AUG-CC-PVTZ AUX)
    Blend: AUG-CC-PVTZ-RI
    Molecular point group: c1

    Geometry (in Angstrom), charge = 0, multiplicity = 1:

       Center              X                  Y                   Z               Mass
    ------------   -----------------  -----------------  -----------------  -----------------
         O           -1.248180119913    -0.652966477012     1.031968119206    15.994914619570
         O           -1.245054119913     2.482552522988    -0.686709880794    15.994914619570
         O           -3.216609119913     1.520800522988     0.744340119206    15.994914619570
         O           -2.357108119913    -3.067135477012     0.094393119206    15.994914619570
         O            1.360450880087     2.246735522988    -0.077088880794    15.994914619570
         N            0.843324880087     0.044924522988     0.255396119206    14.003074004430
         N            3.057146880087     0.720204522988    -0.294273880794    14.003074004430
         N            4.716383880087    -0.836953477012    -0.572844880794    14.003074004430
         C           -1.289563119913     1.078131522988    -0.592623880794    12.000000000000
         C           -2.715250119913     0.654908522988    -0.257939880794    12.000000000000
         C           -0.525487119913     0.481221522988     0.599547119206    12.000000000000
         C           -2.529335119913    -0.717184477012     0.360509119206    12.000000000000
         C           -2.526927919913    -1.844177077012    -0.629286780794    12.000000000000
         C            1.219695880087    -1.261706477012     0.310727119206    12.000000000000
         C            1.755514880087     1.067136522988    -0.059949880794    12.000000000000
         C            2.511021880087    -1.609438477012     0.046448119206    12.000000000000
         C            3.411903880087    -0.550951477012    -0.259471880794    12.000000000000
         H           -0.937685119913     0.591105522988    -1.515437880794     1.007825032230
         H           -3.362661119913     0.642366522988    -1.147011880794     1.007825032230
         H           -0.440369119913     1.221581522988     1.403451119206     1.007825032230
         H           -3.282036119913    -0.909032477012     1.130236119206     1.007825032230
         H           -1.713387119913    -1.700603477012    -1.370010880794     1.007825032230
         H           -3.485640119913    -1.834302477012    -1.184681880794     1.007825032230
         H           -0.297604119913     2.712880522988    -0.525546880794     1.007825032230
         H           -2.847635119913     2.399444522988     0.508116119206     1.007825032230
         H            0.434231880087    -1.963735477012     0.568521119206     1.007825032230
         H           -2.432680819913    -3.804301777012    -0.537489680794     1.007825032230
         H            2.829032880087    -2.645696477012     0.073375119206     1.007825032230
         H            5.125100880087    -1.671159477012    -0.162960880794     1.007825032230
         H            5.319734880087    -0.020352477012    -0.568840880794     1.007825032230

  Basis Set: AUG-CC-PVTZ
    Blend: AUG-CC-PVTZ
  Basis Set: (AUG-CC-PVTZ AUX)
    Blend: AUG-CC-PVTZ-JKFIT
	 Reference Energy          =    -886.3733108045257723 [Eh]
	 Singles Energy            =      -0.0000000000000000 [Eh]
	 Same-Spin Energy          =      -0.9012787316425017 [Eh]
	 Opposite-Spin Energy      =      -2.7149034660200408 [Eh]
	 Correlation Energy        =      -3.6161821976625426 [Eh]
	 Total Energy              =    -889.9894930021882828 [Eh]

	 ================> DF-SCS-MP2 Energies <==================
	-----------------------------------------------------------
	 SCS Same-Spin Scale       =       0.3333333333333333 [-]
	 SCS Opposite-Spin Scale   =       1.2000000000000000 [-]
	 SCS Same-Spin Energy      =      -0.3004262438808339 [Eh]
	 SCS Opposite-Spin Energy  =      -3.2578841592240488 [Eh]
	 SCS Correlation Energy    =      -3.5583104031048829 [Eh]
	 SCS Total Energy          =    -889.9316212076306556 [Eh]
	-----------------------------------------------------------

  Dipole Moment: [D]
     X:     1.7114      Y:    -5.9495      Z:    -1.8126     Total:     6.4507

*** Psi4 exiting successfully. Buy a developer a beer!
