                               Psi4 1.3.2 release

  ==> Input File <==

--------------------------------------------------------------------------
#psi4
#
memory 32 gb

molecule  {
0 1
  O       -1.2481010    -0.6526680     1.0325150
  O       -1.2449750     2.4828510    -0.6861630
  O       -3.2165300     1.5210990     0.7448870
  O       -2.3570290    -3.0668370     0.0949400
  O        1.3605300     2.2470340    -0.0765420
  N        0.8434040     0.0452230     0.2559430
  N        3.0572260     0.7205030    -0.2937270
  N        4.7164630    -0.8366550    -0.5722980
  C       -1.2894840     1.0784300    -0.5920770
  C       -2.7151710     0.6552070    -0.2573930
  C       -0.5254080     0.4815200     0.6000940
  C       -2.5292560    -0.7168860     0.3610560
  C       -2.5283440    -1.8503930    -0.6392900
  C        1.2197750    -1.2614080     0.3112740
  C        1.7555940     1.0674350    -0.0594030
  C        2.5111010    -1.6091400     0.0469950
  C        3.6021766    -0.5923522    -0.3046149
  H       -0.9376060     0.5914040    -1.5148910
  H       -3.3625820     0.6426650    -1.1464650
  H       -0.4402900     1.2218800     1.4039980
  H       -3.2819570    -0.9087340     1.1307830
  H       -1.7133080    -1.7003050    -1.3694640
  H       -3.4855610    -1.8340040    -1.1841350
  H       -0.2975250     2.7131790    -0.5250000
  H       -2.8475560     2.3997430     0.5086630
  H        0.4343110    -1.9634370     0.5690680
  H       -2.4338740    -3.7984320    -0.5432330
  H        2.8291120    -2.6453980     0.0739220
  H        5.1251800    -1.6708610    -0.1624140
  H        5.3198140    -0.0200540    -0.5682940
units angstrom
no_reorient  #important for SAPT in psi4, default
symmetry c1  #important for SAPT in psi4, default
}

set PROPERTIES_ORIGIN ["COM"]
properties('MP2/aug-cc-pvtz', properties = ['dipole'])
--------------------------------------------------------------------------

    Molecular point group: c1
  Charge       = 0
  Multiplicity = 1
  Basis Set: AUG-CC-PVTZ
    Blend: AUG-CC-PVTZ
  Basis Set: (AUG-CC-PVTZ AUX)
    Blend: AUG-CC-PVTZ-JKFIT

    Orbital Energies [Eh]
    ---------------------

    Doubly Occupied:

       1A    -20.577530     2A    -20.573558     3A    -20.551871
       4A    -20.549554     5A    -20.507761     6A    -15.639666
       7A    -15.618666     8A    -15.536181     9A    -11.375809
      10A    -11.366698    11A    -11.331108    12A    -11.317611
      13A    -11.295846    14A    -11.290629    15A    -11.288370
      16A    -11.286419    17A    -11.250050    18A     -1.420014
      19A     -1.389381    20A     -1.376783    21A     -1.372046
      22A     -1.366754    23A     -1.338897    24A     -1.274393
      25A     -1.161018    26A     -1.061191    27A     -1.060921
      28A     -1.010079    29A     -0.929574    30A     -0.898327
      31A     -0.883459    32A     -0.833313    33A     -0.812165
      34A     -0.789717    35A     -0.766360    36A     -0.739323
      37A     -0.727167    38A     -0.699497    39A     -0.692344
      40A     -0.684433    41A     -0.670643    42A     -0.646770
      43A     -0.641595    44A     -0.633395    45A     -0.613787
      46A     -0.607946    47A     -0.604621    48A     -0.589254
      49A     -0.574950    50A     -0.567974    51A     -0.555104
      52A     -0.543725    53A     -0.533294    54A     -0.527150
      55A     -0.487612    56A     -0.471767    57A     -0.467217
      58A     -0.454362    59A     -0.445715    60A     -0.444068
      61A     -0.430230    62A     -0.399762    63A     -0.374584
      64A     -0.338482

  @DF-RHF Final Energy:  -886.30547268760552

   => Energetics <=

    Nuclear Repulsion Energy =           1321.2454672285116430
    One-Electron Energy =               -3840.5648915472543194
    Two-Electron Energy =                1633.0139516311371608
    Total Energy =                       -886.3054726876055156
  Basis Set: (AUG-CC-PVTZ AUX)
    Blend: AUG-CC-PVTZ-RI
    Molecular point group: c1

    Geometry (in Angstrom), charge = 0, multiplicity = 1:

       Center              X                  Y                   Z               Mass
    ------------   -----------------  -----------------  -----------------  -----------------
         O           -1.257490006159    -0.650609494567     1.034770505047    15.994914619570
         O           -1.254364006159     2.484909505433    -0.683907494953    15.994914619570
         O           -3.225919006159     1.523157505433     0.747142505047    15.994914619570
         O           -2.366418006159    -3.064778494567     0.097195505047    15.994914619570
         O            1.351140993841     2.249092505433    -0.074286494953    15.994914619570
         N            0.834014993841     0.047281505433     0.258198505047    14.003074004430
         N            3.047836993841     0.722561505433    -0.291471494953    14.003074004430
         N            4.707073993841    -0.834596494567    -0.570042494953    14.003074004430
         C           -1.298873006159     1.080488505433    -0.589821494953    12.000000000000
         C           -2.724560006159     0.657265505433    -0.255137494953    12.000000000000
         C           -0.534797006159     0.483578505433     0.602349505047    12.000000000000
         C           -2.538645006159    -0.714827494567     0.363311505047    12.000000000000
         C           -2.537733006159    -1.848334494567    -0.637034494953    12.000000000000
         C            1.210385993841    -1.259349494567     0.313529505047    12.000000000000
         C            1.746204993841     1.069493505433    -0.057147494953    12.000000000000
         C            2.501711993841    -1.607081494567     0.049250505047    12.000000000000
         C            3.592787593841    -0.590293694567    -0.302359394953    12.000000000000
         H           -0.946995006159     0.593462505433    -1.512635494953     1.007825032230
         H           -3.371971006159     0.644723505433    -1.144209494953     1.007825032230
         H           -0.449679006159     1.223938505433     1.406253505047     1.007825032230
         H           -3.291346006159    -0.906675494567     1.133038505047     1.007825032230
         H           -1.722697006159    -1.698246494567    -1.367208494953     1.007825032230
         H           -3.494950006159    -1.831945494567    -1.181879494953     1.007825032230
         H           -0.306914006159     2.715237505433    -0.522744494953     1.007825032230
         H           -2.856945006159     2.401801505433     0.510918505047     1.007825032230
         H            0.424921993841    -1.961378494567     0.571323505047     1.007825032230
         H           -2.443263006159    -3.796373494567    -0.540977494953     1.007825032230
         H            2.819722993841    -2.643339494567     0.076177505047     1.007825032230
         H            5.115790993841    -1.668802494567    -0.160158494953     1.007825032230
         H            5.310424993841    -0.017995494567    -0.566038494953     1.007825032230

  Basis Set: AUG-CC-PVTZ
    Blend: AUG-CC-PVTZ
  Basis Set: (AUG-CC-PVTZ AUX)
    Blend: AUG-CC-PVTZ-JKFIT
	 Reference Energy          =    -886.3054726876055156 [Eh]
	 Singles Energy            =      -0.0000000000000000 [Eh]
	 Same-Spin Energy          =      -0.9017046222963625 [Eh]
	 Opposite-Spin Energy      =      -2.7158230614695924 [Eh]
	 Correlation Energy        =      -3.6175276837659549 [Eh]
	 Total Energy              =    -889.9230003713714723 [Eh]

	 ================> DF-SCS-MP2 Energies <==================
	-----------------------------------------------------------
	 SCS Same-Spin Scale       =       0.3333333333333333 [-]
	 SCS Opposite-Spin Scale   =       1.2000000000000000 [-]
	 SCS Same-Spin Energy      =      -0.3005682074321208 [Eh]
	 SCS Opposite-Spin Energy  =      -3.2589876737635106 [Eh]
	 SCS Correlation Energy    =      -3.5595558811956316 [Eh]
	 SCS Total Energy          =    -889.8650285688011081 [Eh]
	-----------------------------------------------------------

  Dipole Moment: [D]
     X:     3.8585      Y:    -6.5839      Z:    -2.2298     Total:     7.9503

*** Psi4 exiting successfully. Buy a developer a beer!
