                               Psi4 1.3.2 release

  ==> Input File <==

--------------------------------------------------------------------------
#psi4
#
memory 32 gb

molecule  {
0 1
  O       -1.2481010    -0.6526680     1.0325150
  O       -1.2449750     2.4828510    -0.6861630
  O       -3.2165300     1.5210990     0.7448870
  O       -2.3570290    -3.0668370     0.0949400
  O        1.3605300     2.2470340    -0.0765420
  N        0.8434040     0.0452230     0.2559430
  N        3.0572260     0.7205030    -0.2937270
  N        4.7164630    -0.8366550    -0.5722980
  C       -1.2894840     1.0784300    -0.5920770
  C       -2.7151710     0.6552070    -0.2573930
  C       -0.5254080     0.4815200     0.6000940
  C       -2.5292560    -0.7168860     0.3610560
  C       -2.5282233    -2.0003479    -0.7716286
  C        1.2197750    -1.2614080     0.3112740
  C        1.7555940     1.0674350    -0.0594030
  C        2.5111010    -1.6091400     0.0469950
  C        3.4119830    -0.5506530    -0.2589250
  H       -0.9376060     0.5914040    -1.5148910
  H       -3.3625820     0.6426650    -1.1464650
  H       -0.4402900     1.2218800     1.4039980
  H       -3.2819570    -0.9087340     1.1307830
  H       -1.7133080    -1.7003050    -1.3694640
  H       -3.4855610    -1.8340040    -1.1841350
  H       -0.2975250     2.7131790    -0.5250000
  H       -2.8475560     2.3997430     0.5086630
  H        0.4343110    -1.9634370     0.5690680
  H       -2.4338740    -3.7984320    -0.5432330
  H        2.8291120    -2.6453980     0.0739220
  H        5.1251800    -1.6708610    -0.1624140
  H        5.3198140    -0.0200540    -0.5682940
units angstrom
no_reorient  #important for SAPT in psi4, default
symmetry c1  #important for SAPT in psi4, default
}

set PROPERTIES_ORIGIN ["COM"]
properties('MP2/aug-cc-pvtz', properties = ['dipole'])
--------------------------------------------------------------------------

    Molecular point group: c1
  Charge       = 0
  Multiplicity = 1
  Basis Set: AUG-CC-PVTZ
    Blend: AUG-CC-PVTZ
  Basis Set: (AUG-CC-PVTZ AUX)
    Blend: AUG-CC-PVTZ-JKFIT

    Orbital Energies [Eh]
    ---------------------

    Doubly Occupied:

       1A    -20.593278     2A    -20.580618     3A    -20.555685
       4A    -20.554802     5A    -20.521471     6A    -15.636405
       7A    -15.599721     8A    -15.553111     9A    -11.387805
      10A    -11.357677    11A    -11.340106    12A    -11.328502
      13A    -11.300114    14A    -11.298644    15A    -11.294814
      16A    -11.288447    17A    -11.248529    18A     -1.426820
      19A     -1.403107    20A     -1.392508    21A     -1.375473
      22A     -1.343989    23A     -1.305645    24A     -1.273192
      25A     -1.181883    26A     -1.081171    27A     -1.050507
      28A     -1.009369    29A     -0.933018    30A     -0.910248
      31A     -0.878593    32A     -0.830237    33A     -0.808737
      34A     -0.766367    35A     -0.751653    36A     -0.734009
      37A     -0.721299    38A     -0.706642    39A     -0.694638
      40A     -0.686446    41A     -0.674433    42A     -0.660885
      43A     -0.651144    44A     -0.637717    45A     -0.624184
      46A     -0.615751    47A     -0.608114    48A     -0.595622
      49A     -0.582558    50A     -0.571864    51A     -0.557553
      52A     -0.539866    53A     -0.536004    54A     -0.518385
      55A     -0.496960    56A     -0.491210    57A     -0.471558
      58A     -0.459614    59A     -0.451921    60A     -0.447970
      61A     -0.435003    62A     -0.413546    63A     -0.393952
      64A     -0.349602

  @DF-RHF Final Energy:  -886.34084622082185

   => Energetics <=

    Nuclear Repulsion Energy =           1320.2862492072749774
    One-Electron Energy =               -3838.2727980572180968
    Two-Electron Energy =                1631.6457026291213879
    Total Energy =                       -886.3408462208217315
  Basis Set: (AUG-CC-PVTZ AUX)
    Blend: AUG-CC-PVTZ-RI
    Molecular point group: c1

    Geometry (in Angstrom), charge = 0, multiplicity = 1:

       Center              X                  Y                   Z               Mass
    ------------   -----------------  -----------------  -----------------  -----------------
         O           -1.248106992333    -0.645265414849     1.039047947808    15.994914619570
         O           -1.244980992333     2.490253585151    -0.679630052192    15.994914619570
         O           -3.216535992333     1.528501585151     0.751419947808    15.994914619570
         O           -2.357034992333    -3.059434414849     0.101472947808    15.994914619570
         O            1.360524007667     2.254436585151    -0.070009052192    15.994914619570
         N            0.843398007667     0.052625585151     0.262475947808    14.003074004430
         N            3.057220007667     0.727905585151    -0.287194052192    14.003074004430
         N            4.716457007667    -0.829252414849    -0.565765052192    14.003074004430
         C           -1.289489992333     1.085832585151    -0.585544052192    12.000000000000
         C           -2.715176992333     0.662609585151    -0.250860052192    12.000000000000
         C           -0.525413992333     0.488922585151     0.606626947808    12.000000000000
         C           -2.529261992333    -0.709483414849     0.367588947808    12.000000000000
         C           -2.528229292333    -1.992945314849    -0.765095652192    12.000000000000
         C            1.219769007667    -1.254005414849     0.317806947808    12.000000000000
         C            1.755588007667     1.074837585151    -0.052870052192    12.000000000000
         C            2.511095007667    -1.601737414849     0.053527947808    12.000000000000
         C            3.411977007667    -0.543250414849    -0.252392052192    12.000000000000
         H           -0.937611992333     0.598806585151    -1.508358052192     1.007825032230
         H           -3.362587992333     0.650067585151    -1.139932052192     1.007825032230
         H           -0.440295992333     1.229282585151     1.410530947808     1.007825032230
         H           -3.281962992333    -0.901331414849     1.137315947808     1.007825032230
         H           -1.713313992333    -1.692902414849    -1.362931052192     1.007825032230
         H           -3.485566992333    -1.826601414849    -1.177602052192     1.007825032230
         H           -0.297530992333     2.720581585151    -0.518467052192     1.007825032230
         H           -2.847561992333     2.407145585151     0.515195947808     1.007825032230
         H            0.434305007667    -1.956034414849     0.575600947808     1.007825032230
         H           -2.433879992333    -3.791029414849    -0.536700052192     1.007825032230
         H            2.829106007667    -2.637995414849     0.080454947808     1.007825032230
         H            5.125174007667    -1.663458414849    -0.155881052192     1.007825032230
         H            5.319808007667    -0.012651414849    -0.561761052192     1.007825032230

  Basis Set: AUG-CC-PVTZ
    Blend: AUG-CC-PVTZ
  Basis Set: (AUG-CC-PVTZ AUX)
    Blend: AUG-CC-PVTZ-JKFIT
	 Reference Energy          =    -886.3408462208218452 [Eh]
	 Singles Energy            =      -0.0000000000000000 [Eh]
	 Same-Spin Energy          =      -0.9022726973905291 [Eh]
	 Opposite-Spin Energy      =      -2.7175483230469171 [Eh]
	 Correlation Energy        =      -3.6198210204374464 [Eh]
	 Total Energy              =    -889.9606672412593298 [Eh]

	 ================> DF-SCS-MP2 Energies <==================
	-----------------------------------------------------------
	 SCS Same-Spin Scale       =       0.3333333333333333 [-]
	 SCS Opposite-Spin Scale   =       1.2000000000000000 [-]
	 SCS Same-Spin Energy      =      -0.3007575657968430 [Eh]
	 SCS Opposite-Spin Energy  =      -3.2610579876563004 [Eh]
	 SCS Correlation Energy    =      -3.5618155534531435 [Eh]
	 SCS Total Energy          =    -889.9026617742749750 [Eh]
	-----------------------------------------------------------

  Dipole Moment: [D]
     X:     1.7452      Y:    -6.2091      Z:    -1.7490     Total:     6.6827

*** Psi4 exiting successfully. Buy a developer a beer!
