                               Psi4 1.3.2 release

  ==> Input File <==

--------------------------------------------------------------------------
#psi4
#
memory 32 gb

molecule  {
0 1
  O       -1.2481010    -0.6526680     1.0325150
  O       -1.2449750     2.4828510    -0.6861630
  O       -3.2165300     1.5210990     0.7448870
  O       -2.3570290    -3.0668370     0.0949400
  O        1.3605300     2.2470340    -0.0765420
  N        0.8434040     0.0452230     0.2559430
  N        3.0572260     0.7205030    -0.2937270
  N        4.7164630    -0.8366550    -0.5722980
  C       -1.2894840     1.0784300    -0.5920770
  C       -2.7146882     0.6094171    -0.3227550
  C       -0.5254080     0.4815200     0.6000940
  C       -2.5292560    -0.7168860     0.3610560
  C       -2.5283440    -1.8503930    -0.6392900
  C        1.2197750    -1.2614080     0.3112740
  C        1.7555940     1.0674350    -0.0594030
  C        2.5111010    -1.6091400     0.0469950
  C        3.4119830    -0.5506530    -0.2589250
  H       -0.9887561     0.5650832    -1.5187031
  H       -3.3625820     0.6426650    -1.1464650
  H       -0.4402900     1.2218800     1.4039980
  H       -3.2819570    -0.9087340     1.1307830
  H       -1.7133080    -1.7003050    -1.3694640
  H       -3.4855610    -1.8340040    -1.1841350
  H       -0.2975250     2.7131790    -0.5250000
  H       -2.8475560     2.3997430     0.5086630
  H        0.4343110    -1.9634370     0.5690680
  H       -2.4338740    -3.7984320    -0.5432330
  H        2.8291120    -2.6453980     0.0739220
  H        5.1251800    -1.6708610    -0.1624140
  H        5.3198140    -0.0200540    -0.5682940
units angstrom
no_reorient  #important for SAPT in psi4, default
symmetry c1  #important for SAPT in psi4, default
}

set PROPERTIES_ORIGIN ["COM"]
properties('MP2/aug-cc-pvtz', properties = ['dipole'])
--------------------------------------------------------------------------

    Molecular point group: c1
  Charge       = 0
  Multiplicity = 1
  Basis Set: AUG-CC-PVTZ
    Blend: AUG-CC-PVTZ
  Basis Set: (AUG-CC-PVTZ AUX)
    Blend: AUG-CC-PVTZ-JKFIT

    Orbital Energies [Eh]
    ---------------------

    Doubly Occupied:

       1A    -20.583673     2A    -20.582721     3A    -20.558427
       4A    -20.549384     5A    -20.522268     6A    -15.637499
       7A    -15.600144     8A    -15.553664     9A    -11.388620
      10A    -11.358212    11A    -11.343572    12A    -11.329051
      13A    -11.301859    14A    -11.299381    15A    -11.299312
      16A    -11.292073    17A    -11.249015    18A     -1.429070
      19A     -1.396445    20A     -1.376042    21A     -1.370572
      22A     -1.326111    23A     -1.306414    24A     -1.274203
      25A     -1.182598    26A     -1.082506    27A     -1.075064
      28A     -1.022479    29A     -0.936933    30A     -0.909934
      31A     -0.877674    32A     -0.832914    33A     -0.817691
      34A     -0.767412    35A     -0.753807    36A     -0.735535
      37A     -0.721782    38A     -0.701629    39A     -0.691723
      40A     -0.685884    41A     -0.667040    42A     -0.656308
      43A     -0.650161    44A     -0.640941    45A     -0.620459
      46A     -0.616220    47A     -0.605836    48A     -0.594952
      49A     -0.575720    50A     -0.568525    51A     -0.553120
      52A     -0.540966    53A     -0.532450    54A     -0.529067
      55A     -0.498010    56A     -0.480421    57A     -0.476164
      58A     -0.463214    59A     -0.461349    60A     -0.450162
      61A     -0.444338    62A     -0.433640    63A     -0.395854
      64A     -0.350636

  @DF-RHF Final Energy:  -886.36494227289177

   => Energetics <=

    Nuclear Repulsion Energy =           1323.0357455908965676
    One-Electron Energy =               -3843.7436705254945082
    Two-Electron Energy =                1634.3429826617061735
    Total Energy =                       -886.3649422728917671
  Basis Set: (AUG-CC-PVTZ AUX)
    Blend: AUG-CC-PVTZ-RI
    Molecular point group: c1

    Geometry (in Angstrom), charge = 0, multiplicity = 1:

       Center              X                  Y                   Z               Mass
    ------------   -----------------  -----------------  -----------------  -----------------
         O           -1.247912800795    -0.650298430540     1.035757429852    15.994914619570
         O           -1.244786800795     2.485220569460    -0.682920570148    15.994914619570
         O           -3.216341800795     1.523468569460     0.748129429852    15.994914619570
         O           -2.356840800795    -3.064467430540     0.098182429852    15.994914619570
         O            1.360718199205     2.249403569460    -0.073299570148    15.994914619570
         N            0.843592199205     0.047592569460     0.259185429852    14.003074004430
         N            3.057414199205     0.722872569460    -0.290484570148    14.003074004430
         N            4.716651199205    -0.834285430540    -0.569055570148    14.003074004430
         C           -1.289295800795     1.080799569460    -0.588834570148    12.000000000000
         C           -2.714500000795     0.611786669460    -0.319512570148    12.000000000000
         C           -0.525219800795     0.483889569460     0.603336429852    12.000000000000
         C           -2.529067800795    -0.714516430540     0.364298429852    12.000000000000
         C           -2.528155800795    -1.848023430540    -0.636047570148    12.000000000000
         C            1.219963199205    -1.259038430540     0.314516429852    12.000000000000
         C            1.755782199205     1.069804569460    -0.056160570148    12.000000000000
         C            2.511289199205    -1.606770430540     0.050237429852    12.000000000000
         C            3.412171199205    -0.548283430540    -0.255682570148    12.000000000000
         H           -0.988567900795     0.567452769460    -1.515460670148     1.007825032230
         H           -3.362393800795     0.645034569460    -1.143222570148     1.007825032230
         H           -0.440101800795     1.224249569460     1.407240429852     1.007825032230
         H           -3.281768800795    -0.906364430540     1.134025429852     1.007825032230
         H           -1.713119800795    -1.697935430540    -1.366221570148     1.007825032230
         H           -3.485372800795    -1.831634430540    -1.180892570148     1.007825032230
         H           -0.297336800795     2.715548569460    -0.521757570148     1.007825032230
         H           -2.847367800795     2.402112569460     0.511905429852     1.007825032230
         H            0.434499199205    -1.961067430540     0.572310429852     1.007825032230
         H           -2.433685800795    -3.796062430540    -0.539990570148     1.007825032230
         H            2.829300199205    -2.643028430540     0.077164429852     1.007825032230
         H            5.125368199205    -1.668491430540    -0.159171570148     1.007825032230
         H            5.320002199205    -0.017684430540    -0.565051570148     1.007825032230

  Basis Set: AUG-CC-PVTZ
    Blend: AUG-CC-PVTZ
  Basis Set: (AUG-CC-PVTZ AUX)
    Blend: AUG-CC-PVTZ-JKFIT
	 Reference Energy          =    -886.3649422728917671 [Eh]
	 Singles Energy            =      -0.0000000000000000 [Eh]
	 Same-Spin Energy          =      -0.9015125040701828 [Eh]
	 Opposite-Spin Energy      =      -2.7165125062202815 [Eh]
	 Correlation Energy        =      -3.6180250102904643 [Eh]
	 Total Energy              =    -889.9829672831822336 [Eh]

	 ================> DF-SCS-MP2 Energies <==================
	-----------------------------------------------------------
	 SCS Same-Spin Scale       =       0.3333333333333333 [-]
	 SCS Opposite-Spin Scale   =       1.2000000000000000 [-]
	 SCS Same-Spin Energy      =      -0.3005041680233942 [Eh]
	 SCS Opposite-Spin Energy  =      -3.2598150074643377 [Eh]
	 SCS Correlation Energy    =      -3.5603191754877321 [Eh]
	 SCS Total Energy          =    -889.9252614483795014 [Eh]
	-----------------------------------------------------------

  Dipole Moment: [D]
     X:     1.7731      Y:    -6.1066      Z:    -1.9809     Total:     6.6602

*** Psi4 exiting successfully. Buy a developer a beer!
