                               Psi4 1.3.2 release

  ==> Input File <==

--------------------------------------------------------------------------
#psi4
#
memory 32 gb

molecule  {
0 1
  O       -1.2481010    -0.6526680     1.0325150
  O       -1.2449750     2.4828510    -0.6861630
  O       -3.2165300     1.5210990     0.7448870
  O       -2.3570290    -3.0668370     0.0949400
  O        1.3605300     2.2470340    -0.0765420
  N        0.8434040     0.0452230     0.2559430
  N        3.0572260     0.7205030    -0.2937270
  N        4.7164630    -0.8366550    -0.5722980
  C       -1.2894840     1.0784300    -0.5920770
  C       -2.7210792     0.6457356    -0.2520896
  C       -0.5254080     0.4815200     0.6000940
  C       -2.5292560    -0.7168860     0.3610560
  C       -2.5283440    -1.8503930    -0.6392900
  C        1.2197750    -1.2614080     0.3112740
  C        1.7555940     1.0674350    -0.0594030
  C        2.5111010    -1.6091400     0.0469950
  C        3.4119830    -0.5506530    -0.2589250
  H       -0.9376060     0.5914040    -1.5148910
  H       -3.3625820     0.6426650    -1.1464650
  H       -0.4402900     1.2218800     1.4039980
  H       -3.2819570    -0.9087340     1.1307830
  H       -1.7133080    -1.7003050    -1.3694640
  H       -3.4855610    -1.8340040    -1.1841350
  H       -0.2975250     2.7131790    -0.5250000
  H       -2.8515071     2.4031832     0.5154426
  H        0.4343110    -1.9634370     0.5690680
  H       -2.4338740    -3.7984320    -0.5432330
  H        2.8291120    -2.6453980     0.0739220
  H        5.1251800    -1.6708610    -0.1624140
  H        5.3198140    -0.0200540    -0.5682940
units angstrom
no_reorient  #important for SAPT in psi4, default
symmetry c1  #important for SAPT in psi4, default
}

set PROPERTIES_ORIGIN ["COM"]
properties('MP2/aug-cc-pvtz', properties = ['dipole'])
--------------------------------------------------------------------------

    Molecular point group: c1
  Charge       = 0
  Multiplicity = 1
  Basis Set: AUG-CC-PVTZ
    Blend: AUG-CC-PVTZ
  Basis Set: (AUG-CC-PVTZ AUX)
    Blend: AUG-CC-PVTZ-JKFIT

    Orbital Energies [Eh]
    ---------------------

    Doubly Occupied:

       1A    -20.582394     2A    -20.581720     3A    -20.557431
       4A    -20.556989     5A    -20.521867     6A    -15.636821
       7A    -15.599790     8A    -15.553268     9A    -11.388156
      10A    -11.357782    11A    -11.341348    12A    -11.328458
      13A    -11.301470    14A    -11.296823    15A    -11.296761
      16A    -11.293177    17A    -11.248489    18A     -1.429369
      19A     -1.396341    20A     -1.379573    21A     -1.372777
      22A     -1.345936    23A     -1.305978    24A     -1.273732
      25A     -1.182179    26A     -1.081877    27A     -1.068685
      28A     -1.020615    29A     -0.935277    30A     -0.909492
      31A     -0.877712    32A     -0.832538    33A     -0.811738
      34A     -0.766905    35A     -0.752223    36A     -0.735563
      37A     -0.720239    38A     -0.703354    39A     -0.698674
      40A     -0.685588    41A     -0.673241    42A     -0.654468
      43A     -0.651356    44A     -0.638406    45A     -0.620537
      46A     -0.614442    47A     -0.606813    48A     -0.593747
      49A     -0.575301    50A     -0.569615    51A     -0.554645
      52A     -0.545775    53A     -0.537110    54A     -0.531761
      55A     -0.497919    56A     -0.477556    57A     -0.474511
      58A     -0.462136    59A     -0.459942    60A     -0.452190
      61A     -0.440352    62A     -0.433088    63A     -0.395078
      64A     -0.349867

  @DF-RHF Final Energy:  -886.37342103292565

   => Energetics <=

    Nuclear Repulsion Energy =           1323.6505006953873362
    One-Electron Energy =               -3844.9699118744933912
    Two-Electron Energy =                1634.9459901461805202
    Total Energy =                       -886.3734210329257621
  Basis Set: (AUG-CC-PVTZ AUX)
    Blend: AUG-CC-PVTZ-RI
    Molecular point group: c1

    Geometry (in Angstrom), charge = 0, multiplicity = 1:

       Center              X                  Y                   Z               Mass
    ------------   -----------------  -----------------  -----------------  -----------------
         O           -1.247792992481    -0.652214693918     1.032225095311    15.994914619570
         O           -1.244666992481     2.483304306082    -0.686452904689    15.994914619570
         O           -3.216221992481     1.521552306082     0.744597095311    15.994914619570
         O           -2.356720992481    -3.066383693918     0.094650095311    15.994914619570
         O            1.360838007519     2.247487306082    -0.076831904689    15.994914619570
         N            0.843712007519     0.045676306082     0.255653095311    14.003074004430
         N            3.057534007519     0.720956306082    -0.294016904689    14.003074004430
         N            4.716771007519    -0.836201693918    -0.572587904689    14.003074004430
         C           -1.289175992481     1.078883306082    -0.592366904689    12.000000000000
         C           -2.720771192481     0.646188906082    -0.252379504689    12.000000000000
         C           -0.525099992481     0.481973306082     0.599804095311    12.000000000000
         C           -2.528947992481    -0.716432693918     0.360766095311    12.000000000000
         C           -2.528035992481    -1.849939693918    -0.639579904689    12.000000000000
         C            1.220083007519    -1.260954693918     0.310984095311    12.000000000000
         C            1.755902007519     1.067888306082    -0.059692904689    12.000000000000
         C            2.511409007519    -1.608686693918     0.046705095311    12.000000000000
         C            3.412291007519    -0.550199693918    -0.259214904689    12.000000000000
         H           -0.937297992481     0.591857306082    -1.515180904689     1.007825032230
         H           -3.362273992481     0.643118306082    -1.146754904689     1.007825032230
         H           -0.439981992481     1.222333306082     1.403708095311     1.007825032230
         H           -3.281648992481    -0.908280693918     1.130493095311     1.007825032230
         H           -1.712999992481    -1.699851693918    -1.369753904689     1.007825032230
         H           -3.485252992481    -1.833550693918    -1.184424904689     1.007825032230
         H           -0.297216992481     2.713632306082    -0.525289904689     1.007825032230
         H           -2.851199092481     2.403636506082     0.515152695311     1.007825032230
         H            0.434619007519    -1.962983693918     0.568778095311     1.007825032230
         H           -2.433565992481    -3.797978693918    -0.543522904689     1.007825032230
         H            2.829420007519    -2.644944693918     0.073632095311     1.007825032230
         H            5.125488007519    -1.670407693918    -0.162703904689     1.007825032230
         H            5.320122007519    -0.019600693918    -0.568583904689     1.007825032230

  Basis Set: AUG-CC-PVTZ
    Blend: AUG-CC-PVTZ
  Basis Set: (AUG-CC-PVTZ AUX)
    Blend: AUG-CC-PVTZ-JKFIT
	 Reference Energy          =    -886.3734210329256484 [Eh]
	 Singles Energy            =      -0.0000000000000000 [Eh]
	 Same-Spin Energy          =      -0.9012349921950360 [Eh]
	 Opposite-Spin Energy      =      -2.7148884893703160 [Eh]
	 Correlation Energy        =      -3.6161234815653520 [Eh]
	 Total Energy              =    -889.9895445144909445 [Eh]

	 ================> DF-SCS-MP2 Energies <==================
	-----------------------------------------------------------
	 SCS Same-Spin Scale       =       0.3333333333333333 [-]
	 SCS Opposite-Spin Scale   =       1.2000000000000000 [-]
	 SCS Same-Spin Energy      =      -0.3004116640650120 [Eh]
	 SCS Opposite-Spin Energy  =      -3.2578661872443790 [Eh]
	 SCS Correlation Energy    =      -3.5582778513093909 [Eh]
	 SCS Total Energy          =    -889.9316988842350611 [Eh]
	-----------------------------------------------------------

  Dipole Moment: [D]
     X:     1.6922      Y:    -5.9516      Z:    -1.8149     Total:     6.4482

*** Psi4 exiting successfully. Buy a developer a beer!
