                               Psi4 1.3.2 release

  ==> Input File <==

--------------------------------------------------------------------------
#psi4
#
memory 32 gb

molecule  {
0 1
  O       -1.2481010    -0.6526680     1.0325150
  O       -1.2449750     2.4828510    -0.6861630
  O       -3.2165300     1.5210990     0.7448870
  O       -2.3570290    -3.0668370     0.0949400
  O        1.3605300     2.2470340    -0.0765420
  N        0.8434040     0.0452230     0.2559430
  N        3.0572260     0.7205030    -0.2937270
  N        4.7164630    -0.8366550    -0.5722980
  C       -1.2894840     1.0784300    -0.5920770
  C       -2.7151710     0.6552070    -0.2573930
  C       -0.5254080     0.4815200     0.6000940
  C       -2.5292560    -0.7168860     0.3610560
  C       -2.5283440    -1.8503930    -0.6392900
  C        1.2197750    -1.2614080     0.3112740
  C        1.7555940     1.0674350    -0.0594030
  C        2.5111010    -1.6091400     0.0469950
  C        3.3554736    -0.5027941    -0.2506689
  H       -0.9376060     0.5914040    -1.5148910
  H       -3.3625820     0.6426650    -1.1464650
  H       -0.4402900     1.2218800     1.4039980
  H       -3.2819570    -0.9087340     1.1307830
  H       -1.7133080    -1.7003050    -1.3694640
  H       -3.4855610    -1.8340040    -1.1841350
  H       -0.2975250     2.7131790    -0.5250000
  H       -2.8475560     2.3997430     0.5086630
  H        0.4343110    -1.9634370     0.5690680
  H       -2.4338740    -3.7984320    -0.5432330
  H        2.7758876    -2.6598268     0.0873924
  H        5.1251800    -1.6708610    -0.1624140
  H        5.3198140    -0.0200540    -0.5682940
units angstrom
no_reorient  #important for SAPT in psi4, default
symmetry c1  #important for SAPT in psi4, default
}

set PROPERTIES_ORIGIN ["COM"]
properties('MP2/aug-cc-pvtz', properties = ['dipole'])
--------------------------------------------------------------------------

    Molecular point group: c1
  Charge       = 0
  Multiplicity = 1
  Basis Set: AUG-CC-PVTZ
    Blend: AUG-CC-PVTZ
  Basis Set: (AUG-CC-PVTZ AUX)
    Blend: AUG-CC-PVTZ-JKFIT

    Orbital Energies [Eh]
    ---------------------

    Doubly Occupied:

       1A    -20.583367     2A    -20.583136     3A    -20.559798
       4A    -20.559361     5A    -20.529517     6A    -15.639911
       7A    -15.586420     8A    -15.559693     9A    -11.395647
      10A    -11.354859    11A    -11.344042    12A    -11.326765
      13A    -11.302293    14A    -11.298794    15A    -11.298357
      16A    -11.294609    17A    -11.249331    18A     -1.432349
      19A     -1.403536    20A     -1.382033    21A     -1.374120
      22A     -1.348560    23A     -1.313115    24A     -1.271512
      25A     -1.179143    26A     -1.085045    27A     -1.069342
      28A     -1.022887    29A     -0.936397    30A     -0.911904
      31A     -0.882018    32A     -0.834045    33A     -0.813123
      34A     -0.764513    35A     -0.755950    36A     -0.738428
      37A     -0.713156    38A     -0.701387    39A     -0.698148
      40A     -0.681737    41A     -0.670068    42A     -0.657649
      43A     -0.654461    44A     -0.643865    45A     -0.622982
      46A     -0.617129    47A     -0.605290    48A     -0.592284
      49A     -0.577185    50A     -0.570410    51A     -0.555357
      52A     -0.546288    53A     -0.538652    54A     -0.527827
      55A     -0.501472    56A     -0.479229    57A     -0.476673
      58A     -0.469688    59A     -0.463597    60A     -0.454866
      61A     -0.442765    62A     -0.438972    63A     -0.402669
      64A     -0.352000

  @DF-RHF Final Energy:  -886.36607920278732

   => Energetics <=

    Nuclear Repulsion Energy =           1324.9083021386009023
    One-Electron Energy =               -3847.2693059606490351
    Two-Electron Energy =                1635.9949246192607006
    Total Energy =                       -886.3660792027874322
  Basis Set: (AUG-CC-PVTZ AUX)
    Blend: AUG-CC-PVTZ-RI
    Molecular point group: c1

    Geometry (in Angstrom), charge = 0, multiplicity = 1:

       Center              X                  Y                   Z               Mass
    ------------   -----------------  -----------------  -----------------  -----------------
         O           -1.245090761333    -0.654970739498     1.032051594415    15.994914619570
         O           -1.241964761333     2.480548260502    -0.686626405585    15.994914619570
         O           -3.213519761333     1.518796260502     0.744423594415    15.994914619570
         O           -2.354018761333    -3.069139739498     0.094476594415    15.994914619570
         O            1.363540238667     2.244731260502    -0.077005405585    15.994914619570
         N            0.846414238667     0.042920260502     0.255479594415    14.003074004430
         N            3.060236238667     0.718200260502    -0.294190405585    14.003074004430
         N            4.719473238667    -0.838957739498    -0.572761405585    14.003074004430
         C           -1.286473761333     1.076127260502    -0.592540405585    12.000000000000
         C           -2.712160761333     0.652904260502    -0.257856405585    12.000000000000
         C           -0.522397761333     0.479217260502     0.599630594415    12.000000000000
         C           -2.526245761333    -0.719188739498     0.360592594415    12.000000000000
         C           -2.525333761333    -1.852695739498    -0.639753405585    12.000000000000
         C            1.222785238667    -1.263710739498     0.310810594415    12.000000000000
         C            1.758604238667     1.065132260502    -0.059866405585    12.000000000000
         C            2.514111238667    -1.611442739498     0.046531594415    12.000000000000
         C            3.358483838667    -0.505096839498    -0.251132305585    12.000000000000
         H           -0.934595761333     0.589101260502    -1.515354405585     1.007825032230
         H           -3.359571761333     0.640362260502    -1.146928405585     1.007825032230
         H           -0.437279761333     1.219577260502     1.403534594415     1.007825032230
         H           -3.278946761333    -0.911036739498     1.130319594415     1.007825032230
         H           -1.710297761333    -1.702607739498    -1.369927405585     1.007825032230
         H           -3.482550761333    -1.836306739498    -1.184598405585     1.007825032230
         H           -0.294514761333     2.710876260502    -0.525463405585     1.007825032230
         H           -2.844545761333     2.397440260502     0.508199594415     1.007825032230
         H            0.437321238667    -1.965739739498     0.568604594415     1.007825032230
         H           -2.430863761333    -3.800734739498    -0.543696405585     1.007825032230
         H            2.778897838667    -2.662129539498     0.086928994415     1.007825032230
         H            5.128190238667    -1.673163739498    -0.162877405585     1.007825032230
         H            5.322824238667    -0.022356739498    -0.568757405585     1.007825032230

  Basis Set: AUG-CC-PVTZ
    Blend: AUG-CC-PVTZ
  Basis Set: (AUG-CC-PVTZ AUX)
    Blend: AUG-CC-PVTZ-JKFIT
	 Reference Energy          =    -886.3660792027873185 [Eh]
	 Singles Energy            =      -0.0000000000000000 [Eh]
	 Same-Spin Energy          =      -0.9007971216178128 [Eh]
	 Opposite-Spin Energy      =      -2.7147655848799257 [Eh]
	 Correlation Energy        =      -3.6155627064977383 [Eh]
	 Total Energy              =    -889.9816419092850310 [Eh]

	 ================> DF-SCS-MP2 Energies <==================
	-----------------------------------------------------------
	 SCS Same-Spin Scale       =       0.3333333333333333 [-]
	 SCS Opposite-Spin Scale   =       1.2000000000000000 [-]
	 SCS Same-Spin Energy      =      -0.3002657072059376 [Eh]
	 SCS Opposite-Spin Energy  =      -3.2577187018559108 [Eh]
	 SCS Correlation Energy    =      -3.5579844090618487 [Eh]
	 SCS Total Energy          =    -889.9240636118491921 [Eh]
	-----------------------------------------------------------

  Dipole Moment: [D]
     X:     1.0859      Y:    -5.6244      Z:    -1.7162     Total:     5.9798

*** Psi4 exiting successfully. Buy a developer a beer!
