                               Psi4 1.3.2 release

  ==> Input File <==

--------------------------------------------------------------------------
#psi4
#
memory 32 gb

molecule  {
0 1
  O       -1.2481010    -0.6526680     1.0325150
  O       -1.2449750     2.4828510    -0.6861630
  O       -3.2165300     1.5210990     0.7448870
  O       -2.3570290    -3.0668370     0.0949400
  O        1.3705272     2.2502930    -0.0792454
  N        0.8523296     0.0369150     0.2545923
  N        3.0572260     0.7205030    -0.2937270
  N        4.7164630    -0.8366550    -0.5722980
  C       -1.2894840     1.0784300    -0.5920770
  C       -2.7151710     0.6552070    -0.2573930
  C       -0.5254080     0.4815200     0.6000940
  C       -2.5292560    -0.7168860     0.3610560
  C       -2.5283440    -1.8503930    -0.6392900
  C        1.2197750    -1.2614080     0.3112740
  C        1.7555940     1.0674350    -0.0594030
  C        2.5111010    -1.6091400     0.0469950
  C        3.4119830    -0.5506530    -0.2589250
  H       -0.9376060     0.5914040    -1.5148910
  H       -3.3625820     0.6426650    -1.1464650
  H       -0.4402900     1.2218800     1.4039980
  H       -3.2819570    -0.9087340     1.1307830
  H       -1.7133080    -1.7003050    -1.3694640
  H       -3.4855610    -1.8340040    -1.1841350
  H       -0.2975250     2.7131790    -0.5250000
  H       -2.8475560     2.3997430     0.5086630
  H        0.4343110    -1.9634370     0.5690680
  H       -2.4338740    -3.7984320    -0.5432330
  H        2.8291120    -2.6453980     0.0739220
  H        5.1251800    -1.6708610    -0.1624140
  H        5.3198140    -0.0200540    -0.5682940
units angstrom
no_reorient  #important for SAPT in psi4, default
symmetry c1  #important for SAPT in psi4, default
}

set PROPERTIES_ORIGIN ["COM"]
properties('MP2/aug-cc-pvtz', properties = ['dipole'])
--------------------------------------------------------------------------

    Molecular point group: c1
  Charge       = 0
  Multiplicity = 1
  Basis Set: AUG-CC-PVTZ
    Blend: AUG-CC-PVTZ
  Basis Set: (AUG-CC-PVTZ AUX)
    Blend: AUG-CC-PVTZ-JKFIT

    Orbital Energies [Eh]
    ---------------------

    Doubly Occupied:

       1A    -20.582522     2A    -20.582295     3A    -20.558399
       4A    -20.558216     5A    -20.522507     6A    -15.637583
       7A    -15.598885     8A    -15.552249     9A    -11.388149
      10A    -11.356654    11A    -11.343183    12A    -11.327443
      13A    -11.301549    14A    -11.297641    15A    -11.297439
      16A    -11.293656    17A    -11.247281    18A     -1.429619
      19A     -1.396461    20A     -1.380763    21A     -1.373193
      22A     -1.347040    23A     -1.306795    24A     -1.274378
      25A     -1.181200    26A     -1.081349    27A     -1.068296
      28A     -1.021885    29A     -0.935180    30A     -0.910495
      31A     -0.877189    32A     -0.832477    33A     -0.812200
      34A     -0.766506    35A     -0.753144    36A     -0.736701
      37A     -0.719656    38A     -0.703012    39A     -0.698965
      40A     -0.685265    41A     -0.672859    42A     -0.654781
      43A     -0.651240    44A     -0.638728    45A     -0.620960
      46A     -0.614752    47A     -0.606923    48A     -0.594032
      49A     -0.576099    50A     -0.570033    51A     -0.554317
      52A     -0.545784    53A     -0.537871    54A     -0.532013
      55A     -0.499448    56A     -0.478013    57A     -0.475109
      58A     -0.462766    59A     -0.459873    60A     -0.453553
      61A     -0.440982    62A     -0.432606    63A     -0.394686
      64A     -0.349212

  @DF-RHF Final Energy:  -886.37316770652183

   => Energetics <=

    Nuclear Repulsion Energy =           1323.4543286139137308
    One-Electron Energy =               -3844.5468718390020513
    Two-Electron Energy =                1634.7193755185664941
    Total Energy =                       -886.3731677065218264
  Basis Set: (AUG-CC-PVTZ AUX)
    Blend: AUG-CC-PVTZ-RI
    Molecular point group: c1

    Geometry (in Angstrom), charge = 0, multiplicity = 1:

       Center              X                  Y                   Z               Mass
    ------------   -----------------  -----------------  -----------------  -----------------
         O           -1.249273009121    -0.652403843679     1.032770697758    15.994914619570
         O           -1.246147009121     2.483115156321    -0.685907302242    15.994914619570
         O           -3.217702009121     1.521363156321     0.745142697758    15.994914619570
         O           -2.358201009121    -3.066572843679     0.095195697758    15.994914619570
         O            1.369355190879     2.250557156321    -0.078989702242    15.994914619570
         N            0.851157590879     0.037179156321     0.254847997758    14.003074004430
         N            3.056053990879     0.720767156321    -0.293471302242    14.003074004430
         N            4.715290990879    -0.836390843679    -0.572042302242    14.003074004430
         C           -1.290656009121     1.078694156321    -0.591821302242    12.000000000000
         C           -2.716343009121     0.655471156321    -0.257137302242    12.000000000000
         C           -0.526580009121     0.481784156321     0.600349697758    12.000000000000
         C           -2.530428009121    -0.716621843679     0.361311697758    12.000000000000
         C           -2.529516009121    -1.850128843679    -0.639034302242    12.000000000000
         C            1.218602990879    -1.261143843679     0.311529697758    12.000000000000
         C            1.754421990879     1.067699156321    -0.059147302242    12.000000000000
         C            2.509928990879    -1.608875843679     0.047250697758    12.000000000000
         C            3.410810990879    -0.550388843679    -0.258669302242    12.000000000000
         H           -0.938778009121     0.591668156321    -1.514635302242     1.007825032230
         H           -3.363754009121     0.642929156321    -1.146209302242     1.007825032230
         H           -0.441462009121     1.222144156321     1.404253697758     1.007825032230
         H           -3.283129009121    -0.908469843679     1.131038697758     1.007825032230
         H           -1.714480009121    -1.700040843679    -1.369208302242     1.007825032230
         H           -3.486733009121    -1.833739843679    -1.183879302242     1.007825032230
         H           -0.298697009121     2.713443156321    -0.524744302242     1.007825032230
         H           -2.848728009121     2.400007156321     0.508918697758     1.007825032230
         H            0.433138990879    -1.963172843679     0.569323697758     1.007825032230
         H           -2.435046009121    -3.798167843679    -0.542977302242     1.007825032230
         H            2.827939990879    -2.645133843679     0.074177697758     1.007825032230
         H            5.124007990879    -1.670596843679    -0.162158302242     1.007825032230
         H            5.318641990879    -0.019789843679    -0.568038302242     1.007825032230

  Basis Set: AUG-CC-PVTZ
    Blend: AUG-CC-PVTZ
  Basis Set: (AUG-CC-PVTZ AUX)
    Blend: AUG-CC-PVTZ-JKFIT
	 Reference Energy          =    -886.3731677065218264 [Eh]
	 Singles Energy            =      -0.0000000000000000 [Eh]
	 Same-Spin Energy          =      -0.9012881092719072 [Eh]
	 Opposite-Spin Energy      =      -2.7149546799496047 [Eh]
	 Correlation Energy        =      -3.6162427892215119 [Eh]
	 Total Energy              =    -889.9894104957433001 [Eh]

	 ================> DF-SCS-MP2 Energies <==================
	-----------------------------------------------------------
	 SCS Same-Spin Scale       =       0.3333333333333333 [-]
	 SCS Opposite-Spin Scale   =       1.2000000000000000 [-]
	 SCS Same-Spin Energy      =      -0.3004293697573024 [Eh]
	 SCS Opposite-Spin Energy  =      -3.2579456159395255 [Eh]
	 SCS Correlation Energy    =      -3.5583749856968279 [Eh]
	 SCS Total Energy          =    -889.9315426922186134 [Eh]
	-----------------------------------------------------------

  Dipole Moment: [D]
     X:     1.6091      Y:    -5.9254      Z:    -1.8114     Total:     6.4016

*** Psi4 exiting successfully. Buy a developer a beer!
