                               Psi4 1.3.2 release

  ==> Input File <==

--------------------------------------------------------------------------
#psi4
#
memory 32 gb

molecule  {
0 1
  O       -1.2481010    -0.6526680     1.0325150
  O       -1.2449750     2.4828510    -0.6861630
  O       -3.2165300     1.5210990     0.7448870
  O       -2.3570290    -3.0668370     0.0949400
  O        1.3605300     2.2470340    -0.0765420
  N        0.8434040     0.0452230     0.2559430
  N        3.1002694     0.7313415    -0.3061065
  N        4.7242188    -0.7898899    -0.5790356
  C       -1.2894840     1.0784300    -0.5920770
  C       -2.7151710     0.6552070    -0.2573930
  C       -0.5254080     0.4815200     0.6000940
  C       -2.5292560    -0.7168860     0.3610560
  C       -2.5283440    -1.8503930    -0.6392900
  C        1.2197750    -1.2614080     0.3112740
  C        1.7555940     1.0674350    -0.0594030
  C        2.5111010    -1.6091400     0.0469950
  C        3.4119830    -0.5506530    -0.2589250
  H       -0.9376060     0.5914040    -1.5148910
  H       -3.3625820     0.6426650    -1.1464650
  H       -0.4402900     1.2218800     1.4039980
  H       -3.2819570    -0.9087340     1.1307830
  H       -1.7133080    -1.7003050    -1.3694640
  H       -3.4855610    -1.8340040    -1.1841350
  H       -0.2975250     2.7131790    -0.5250000
  H       -2.8475560     2.3997430     0.5086630
  H        0.4343110    -1.9634370     0.5690680
  H       -2.4338740    -3.7984320    -0.5432330
  H        2.8291120    -2.6453980     0.0739220
  H        5.1251800    -1.6708610    -0.1624140
  H        5.3198140    -0.0200540    -0.5682940
units angstrom
no_reorient  #important for SAPT in psi4, default
symmetry c1  #important for SAPT in psi4, default
}

set PROPERTIES_ORIGIN ["COM"]
properties('MP2/aug-cc-pvtz', properties = ['dipole'])
--------------------------------------------------------------------------

    Molecular point group: c1
  Charge       = 0
  Multiplicity = 1
  Basis Set: AUG-CC-PVTZ
    Blend: AUG-CC-PVTZ
  Basis Set: (AUG-CC-PVTZ AUX)
    Blend: AUG-CC-PVTZ-JKFIT

    Orbital Energies [Eh]
    ---------------------

    Doubly Occupied:

       1A    -20.582870     2A    -20.582849     3A    -20.558594
       4A    -20.558440     5A    -20.525938     6A    -15.639126
       7A    -15.595292     8A    -15.556512     9A    -11.392005
      10A    -11.354278    11A    -11.343122    12A    -11.330182
      13A    -11.301899    14A    -11.297825    15A    -11.297714
      16A    -11.293847    17A    -11.250762    18A     -1.430355
      19A     -1.396394    20A     -1.380989    21A     -1.373618
      22A     -1.347195    23A     -1.305892    24A     -1.275279
      25A     -1.172134    26A     -1.083071    27A     -1.068654
      28A     -1.022138    29A     -0.935142    30A     -0.912155
      31A     -0.871839    32A     -0.831627    33A     -0.812789
      34A     -0.765607    35A     -0.753079    36A     -0.737341
      37A     -0.719595    38A     -0.704267    39A     -0.699542
      40A     -0.680230    41A     -0.673860    42A     -0.653276
      43A     -0.649854    44A     -0.638238    45A     -0.623187
      46A     -0.614821    47A     -0.607925    48A     -0.591985
      49A     -0.576548    50A     -0.570278    51A     -0.554879
      52A     -0.546192    53A     -0.538251    54A     -0.532116
      55A     -0.498803    56A     -0.478343    57A     -0.475482
      58A     -0.465223    59A     -0.462687    60A     -0.453860
      61A     -0.442346    62A     -0.433544    63A     -0.391914
      64A     -0.350755

  @DF-RHF Final Energy:  -886.36641113144469

   => Energetics <=

    Nuclear Repulsion Energy =           1322.4931598703371947
    One-Electron Energy =               -3842.5900337608650261
    Two-Electron Energy =                1633.7304627590829114
    Total Energy =                       -886.3664111314446927
  Basis Set: (AUG-CC-PVTZ AUX)
    Blend: AUG-CC-PVTZ-RI
    Molecular point group: c1

    Geometry (in Angstrom), charge = 0, multiplicity = 1:

       Center              X                  Y                   Z               Mass
    ------------   -----------------  -----------------  -----------------  -----------------
         O           -1.251027349561    -0.655986276660     1.033616258454    15.994914619570
         O           -1.247901349561     2.479532723340    -0.685061741546    15.994914619570
         O           -3.219456349561     1.517780723340     0.745988258454    15.994914619570
         O           -2.359955349561    -3.070155276660     0.096041258454    15.994914619570
         O            1.357603650439     2.243715723340    -0.075440741546    15.994914619570
         N            0.840477650439     0.041904723340     0.257044258454    14.003074004430
         N            3.097343050439     0.728023223340    -0.305005241546    14.003074004430
         N            4.721292450439    -0.793208176660    -0.577934341546    14.003074004430
         C           -1.292410349561     1.075111723340    -0.590975741546    12.000000000000
         C           -2.718097349561     0.651888723340    -0.256291741546    12.000000000000
         C           -0.528334349561     0.478201723340     0.601195258454    12.000000000000
         C           -2.532182349561    -0.720204276660     0.362157258454    12.000000000000
         C           -2.531270349561    -1.853711276660    -0.638188741546    12.000000000000
         C            1.216848650439    -1.264726276660     0.312375258454    12.000000000000
         C            1.752667650439     1.064116723340    -0.058301741546    12.000000000000
         C            2.508174650439    -1.612458276660     0.048096258454    12.000000000000
         C            3.409056650439    -0.553971276660    -0.257823741546    12.000000000000
         H           -0.940532349561     0.588085723340    -1.513789741546     1.007825032230
         H           -3.365508349561     0.639346723340    -1.145363741546     1.007825032230
         H           -0.443216349561     1.218561723340     1.405099258454     1.007825032230
         H           -3.284883349561    -0.912052276660     1.131884258454     1.007825032230
         H           -1.716234349561    -1.703623276660    -1.368362741546     1.007825032230
         H           -3.488487349561    -1.837322276660    -1.183033741546     1.007825032230
         H           -0.300451349561     2.709860723340    -0.523898741546     1.007825032230
         H           -2.850482349561     2.396424723340     0.509764258454     1.007825032230
         H            0.431384650439    -1.966755276660     0.570169258454     1.007825032230
         H           -2.436800349561    -3.801750276660    -0.542131741546     1.007825032230
         H            2.826185650439    -2.648716276660     0.075023258454     1.007825032230
         H            5.122253650439    -1.674179276660    -0.161312741546     1.007825032230
         H            5.316887650439    -0.023372276660    -0.567192741546     1.007825032230

  Basis Set: AUG-CC-PVTZ
    Blend: AUG-CC-PVTZ
  Basis Set: (AUG-CC-PVTZ AUX)
    Blend: AUG-CC-PVTZ-JKFIT
	 Reference Energy          =    -886.3664111314446927 [Eh]
	 Singles Energy            =      -0.0000000000000000 [Eh]
	 Same-Spin Energy          =      -0.9012101190861517 [Eh]
	 Opposite-Spin Energy      =      -2.7160066240812961 [Eh]
	 Correlation Energy        =      -3.6172167431674476 [Eh]
	 Total Energy              =    -889.9836278746121252 [Eh]

	 ================> DF-SCS-MP2 Energies <==================
	-----------------------------------------------------------
	 SCS Same-Spin Scale       =       0.3333333333333333 [-]
	 SCS Opposite-Spin Scale   =       1.2000000000000000 [-]
	 SCS Same-Spin Energy      =      -0.3004033730287172 [Eh]
	 SCS Opposite-Spin Energy  =      -3.2592079488975552 [Eh]
	 SCS Correlation Energy    =      -3.5596113219262726 [Eh]
	 SCS Total Energy          =    -889.9260224533709334 [Eh]
	-----------------------------------------------------------

  Dipole Moment: [D]
     X:     1.4762      Y:    -5.9146      Z:    -1.7881     Total:     6.3529

*** Psi4 exiting successfully. Buy a developer a beer!
