                               Psi4 1.3.2 release

  ==> Input File <==

--------------------------------------------------------------------------
#psi4
#
memory 32 gb

molecule  {
0 1
  O       -1.2481010    -0.6526680     1.0325150
  O       -1.2449750     2.4828510    -0.6861630
  O       -3.2801649     1.4830849     0.7431544
  O       -2.3570290    -3.0668370     0.0949400
  O        1.3605300     2.2470340    -0.0765420
  N        0.8434040     0.0452230     0.2559430
  N        3.0572260     0.7205030    -0.2937270
  N        4.7164630    -0.8366550    -0.5722980
  C       -1.2865771     1.0190285    -0.6452949
  C       -2.7151710     0.6552070    -0.2573930
  C       -0.5254080     0.4815200     0.6000940
  C       -2.5292560    -0.7168860     0.3610560
  C       -2.5283440    -1.8503930    -0.6392900
  C        1.2197750    -1.2614080     0.3112740
  C        1.7555940     1.0674350    -0.0594030
  C        2.5111010    -1.6091400     0.0469950
  C        3.4119830    -0.5506530    -0.2589250
  H       -0.9376060     0.5914040    -1.5148910
  H       -3.3625820     0.6426650    -1.1464650
  H       -0.4402900     1.2218800     1.4039980
  H       -3.2819570    -0.9087340     1.1307830
  H       -1.7133080    -1.7003050    -1.3694640
  H       -3.4855610    -1.8340040    -1.1841350
  H       -0.2975250     2.7131790    -0.5250000
  H       -2.8475560     2.3997430     0.5086630
  H        0.4343110    -1.9634370     0.5690680
  H       -2.4338740    -3.7984320    -0.5432330
  H        2.8291120    -2.6453980     0.0739220
  H        5.1251800    -1.6708610    -0.1624140
  H        5.3198140    -0.0200540    -0.5682940
units angstrom
no_reorient  #important for SAPT in psi4, default
symmetry c1  #important for SAPT in psi4, default
}

set PROPERTIES_ORIGIN ["COM"]
properties('MP2/aug-cc-pvtz', properties = ['dipole'])
--------------------------------------------------------------------------

    Molecular point group: c1
  Charge       = 0
  Multiplicity = 1
  Basis Set: AUG-CC-PVTZ
    Blend: AUG-CC-PVTZ
  Basis Set: (AUG-CC-PVTZ AUX)
    Blend: AUG-CC-PVTZ-JKFIT

    Orbital Energies [Eh]
    ---------------------

    Doubly Occupied:

       1A    -20.582158     2A    -20.581192     3A    -20.564677
       4A    -20.554539     5A    -20.521770     6A    -15.637111
       7A    -15.600207     8A    -15.553689     9A    -11.388367
      10A    -11.358233    11A    -11.344384    12A    -11.328919
      13A    -11.301080    14A    -11.297074    15A    -11.295393
      16A    -11.293299    17A    -11.249048    18A     -1.428238
      19A     -1.396224    20A     -1.374991    21A     -1.363315
      22A     -1.332848    23A     -1.306187    24A     -1.274236
      25A     -1.182581    26A     -1.082326    27A     -1.068461
      28A     -1.021953    29A     -0.934823    30A     -0.909954
      31A     -0.876921    32A     -0.836302    33A     -0.810624
      34A     -0.767808    35A     -0.751694    36A     -0.734176
      37A     -0.721485    38A     -0.701480    39A     -0.695906
      40A     -0.685551    41A     -0.665749    42A     -0.656103
      43A     -0.650671    44A     -0.639258    45A     -0.619475
      46A     -0.611529    47A     -0.605557    48A     -0.591601
      49A     -0.573839    50A     -0.568672    51A     -0.551822
      52A     -0.546549    53A     -0.533483    54A     -0.527873
      55A     -0.498163    56A     -0.478818    57A     -0.476510
      58A     -0.462943    59A     -0.459344    60A     -0.456240
      61A     -0.440584    62A     -0.433536    63A     -0.395566
      64A     -0.350285

  @DF-RHF Final Energy:  -886.35719850903570

   => Energetics <=

    Nuclear Repulsion Energy =           1321.9662781404017551
    One-Electron Energy =               -3841.6401719716018306
    Two-Electron Energy =                1633.3166953221643780
    Total Energy =                       -886.3571985090356975
  Basis Set: (AUG-CC-PVTZ AUX)
    Blend: AUG-CC-PVTZ-RI
    Molecular point group: c1

    Geometry (in Angstrom), charge = 0, multiplicity = 1:

       Center              X                  Y                   Z               Mass
    ------------   -----------------  -----------------  -----------------  -----------------
         O           -1.244057387115    -0.647234304297     1.035256131623    15.994914619570
         O           -1.240931387115     2.488284695703    -0.683421868377    15.994914619570
         O           -3.276121287115     1.488518595703     0.745895531623    15.994914619570
         O           -2.352985387115    -3.061403304297     0.097681131623    15.994914619570
         O            1.364573612885     2.252467695703    -0.073800868377    15.994914619570
         N            0.847447612885     0.050656695703     0.258684131623    14.003074004430
         N            3.061269612885     0.725936695703    -0.290985868377    14.003074004430
         N            4.720506612885    -0.831221304297    -0.569556868377    14.003074004430
         C           -1.282533487115     1.024462195703    -0.642553768377    12.000000000000
         C           -2.711127387115     0.660640695703    -0.254651868377    12.000000000000
         C           -0.521364387115     0.486953695703     0.602835131623    12.000000000000
         C           -2.525212387115    -0.711452304297     0.363797131623    12.000000000000
         C           -2.524300387115    -1.844959304297    -0.636548868377    12.000000000000
         C            1.223818612885    -1.255974304297     0.314015131623    12.000000000000
         C            1.759637612885     1.072868695703    -0.056661868377    12.000000000000
         C            2.515144612885    -1.603706304297     0.049736131623    12.000000000000
         C            3.416026612885    -0.545219304297    -0.256183868377    12.000000000000
         H           -0.933562387115     0.596837695703    -1.512149868377     1.007825032230
         H           -3.358538387115     0.648098695703    -1.143723868377     1.007825032230
         H           -0.436246387115     1.227313695703     1.406739131623     1.007825032230
         H           -3.277913387115    -0.903300304297     1.133524131623     1.007825032230
         H           -1.709264387115    -1.694871304297    -1.366722868377     1.007825032230
         H           -3.481517387115    -1.828570304297    -1.181393868377     1.007825032230
         H           -0.293481387115     2.718612695703    -0.522258868377     1.007825032230
         H           -2.843512387115     2.405176695703     0.511404131623     1.007825032230
         H            0.438354612885    -1.958003304297     0.571809131623     1.007825032230
         H           -2.429830387115    -3.792998304297    -0.540491868377     1.007825032230
         H            2.833155612885    -2.639964304297     0.076663131623     1.007825032230
         H            5.129223612885    -1.665427304297    -0.159672868377     1.007825032230
         H            5.323857612885    -0.014620304297    -0.565552868377     1.007825032230

  Basis Set: AUG-CC-PVTZ
    Blend: AUG-CC-PVTZ
  Basis Set: (AUG-CC-PVTZ AUX)
    Blend: AUG-CC-PVTZ-JKFIT
	 Reference Energy          =    -886.3571985090356975 [Eh]
	 Singles Energy            =      -0.0000000000000000 [Eh]
	 Same-Spin Energy          =      -0.9023149382796422 [Eh]
	 Opposite-Spin Energy      =      -2.7184200994154870 [Eh]
	 Correlation Energy        =      -3.6207350376951291 [Eh]
	 Total Energy              =    -889.9779335467308101 [Eh]

	 ================> DF-SCS-MP2 Energies <==================
	-----------------------------------------------------------
	 SCS Same-Spin Scale       =       0.3333333333333333 [-]
	 SCS Opposite-Spin Scale   =       1.2000000000000000 [-]
	 SCS Same-Spin Energy      =      -0.3007716460932141 [Eh]
	 SCS Opposite-Spin Energy  =      -3.2621041192985842 [Eh]
	 SCS Correlation Energy    =      -3.5628757653917984 [Eh]
	 SCS Total Energy          =    -889.9200742744275203 [Eh]
	-----------------------------------------------------------

  Dipole Moment: [D]
     X:     1.8524      Y:    -6.0248      Z:    -1.8363     Total:     6.5652

*** Psi4 exiting successfully. Buy a developer a beer!
