                               Psi4 1.3.2 release

  ==> Input File <==

--------------------------------------------------------------------------
#psi4
#
memory 32 gb

molecule  {
0 1
  O       -1.2481010    -0.6526680     1.0325150
  O       -1.2449750     2.4828510    -0.6861630
  O       -3.2165300     1.5210990     0.7448870
  O       -2.3570290    -3.0668370     0.0949400
  O        1.3605300     2.2470340    -0.0765420
  N        0.7992805     0.0321484     0.2677138
  N        3.0572260     0.7205030    -0.2937270
  N        4.7164630    -0.8366550    -0.5722980
  C       -1.2894840     1.0784300    -0.5920770
  C       -2.7151710     0.6552070    -0.2573930
  C       -0.5254080     0.4815200     0.6000940
  C       -2.5292560    -0.7168860     0.3610560
  C       -2.5283440    -1.8503930    -0.6392900
  C        1.2197750    -1.2614080     0.3112740
  C        1.7555940     1.0674350    -0.0594030
  C        2.4995460    -1.6546500     0.0546992
  C        3.4119830    -0.5506530    -0.2589250
  H       -0.9376060     0.5914040    -1.5148910
  H       -3.3625820     0.6426650    -1.1464650
  H       -0.4402900     1.2218800     1.4039980
  H       -3.2819570    -0.9087340     1.1307830
  H       -1.7133080    -1.7003050    -1.3694640
  H       -3.4855610    -1.8340040    -1.1841350
  H       -0.2975250     2.7131790    -0.5250000
  H       -2.8475560     2.3997430     0.5086630
  H        0.4343110    -1.9634370     0.5690680
  H       -2.4338740    -3.7984320    -0.5432330
  H        2.8291120    -2.6453980     0.0739220
  H        5.1251800    -1.6708610    -0.1624140
  H        5.3198140    -0.0200540    -0.5682940
units angstrom
no_reorient  #important for SAPT in psi4, default
symmetry c1  #important for SAPT in psi4, default
}

set PROPERTIES_ORIGIN ["COM"]
properties('MP2/aug-cc-pvtz', properties = ['dipole'])
--------------------------------------------------------------------------

    Molecular point group: c1
  Charge       = 0
  Multiplicity = 1
  Basis Set: AUG-CC-PVTZ
    Blend: AUG-CC-PVTZ
  Basis Set: (AUG-CC-PVTZ AUX)
    Blend: AUG-CC-PVTZ-JKFIT

    Orbital Energies [Eh]
    ---------------------

    Doubly Occupied:

       1A    -20.580759     2A    -20.578265     3A    -20.557078
       4A    -20.556822     5A    -20.527613     6A    -15.635553
       7A    -15.602689     8A    -15.557266     9A    -11.394394
      10A    -11.364056    11A    -11.337601    12A    -11.326495
      13A    -11.299655    14A    -11.295130    15A    -11.294978
      16A    -11.291678    17A    -11.248726    18A     -1.428904
      19A     -1.395486    20A     -1.379231    21A     -1.371706
      22A     -1.345704    23A     -1.304828    24A     -1.274545
      25A     -1.185573    26A     -1.081241    27A     -1.066195
      28A     -1.018198    29A     -0.935836    30A     -0.899605
      31A     -0.878872    32A     -0.833418    33A     -0.810427
      34A     -0.765584    35A     -0.752816    36A     -0.736659
      37A     -0.719975    38A     -0.702390    39A     -0.697702
      40A     -0.685548    41A     -0.674341    42A     -0.657646
      43A     -0.652955    44A     -0.637808    45A     -0.615779
      46A     -0.611824    47A     -0.606015    48A     -0.598627
      49A     -0.574104    50A     -0.568205    51A     -0.554207
      52A     -0.545573    53A     -0.536973    54A     -0.530684
      55A     -0.499579    56A     -0.476327    57A     -0.473577
      58A     -0.463842    59A     -0.459666    60A     -0.451928
      61A     -0.439941    62A     -0.433103    63A     -0.396714
      64A     -0.348705

  @DF-RHF Final Energy:  -886.36803771733469

   => Energetics <=

    Nuclear Repulsion Energy =           1322.9992679598906307
    One-Electron Energy =               -3843.6799796392569988
    Two-Electron Energy =                1634.3126739620315675
    Total Energy =                       -886.3680377173345732
  Basis Set: (AUG-CC-PVTZ AUX)
    Blend: AUG-CC-PVTZ-RI
    Molecular point group: c1

    Geometry (in Angstrom), charge = 0, multiplicity = 1:

       Center              X                  Y                   Z               Mass
    ------------   -----------------  -----------------  -----------------  -----------------
         O           -1.244988859117    -0.649668203655     1.031456623654    15.994914619570
         O           -1.241862859117     2.485850796345    -0.687221376346    15.994914619570
         O           -3.213417859117     1.524098796345     0.743828623654    15.994914619570
         O           -2.353916859117    -3.063837203655     0.093881623654    15.994914619570
         O            1.363642140883     2.250033796345    -0.077600376346    15.994914619570
         N            0.802392640883     0.035148196345     0.266655423654    14.003074004430
         N            3.060338140883     0.723502796345    -0.294785376346    14.003074004430
         N            4.719575140883    -0.833655203655    -0.573356376346    14.003074004430
         C           -1.286371859117     1.081429796345    -0.593135376346    12.000000000000
         C           -2.712058859117     0.658206796345    -0.258451376346    12.000000000000
         C           -0.522295859117     0.484519796345     0.599035623654    12.000000000000
         C           -2.526143859117    -0.713886203655     0.359997623654    12.000000000000
         C           -2.525231859117    -1.847393203655    -0.640348376346    12.000000000000
         C            1.222887140883    -1.258408203655     0.310215623654    12.000000000000
         C            1.758706140883     1.070434796345    -0.060461376346    12.000000000000
         C            2.502658140883    -1.651650203655     0.053640823654    12.000000000000
         C            3.415095140883    -0.547653203655    -0.259983376346    12.000000000000
         H           -0.934493859117     0.594403796345    -1.515949376346     1.007825032230
         H           -3.359469859117     0.645664796345    -1.147523376346     1.007825032230
         H           -0.437177859117     1.224879796345     1.402939623654     1.007825032230
         H           -3.278844859117    -0.905734203655     1.129724623654     1.007825032230
         H           -1.710195859117    -1.697305203655    -1.370522376346     1.007825032230
         H           -3.482448859117    -1.831004203655    -1.185193376346     1.007825032230
         H           -0.294412859117     2.716178796345    -0.526058376346     1.007825032230
         H           -2.844443859117     2.402742796345     0.507604623654     1.007825032230
         H            0.437423140883    -1.960437203655     0.568009623654     1.007825032230
         H           -2.430761859117    -3.795432203655    -0.544291376346     1.007825032230
         H            2.832224140883    -2.642398203655     0.072863623654     1.007825032230
         H            5.128292140883    -1.667861203655    -0.163472376346     1.007825032230
         H            5.322926140883    -0.017054203655    -0.569352376346     1.007825032230

  Basis Set: AUG-CC-PVTZ
    Blend: AUG-CC-PVTZ
  Basis Set: (AUG-CC-PVTZ AUX)
    Blend: AUG-CC-PVTZ-JKFIT
	 Reference Energy          =    -886.3680377173346869 [Eh]
	 Singles Energy            =      -0.0000000000000000 [Eh]
	 Same-Spin Energy          =      -0.9008567937133086 [Eh]
	 Opposite-Spin Energy      =      -2.7151293748753975 [Eh]
	 Correlation Energy        =      -3.6159861685887060 [Eh]
	 Total Energy              =    -889.9840238859234205 [Eh]

	 ================> DF-SCS-MP2 Energies <==================
	-----------------------------------------------------------
	 SCS Same-Spin Scale       =       0.3333333333333333 [-]
	 SCS Opposite-Spin Scale   =       1.2000000000000000 [-]
	 SCS Same-Spin Energy      =      -0.3002855979044362 [Eh]
	 SCS Opposite-Spin Energy  =      -3.2581552498504771 [Eh]
	 SCS Correlation Energy    =      -3.5584408477549134 [Eh]
	 SCS Total Energy          =    -889.9264785650896101 [Eh]
	-----------------------------------------------------------

  Dipole Moment: [D]
     X:     1.9723      Y:    -5.7681      Z:    -1.8867     Total:     6.3813

*** Psi4 exiting successfully. Buy a developer a beer!
