                               Psi4 1.3.2 release

  ==> Input File <==

--------------------------------------------------------------------------
#psi4
#
memory 32 gb

molecule  {
0 1
  O       -1.2481010    -0.6526680     1.0325150
  O       -1.2449750     2.4828510    -0.6861630
  O       -3.2165300     1.5210990     0.7448870
  O       -2.3570290    -3.0668370     0.0949400
  O        1.3605300     2.2470340    -0.0765420
  N        0.8434040     0.0452230     0.2559430
  N        3.0572260     0.7205030    -0.2937270
  N        4.7164630    -0.8366550    -0.5722980
  C       -1.2894840     1.0784300    -0.5920770
  C       -2.7151710     0.6552070    -0.2573930
  C       -0.5254080     0.4815200     0.6000940
  C       -2.5292560    -0.7168860     0.3610560
  C       -2.5283440    -1.8503930    -0.6392900
  C        1.2197750    -1.2614080     0.3112740
  C        1.7555940     1.0674350    -0.0594030
  C        2.5111010    -1.6091400     0.0469950
  C        3.4119830    -0.5506530    -0.2589250
  H       -0.9376060     0.5914040    -1.5148910
  H       -3.3625820     0.6426650    -1.1464650
  H       -0.4402900     1.2218800     1.4039980
  H       -3.2819570    -0.9087340     1.1307830
  H       -1.7133080    -1.7003050    -1.3694640
  H       -3.4855610    -1.8340040    -1.1841350
  H       -0.2975250     2.7131790    -0.5250000
  H       -2.8475560     2.3997430     0.5086630
  H        0.4343110    -1.9634370     0.5690680
  H       -2.4338740    -3.7984320    -0.5432330
  H        2.8291120    -2.6453980     0.0739220
  H        5.1547350    -1.6524221    -0.1558898
  H        5.3449079    -0.0394414    -0.5524700
units angstrom
no_reorient  #important for SAPT in psi4, default
symmetry c1  #important for SAPT in psi4, default
}

set PROPERTIES_ORIGIN ["COM"]
properties('MP2/aug-cc-pvtz', properties = ['dipole'])
--------------------------------------------------------------------------

    Molecular point group: c1
  Charge       = 0
  Multiplicity = 1
  Basis Set: AUG-CC-PVTZ
    Blend: AUG-CC-PVTZ
  Basis Set: (AUG-CC-PVTZ AUX)
    Blend: AUG-CC-PVTZ-JKFIT

    Orbital Energies [Eh]
    ---------------------

    Doubly Occupied:

       1A    -20.582238     2A    -20.581635     3A    -20.557798
       4A    -20.557257     5A    -20.522047     6A    -15.637078
       7A    -15.599602     8A    -15.553593     9A    -11.388315
      10A    -11.358744    11A    -11.341602    12A    -11.328540
      13A    -11.301183    14A    -11.296938    15A    -11.296674
      16A    -11.292977    17A    -11.248646    18A     -1.429397
      19A     -1.396435    20A     -1.380128    21A     -1.372816
      22A     -1.346315    23A     -1.305907    24A     -1.273560
      25A     -1.182454    26A     -1.082042    27A     -1.067748
      28A     -1.021526    29A     -0.935905    30A     -0.909444
      31A     -0.878161    32A     -0.832765    33A     -0.811754
      34A     -0.765405    35A     -0.752401    36A     -0.736287
      37A     -0.722471    38A     -0.703300    39A     -0.698515
      40A     -0.682202    41A     -0.672895    42A     -0.654246
      43A     -0.651565    44A     -0.638338    45A     -0.620242
      46A     -0.614318    47A     -0.606797    48A     -0.593947
      49A     -0.575765    50A     -0.569738    51A     -0.554052
      52A     -0.545689    53A     -0.537560    54A     -0.531840
      55A     -0.498110    56A     -0.477508    57A     -0.474457
      58A     -0.462223    59A     -0.460056    60A     -0.452852
      61A     -0.440714    62A     -0.433241    63A     -0.395668
      64A     -0.349970

  @DF-RHF Final Energy:  -886.37294164356581

   => Energetics <=

    Nuclear Repulsion Energy =           1323.5914606894973531
    One-Electron Energy =               -3844.8416200918909453
    Two-Electron Energy =                1634.8772177588275554
    Total Energy =                       -886.3729416435658095
  Basis Set: (AUG-CC-PVTZ AUX)
    Blend: AUG-CC-PVTZ-RI
    Molecular point group: c1

    Geometry (in Angstrom), charge = 0, multiplicity = 1:

       Center              X                  Y                   Z               Mass
    ------------   -----------------  -----------------  -----------------  -----------------
         O           -1.248327606582    -0.652664057410     1.032422352536    15.994914619570
         O           -1.245201606582     2.482854942590    -0.686255647464    15.994914619570
         O           -3.216756606582     1.521102942590     0.744794352536    15.994914619570
         O           -2.357255606582    -3.066833057410     0.094847352536    15.994914619570
         O            1.360303393418     2.247037942590    -0.076634647464    15.994914619570
         N            0.843177393418     0.045226942590     0.255850352536    14.003074004430
         N            3.056999393418     0.720506942590    -0.293819647464    14.003074004430
         N            4.716236393418    -0.836651057410    -0.572390647464    14.003074004430
         C           -1.289710606582     1.078433942590    -0.592169647464    12.000000000000
         C           -2.715397606582     0.655210942590    -0.257485647464    12.000000000000
         C           -0.525634606582     0.481523942590     0.600001352536    12.000000000000
         C           -2.529482606582    -0.716882057410     0.360963352536    12.000000000000
         C           -2.528570606582    -1.850389057410    -0.639382647464    12.000000000000
         C            1.219548393418    -1.261404057410     0.311181352536    12.000000000000
         C            1.755367393418     1.067438942590    -0.059495647464    12.000000000000
         C            2.510874393418    -1.609136057410     0.046902352536    12.000000000000
         C            3.411756393418    -0.550649057410    -0.259017647464    12.000000000000
         H           -0.937832606582     0.591407942590    -1.514983647464     1.007825032230
         H           -3.362808606582     0.642668942590    -1.146557647464     1.007825032230
         H           -0.440516606582     1.221883942590     1.403905352536     1.007825032230
         H           -3.282183606582    -0.908730057410     1.130690352536     1.007825032230
         H           -1.713534606582    -1.700301057410    -1.369556647464     1.007825032230
         H           -3.485787606582    -1.834000057410    -1.184227647464     1.007825032230
         H           -0.297751606582     2.713182942590    -0.525092647464     1.007825032230
         H           -2.847782606582     2.399746942590     0.508570352536     1.007825032230
         H            0.434084393418    -1.963433057410     0.568975352536     1.007825032230
         H           -2.434100606582    -3.798428057410    -0.543325647464     1.007825032230
         H            2.828885393418    -2.645394057410     0.073829352536     1.007825032230
         H            5.154508393418    -1.652418157410    -0.155982447464     1.007825032230
         H            5.344681293418    -0.039437457410    -0.552562647464     1.007825032230

  Basis Set: AUG-CC-PVTZ
    Blend: AUG-CC-PVTZ
  Basis Set: (AUG-CC-PVTZ AUX)
    Blend: AUG-CC-PVTZ-JKFIT
	 Reference Energy          =    -886.3729416435658095 [Eh]
	 Singles Energy            =      -0.0000000000000000 [Eh]
	 Same-Spin Energy          =      -0.9012265026041254 [Eh]
	 Opposite-Spin Energy      =      -2.7149580843426788 [Eh]
	 Correlation Energy        =      -3.6161845869468041 [Eh]
	 Total Energy              =    -889.9891262305126247 [Eh]

	 ================> DF-SCS-MP2 Energies <==================
	-----------------------------------------------------------
	 SCS Same-Spin Scale       =       0.3333333333333333 [-]
	 SCS Opposite-Spin Scale   =       1.2000000000000000 [-]
	 SCS Same-Spin Energy      =      -0.3004088342013751 [Eh]
	 SCS Opposite-Spin Energy  =      -3.2579497012112144 [Eh]
	 SCS Correlation Energy    =      -3.5583585354125895 [Eh]
	 SCS Total Energy          =    -889.9313001789784039 [Eh]
	-----------------------------------------------------------

  Dipole Moment: [D]
     X:     1.7276      Y:    -5.9398      Z:    -1.7860     Total:     6.4386

*** Psi4 exiting successfully. Buy a developer a beer!
