                               Psi4 1.4a3.dev225

  ==> Input File <==

--------------------------------------------------------------------------
#psi4
#
memory 32 gb

molecule  {
0 1
  O       -1.3191770     0.6538360    -1.0992360
  O       -1.5735610    -2.4640850     0.5135810
  O       -3.5606630    -1.0699430    -0.4600060
  O       -1.4399290     3.1254620     0.1265180
  O        1.1065530    -2.3833650     0.0076020
  N        0.7686360    -0.1579440    -0.3706350
  N        2.9363770    -0.9938720     0.1460080
  N        4.7058880     0.4431110     0.3611260
  C       -1.3768610    -1.0680440     0.5552780
  C       -2.7379840    -0.3746360     0.4578480
  C       -0.6377490    -0.5042940    -0.6790150
  C       -2.3707440     0.9655450    -0.1585060
  C       -1.8992030     1.9895750     0.8571380
  C        1.2309690     1.1190800    -0.4442230
  C        1.6104480    -1.2470590    -0.0585760
  C        2.5474650     1.3753690    -0.1998620
  C        3.3802090     0.2523040     0.0808410
  H       -0.8441360    -0.7686950     1.4698480
  H       -3.2035870    -0.2822735     1.3954143
  H       -0.6227070    -1.2428120    -1.4883720
  H       -3.1941750     1.3785730    -0.7472070
  H       -1.0952130     1.5703990     1.4802000
  H       -2.7410530     2.2466610     1.5166010
  H       -0.6710550    -2.8260740     0.3542250
  H       -3.3063470    -2.0105220    -0.3629290
  H        0.4929290     1.8778260    -0.6840360
  H       -1.2098800     3.8154810     0.7720340
  H        2.9334840     2.3875570    -0.2389120
  H        5.1589650     1.2712730    -0.0008400
  H        5.2635310    -0.4031270     0.3606700
units angstrom
no_reorient  #important for SAPT in psi4, default
symmetry c1  #important for SAPT in psi4, default
}

set PROPERTIES_ORIGIN ["COM"]
properties('MP2/aug-cc-pvtz', properties = ['dipole'])
--------------------------------------------------------------------------

    Molecular point group: c1
  Charge       = 0
  Multiplicity = 1
  Basis Set: AUG-CC-PVTZ
    Blend: AUG-CC-PVTZ
  Basis Set: (AUG-CC-PVTZ AUX)
    Blend: AUG-CC-PVTZ-JKFIT

    Orbital Energies [Eh]
    ---------------------

    Doubly Occupied:

       1A    -20.586837     2A    -20.580991     3A    -20.559188
       4A    -20.555375     5A    -20.519575     6A    -15.632781
       7A    -15.599571     8A    -15.551638     9A    -11.385814
      10A    -11.357946    11A    -11.339237    12A    -11.324983
      13A    -11.303701    14A    -11.297481    15A    -11.296514
      16A    -11.287395    17A    -11.246430    18A     -1.428894
      19A     -1.393947    20A     -1.382949    21A     -1.375300
      22A     -1.346099    23A     -1.303521    24A     -1.271171
      25A     -1.181071    26A     -1.079183    27A     -1.069226
      28A     -1.017166    29A     -0.937307    30A     -0.906507
      31A     -0.877115    32A     -0.830197    33A     -0.816279
      34A     -0.766400    35A     -0.751508    36A     -0.734999
      37A     -0.722975    38A     -0.707898    39A     -0.703004
      40A     -0.684963    41A     -0.676549    42A     -0.653478
      43A     -0.649020    44A     -0.634656    45A     -0.620274
      46A     -0.615214    47A     -0.607683    48A     -0.593461
      49A     -0.578359    50A     -0.564748    51A     -0.555748
      52A     -0.548158    53A     -0.536372    54A     -0.530957
      55A     -0.495474    56A     -0.480855    57A     -0.473685
      58A     -0.463568    59A     -0.458159    60A     -0.453056
      61A     -0.442987    62A     -0.430112    63A     -0.392164
      64A     -0.348100

  @DF-RHF Final Energy:  -886.37365738217750

   => Energetics <=

    Nuclear Repulsion Energy =           1334.9035654639965287
    One-Electron Energy =               -3867.5224999170518458
    Two-Electron Energy =                1646.2452770708778189
    Total Energy =                       -886.3736573821774982
  Basis Set: (AUG-CC-PVTZ AUX)
    Blend: AUG-CC-PVTZ-RI
    Molecular point group: c1

    Geometry (in Angstrom), charge = 0, multiplicity = 1:

       Center              X                  Y                   Z               Mass
    ------------   -----------------  -----------------  -----------------  -----------------
         O           -1.332012500448     0.682465686208    -1.083270842806    15.994914619570
         O           -1.586396500448    -2.435455313792     0.529546157194    15.994914619570
         O           -3.573498500448    -1.041313313792    -0.444040842806    15.994914619570
         O           -1.452764500448     3.154091686208     0.142483157194    15.994914619570
         O            1.093717499552    -2.354735313792     0.023567157194    15.994914619570
         N            0.755800499552    -0.129314313792    -0.354669842806    14.003074004430
         N            2.923541499552    -0.965242313792     0.161973157194    14.003074004430
         N            4.693052499552     0.471740686208     0.377091157194    14.003074004430
         C           -1.389696500448    -1.039414313792     0.571243157194    12.000000000000
         C           -2.750819500448    -0.346006313792     0.473813157194    12.000000000000
         C           -0.650584500448    -0.475664313792    -0.663049842806    12.000000000000
         C           -2.383579500448     0.994174686208    -0.142540842806    12.000000000000
         C           -1.912038500448     2.018204686208     0.873103157194    12.000000000000
         C            1.218133499552     1.147709686208    -0.428257842806    12.000000000000
         C            1.597612499552    -1.218429313792    -0.042610842806    12.000000000000
         C            2.534629499552     1.403998686208    -0.183896842806    12.000000000000
         C            3.367373499552     0.280933686208     0.096806157194    12.000000000000
         H           -0.856971500448    -0.740065313792     1.485813157194     1.007825032230
         H           -3.216422500448    -0.253643813792     1.411379457194     1.007825032230
         H           -0.635542500448    -1.214182313792    -1.472406842806     1.007825032230
         H           -3.207010500448     1.407202686208    -0.731241842806     1.007825032230
         H           -1.108048500448     1.599028686208     1.496165157194     1.007825032230
         H           -2.753888500448     2.275290686208     1.532566157194     1.007825032230
         H           -0.683890500448    -2.797444313792     0.370190157194     1.007825032230
         H           -3.319182500448    -1.981892313792    -0.346963842806     1.007825032230
         H            0.480093499552     1.906455686208    -0.668070842806     1.007825032230
         H           -1.222715500448     3.844110686208     0.787999157194     1.007825032230
         H            2.920648499552     2.416186686208    -0.222946842806     1.007825032230
         H            5.146129499552     1.299902686208     0.015125157194     1.007825032230
         H            5.250695499552    -0.374497313792     0.376635157194     1.007825032230

  Basis Set: AUG-CC-PVTZ
    Blend: AUG-CC-PVTZ
  Basis Set: (AUG-CC-PVTZ AUX)
    Blend: AUG-CC-PVTZ-JKFIT
	 Reference Energy          =    -886.3736573821774982 [Eh]
	 Singles Energy            =      -0.0000000000000000 [Eh]
	 Same-Spin Energy          =      -0.9017245454342768 [Eh]
	 Opposite-Spin Energy      =      -2.7155036729239304 [Eh]
	 Correlation Energy        =      -3.6172282183582070 [Eh]
	 Total Energy              =    -889.9908856005356483 [Eh]

	 ================> DF-SCS-MP2 Energies <==================
	-----------------------------------------------------------
	 SCS Same-Spin Scale       =       0.3333333333333333 [-]
	 SCS Opposite-Spin Scale   =       1.2000000000000000 [-]
	 SCS Same-Spin Energy      =      -0.3005748484780922 [Eh]
	 SCS Opposite-Spin Energy  =      -3.2586044075087162 [Eh]
	 SCS Correlation Energy    =      -3.5591792559868085 [Eh]
	 SCS Total Energy          =    -889.9328366381643036 [Eh]
	-----------------------------------------------------------

  Dipole Moment: [D]
     X:     2.7248      Y:     5.8132      Z:     1.9795     Total:     6.7183

*** Psi4 exiting successfully. Buy a developer a beer!
