                               Psi4 1.4a3.dev225

  ==> Input File <==

--------------------------------------------------------------------------
#psi4
#
memory 32 gb

molecule  {
0 1
  O       -1.3191770     0.6538360    -1.0992360
  O       -1.5735610    -2.4640850     0.5135810
  O       -3.5606630    -1.0699430    -0.4600060
  O       -1.4399290     3.1254620     0.1265180
  O        1.1065530    -2.3833650     0.0076020
  N        0.7686360    -0.1579440    -0.3706350
  N        2.9363770    -0.9938720     0.1460080
  N        4.7058880     0.4431110     0.3611260
  C       -1.3768610    -1.0680440     0.5552780
  C       -2.7379840    -0.3746360     0.4578480
  C       -0.6377490    -0.5042940    -0.6790150
  C       -2.3707440     0.9655450    -0.1585060
  C       -1.8992030     1.9895750     0.8571380
  C        1.2309690     1.1190800    -0.4442230
  C        1.6104480    -1.2470590    -0.0585760
  C        2.5474650     1.3753690    -0.1998620
  C        3.3802090     0.2523040     0.0808410
  H       -0.8441360    -0.7686950     1.4698480
  H       -3.2257400    -0.2778790     1.4400230
  H       -0.6227070    -1.2428120    -1.4883720
  H       -3.1941750     1.3785730    -0.7472070
  H       -1.0952130     1.5703990     1.4802000
  H       -2.7410530     2.2466610     1.5166010
  H       -0.6710550    -2.8260740     0.3542250
  H       -3.3063470    -2.0105220    -0.3629290
  H        0.4929290     1.8778260    -0.6840360
  H       -1.2146111     3.8012903     0.7587585
  H        2.9334840     2.3875570    -0.2389120
  H        5.1589650     1.2712730    -0.0008400
  H        5.2635310    -0.4031270     0.3606700
units angstrom
no_reorient  #important for SAPT in psi4, default
symmetry c1  #important for SAPT in psi4, default
}

set PROPERTIES_ORIGIN ["COM"]
properties('MP2/aug-cc-pvtz', properties = ['dipole'])
--------------------------------------------------------------------------

    Molecular point group: c1
  Charge       = 0
  Multiplicity = 1
  Basis Set: AUG-CC-PVTZ
    Blend: AUG-CC-PVTZ
  Basis Set: (AUG-CC-PVTZ AUX)
    Blend: AUG-CC-PVTZ-JKFIT

    Orbital Energies [Eh]
    ---------------------

    Doubly Occupied:

       1A    -20.584904     2A    -20.581480     3A    -20.559392
       4A    -20.556478     5A    -20.519742     6A    -15.633003
       7A    -15.599683     8A    -15.551780     9A    -11.385987
      10A    -11.358087    11A    -11.339635    12A    -11.325157
      13A    -11.303797    14A    -11.298034    15A    -11.297027
      16A    -11.293552    17A    -11.246589    18A     -1.429415
      19A     -1.394831    20A     -1.385892    21A     -1.376399
      22A     -1.346581    23A     -1.303683    24A     -1.271363
      25A     -1.181217    26A     -1.079409    27A     -1.068508
      28A     -1.017615    29A     -0.937330    30A     -0.906800
      31A     -0.877013    32A     -0.830199    33A     -0.812466
      34A     -0.766521    35A     -0.750639    36A     -0.735944
      37A     -0.722954    38A     -0.710212    39A     -0.703438
      40A     -0.685192    41A     -0.675203    42A     -0.653637
      43A     -0.649096    44A     -0.633547    45A     -0.620394
      46A     -0.615248    47A     -0.607973    48A     -0.593201
      49A     -0.577352    50A     -0.565140    51A     -0.556243
      52A     -0.548456    53A     -0.536863    54A     -0.531364
      55A     -0.495744    56A     -0.481261    57A     -0.473826
      58A     -0.463531    59A     -0.457989    60A     -0.453115
      61A     -0.442147    62A     -0.430299    63A     -0.392275
      64A     -0.348259

  @DF-RHF Final Energy:  -886.37508356766136

   => Energetics <=

    Nuclear Repulsion Energy =           1334.7157989142119732
    One-Electron Energy =               -3867.1215425101504479
    Two-Electron Energy =                1646.0306600282769978
    Total Energy =                       -886.3750835676614770
  Basis Set: (AUG-CC-PVTZ AUX)
    Blend: AUG-CC-PVTZ-RI
    Molecular point group: c1

    Geometry (in Angstrom), charge = 0, multiplicity = 1:

       Center              X                  Y                   Z               Mass
    ------------   -----------------  -----------------  -----------------  -----------------
         O           -1.331901039803     0.682506300949    -1.083400749282    15.994914619570
         O           -1.586285039803    -2.435414699051     0.529416250718    15.994914619570
         O           -3.573387039803    -1.041272699051    -0.444170749282    15.994914619570
         O           -1.452653039803     3.154132300949     0.142353250718    15.994914619570
         O            1.093828960197    -2.354694699051     0.023437250718    15.994914619570
         N            0.755911960197    -0.129273699051    -0.354799749282    14.003074004430
         N            2.923652960197    -0.965201699051     0.161843250718    14.003074004430
         N            4.693163960197     0.471781300949     0.376961250718    14.003074004430
         C           -1.389585039803    -1.039373699051     0.571113250718    12.000000000000
         C           -2.750708039803    -0.345965699051     0.473683250718    12.000000000000
         C           -0.650473039803    -0.475623699051    -0.663179749282    12.000000000000
         C           -2.383468039803     0.994215300949    -0.142670749282    12.000000000000
         C           -1.911927039803     2.018245300949     0.872973250718    12.000000000000
         C            1.218244960197     1.147750300949    -0.428387749282    12.000000000000
         C            1.597723960197    -1.218388699051    -0.042740749282    12.000000000000
         C            2.534740960197     1.404039300949    -0.184026749282    12.000000000000
         C            3.367484960197     0.280974300949     0.096676250718    12.000000000000
         H           -0.856860039803    -0.740024699051     1.485683250718     1.007825032230
         H           -3.238464039803    -0.249208699051     1.455858250718     1.007825032230
         H           -0.635431039803    -1.214141699051    -1.472536749282     1.007825032230
         H           -3.206899039803     1.407243300949    -0.731371749282     1.007825032230
         H           -1.107937039803     1.599069300949     1.496035250718     1.007825032230
         H           -2.753777039803     2.275331300949     1.532436250718     1.007825032230
         H           -0.683779039803    -2.797403699051     0.370060250718     1.007825032230
         H           -3.319071039803    -1.981851699051    -0.347093749282     1.007825032230
         H            0.480204960197     1.906496300949    -0.668200749282     1.007825032230
         H           -1.227335139803     3.829960600949     0.774593750718     1.007825032230
         H            2.920759960197     2.416227300949    -0.223076749282     1.007825032230
         H            5.146240960197     1.299943300949     0.014995250718     1.007825032230
         H            5.250806960197    -0.374456699051     0.376505250718     1.007825032230

  Basis Set: AUG-CC-PVTZ
    Blend: AUG-CC-PVTZ
  Basis Set: (AUG-CC-PVTZ AUX)
    Blend: AUG-CC-PVTZ-JKFIT
	 Reference Energy          =    -886.3750835676613633 [Eh]
	 Singles Energy            =      -0.0000000000000000 [Eh]
	 Same-Spin Energy          =      -0.9015841157349080 [Eh]
	 Opposite-Spin Energy      =      -2.7152882842894410 [Eh]
	 Correlation Energy        =      -3.6168724000243491 [Eh]
	 Total Energy              =    -889.9919559676857261 [Eh]

	 ================> DF-SCS-MP2 Energies <==================
	-----------------------------------------------------------
	 SCS Same-Spin Scale       =       0.3333333333333333 [-]
	 SCS Opposite-Spin Scale   =       1.2000000000000000 [-]
	 SCS Same-Spin Energy      =      -0.3005280385783027 [Eh]
	 SCS Opposite-Spin Energy  =      -3.2583459411473292 [Eh]
	 SCS Correlation Energy    =      -3.5588739797256319 [Eh]
	 SCS Total Energy          =    -889.9339575473869672 [Eh]
	-----------------------------------------------------------

  Dipole Moment: [D]
     X:     2.7326      Y:     5.7832      Z:     1.9387     Total:     6.6836

*** Psi4 exiting successfully. Buy a developer a beer!
