                               Psi4 1.3.2 release

  ==> Input File <==

--------------------------------------------------------------------------
#psi4
#
memory 32 gb

molecule  {
0 1
  O       -1.2563849    -0.6329395     1.0459585
  O       -1.2449750     2.4828510    -0.6861630
  O       -3.2165300     1.5210990     0.7448870
  O       -2.3570290    -3.0668370     0.0949400
  O        1.3605300     2.2470340    -0.0765420
  N        0.8434040     0.0452230     0.2559430
  N        3.0572260     0.7205030    -0.2937270
  N        4.7164630    -0.8366550    -0.5722980
  C       -1.2894840     1.0784300    -0.5920770
  C       -2.7151710     0.6552070    -0.2573930
  C       -0.5254080     0.4815200     0.6000940
  C       -2.5292560    -0.7168860     0.3610560
  C       -2.5531713    -1.8443223    -0.6458435
  C        1.2197750    -1.2614080     0.3112740
  C        1.7555940     1.0674350    -0.0594030
  C        2.5111010    -1.6091400     0.0469950
  C        3.4119830    -0.5506530    -0.2589250
  H       -0.9376060     0.5914040    -1.5148910
  H       -3.3625820     0.6426650    -1.1464650
  H       -0.4402900     1.2218800     1.4039980
  H       -3.2819570    -0.9087340     1.1307830
  H       -1.7133080    -1.7003050    -1.3694640
  H       -3.4855610    -1.8340040    -1.1841350
  H       -0.2975250     2.7131790    -0.5250000
  H       -2.8475560     2.3997430     0.5086630
  H        0.4343110    -1.9634370     0.5690680
  H       -2.4338740    -3.7984320    -0.5432330
  H        2.8291120    -2.6453980     0.0739220
  H        5.1251800    -1.6708610    -0.1624140
  H        5.3198140    -0.0200540    -0.5682940
units angstrom
no_reorient  #important for SAPT in psi4, default
symmetry c1  #important for SAPT in psi4, default
}

set PROPERTIES_ORIGIN ["COM"]
properties('MP2/aug-cc-pvtz', properties = ['dipole'])
--------------------------------------------------------------------------

    Molecular point group: c1
  Charge       = 0
  Multiplicity = 1
  Basis Set: AUG-CC-PVTZ
    Blend: AUG-CC-PVTZ
  Basis Set: (AUG-CC-PVTZ AUX)
    Blend: AUG-CC-PVTZ-JKFIT

    Orbital Energies [Eh]
    ---------------------

    Doubly Occupied:

       1A    -20.582089     2A    -20.581758     3A    -20.557374
       4A    -20.556917     5A    -20.521885     6A    -15.636958
       7A    -15.599902     8A    -15.553420     9A    -11.388296
      10A    -11.357935    11A    -11.340727    12A    -11.328858
      13A    -11.301731    14A    -11.297488    15A    -11.296310
      16A    -11.292577    17A    -11.248728    18A     -1.430539
      19A     -1.396488    20A     -1.379098    21A     -1.370191
      22A     -1.345950    23A     -1.306141    24A     -1.273935
      25A     -1.182291    26A     -1.081998    27A     -1.068783
      28A     -1.021304    29A     -0.936504    30A     -0.909825
      31A     -0.877442    32A     -0.831582    33A     -0.812806
      34A     -0.767414    35A     -0.752623    36A     -0.735362
      37A     -0.719984    38A     -0.701648    39A     -0.699611
      40A     -0.685402    41A     -0.672691    42A     -0.654387
      43A     -0.652314    44A     -0.638231    45A     -0.621197
      46A     -0.614701    47A     -0.606225    48A     -0.593800
      49A     -0.575316    50A     -0.569330    51A     -0.553252
      52A     -0.546230    53A     -0.537234    54A     -0.531934
      55A     -0.498217    56A     -0.478781    57A     -0.474379
      58A     -0.461989    59A     -0.459836    60A     -0.452096
      61A     -0.441414    62A     -0.433143    63A     -0.395182
      64A     -0.350020

  @DF-RHF Final Energy:  -886.37270596493340

   => Energetics <=

    Nuclear Repulsion Energy =           1323.3590236376833218
    One-Electron Energy =               -3844.3799212965209335
    Two-Electron Energy =                1634.6481916939039820
    Total Energy =                       -886.3727059649334024
  Basis Set: (AUG-CC-PVTZ AUX)
    Blend: AUG-CC-PVTZ-RI
    Molecular point group: c1

    Geometry (in Angstrom), charge = 0, multiplicity = 1:

       Center              X                  Y                   Z               Mass
    ------------   -----------------  -----------------  -----------------  -----------------
         O           -1.254614248984    -0.634537298205     1.045397447182    15.994914619570
         O           -1.243204348984     2.481253201795    -0.686724052818    15.994914619570
         O           -3.214759348984     1.519501201795     0.744325947182    15.994914619570
         O           -2.355258348984    -3.068434798205     0.094378947182    15.994914619570
         O            1.362300651016     2.245436201795    -0.077103052818    15.994914619570
         N            0.845174651016     0.043625201795     0.255381947182    14.003074004430
         N            3.058996651016     0.718905201795    -0.294288052818    14.003074004430
         N            4.718233651016    -0.838252798205    -0.572859052818    14.003074004430
         C           -1.287713348984     1.076832201795    -0.592638052818    12.000000000000
         C           -2.713400348984     0.653609201795    -0.257954052818    12.000000000000
         C           -0.523637348984     0.479922201795     0.599532947182    12.000000000000
         C           -2.527485348984    -0.718483798205     0.360494947182    12.000000000000
         C           -2.551400648984    -1.845920098205    -0.646404552818    12.000000000000
         C            1.221545651016    -1.263005798205     0.310712947182    12.000000000000
         C            1.757364651016     1.065837201795    -0.059964052818    12.000000000000
         C            2.512871651016    -1.610737798205     0.046433947182    12.000000000000
         C            3.413753651016    -0.552250798205    -0.259486052818    12.000000000000
         H           -0.935835348984     0.589806201795    -1.515452052818     1.007825032230
         H           -3.360811348984     0.641067201795    -1.147026052818     1.007825032230
         H           -0.438519348984     1.220282201795     1.403436947182     1.007825032230
         H           -3.280186348984    -0.910331798205     1.130221947182     1.007825032230
         H           -1.711537348984    -1.701902798205    -1.370025052818     1.007825032230
         H           -3.483790348984    -1.835601798205    -1.184696052818     1.007825032230
         H           -0.295754348984     2.711581201795    -0.525561052818     1.007825032230
         H           -2.845785348984     2.398145201795     0.508101947182     1.007825032230
         H            0.436081651016    -1.965034798205     0.568506947182     1.007825032230
         H           -2.432103348984    -3.800029798205    -0.543794052818     1.007825032230
         H            2.830882651016    -2.646995798205     0.073360947182     1.007825032230
         H            5.126950651016    -1.672458798205    -0.162975052818     1.007825032230
         H            5.321584651016    -0.021651798205    -0.568855052818     1.007825032230

  Basis Set: AUG-CC-PVTZ
    Blend: AUG-CC-PVTZ
  Basis Set: (AUG-CC-PVTZ AUX)
    Blend: AUG-CC-PVTZ-JKFIT
	 Reference Energy          =    -886.3727059649334024 [Eh]
	 Singles Energy            =      -0.0000000000000000 [Eh]
	 Same-Spin Energy          =      -0.9012071553209877 [Eh]
	 Opposite-Spin Energy      =      -2.7149497377064717 [Eh]
	 Correlation Energy        =      -3.6161568930274592 [Eh]
	 Total Energy              =    -889.9888628579608394 [Eh]

	 ================> DF-SCS-MP2 Energies <==================
	-----------------------------------------------------------
	 SCS Same-Spin Scale       =       0.3333333333333333 [-]
	 SCS Opposite-Spin Scale   =       1.2000000000000000 [-]
	 SCS Same-Spin Energy      =      -0.3004023851069959 [Eh]
	 SCS Opposite-Spin Energy  =      -3.2579396852477660 [Eh]
	 SCS Correlation Energy    =      -3.5583420703547617 [Eh]
	 SCS Total Energy          =    -889.9310480352881996 [Eh]
	-----------------------------------------------------------

  Dipole Moment: [D]
     X:     1.6831      Y:    -5.9659      Z:    -1.8583     Total:     6.4713

*** Psi4 exiting successfully. Buy a developer a beer!
