                               Psi4 1.3.2 release

  ==> Input File <==

--------------------------------------------------------------------------
#psi4
#
memory 32 gb

molecule  {
0 1
  O       -1.2481010    -0.6526680     1.0325150
  O       -1.2449750     2.4828510    -0.6861630
  O       -3.2165300     1.5210990     0.7448870
  O       -2.3570290    -3.0668370     0.0949400
  O        1.3605300     2.2470340    -0.0765420
  N        0.8434040     0.0452230     0.2559430
  N        3.0572260     0.7205030    -0.2937270
  N        4.7164630    -0.8366550    -0.5722980
  C       -1.2894840     1.0784300    -0.5920770
  C       -2.7151710     0.6552070    -0.2573930
  C       -0.5254080     0.4815200     0.6000940
  C       -2.5292560    -0.7168860     0.3610560
  C       -2.5283440    -1.8503930    -0.6392900
  C        1.2197750    -1.2614080     0.3112740
  C        1.7555940     1.0674350    -0.0594030
  C        2.5111010    -1.6091400     0.0469950
  C        3.5385802    -0.4019082    -0.3019147
  H       -0.9376060     0.5914040    -1.5148910
  H       -3.3625820     0.6426650    -1.1464650
  H       -0.4402900     1.2218800     1.4039980
  H       -3.2819570    -0.9087340     1.1307830
  H       -1.7133080    -1.7003050    -1.3694640
  H       -3.4855610    -1.8340040    -1.1841350
  H       -0.2975250     2.7131790    -0.5250000
  H       -2.8475560     2.3997430     0.5086630
  H        0.4343110    -1.9634370     0.5690680
  H       -2.4338740    -3.7984320    -0.5432330
  H        2.8291120    -2.6453980     0.0739220
  H        5.1251800    -1.6708610    -0.1624140
  H        5.3198140    -0.0200540    -0.5682940
units angstrom
no_reorient  #important for SAPT in psi4, default
symmetry c1  #important for SAPT in psi4, default
}

set PROPERTIES_ORIGIN ["COM"]
properties('MP2/aug-cc-pvtz', properties = ['dipole'])
--------------------------------------------------------------------------

    Molecular point group: c1
  Charge       = 0
  Multiplicity = 1
  Basis Set: AUG-CC-PVTZ
    Blend: AUG-CC-PVTZ
  Basis Set: (AUG-CC-PVTZ AUX)
    Blend: AUG-CC-PVTZ-JKFIT

    Orbital Energies [Eh]
    ---------------------

    Doubly Occupied:

       1A    -20.577828     2A    -20.576084     3A    -20.555884
       4A    -20.555001     5A    -20.531053     6A    -15.623231
       7A    -15.612967     8A    -15.550117     9A    -11.399955
      10A    -11.359585    11A    -11.335897    12A    -11.304520
      13A    -11.296879    14A    -11.292754    15A    -11.292698
      16A    -11.289494    17A    -11.245349    18A     -1.425371
      19A     -1.400123    20A     -1.377219    21A     -1.368663
      22A     -1.344775    23A     -1.333138    24A     -1.279594
      25A     -1.220374    26A     -1.063780    27A     -1.056672
      28A     -1.009178    29A     -0.935473    30A     -0.893236
      31A     -0.883888    32A     -0.831026    33A     -0.807682
      34A     -0.774467    35A     -0.760919    36A     -0.742361
      37A     -0.731368    38A     -0.702189    39A     -0.694994
      40A     -0.685488    41A     -0.669108    42A     -0.657170
      43A     -0.646769    44A     -0.633623    45A     -0.614864
      46A     -0.612032    47A     -0.594509    48A     -0.588088
      49A     -0.577900    50A     -0.569514    51A     -0.555323
      52A     -0.547336    53A     -0.537436    54A     -0.529831
      55A     -0.493941    56A     -0.473495    57A     -0.471146
      58A     -0.464573    59A     -0.454696    60A     -0.449835
      61A     -0.436391    62A     -0.412273    63A     -0.410449
      64A     -0.334569

  @DF-RHF Final Energy:  -886.33181731365028

   => Energetics <=

    Nuclear Repulsion Energy =           1323.0016062046890966
    One-Electron Energy =               -3843.7545474543439923
    Two-Electron Energy =                1634.4211239360049603
    Total Energy =                       -886.3318173136501628
  Basis Set: (AUG-CC-PVTZ AUX)
    Blend: AUG-CC-PVTZ-RI
    Molecular point group: c1

    Geometry (in Angstrom), charge = 0, multiplicity = 1:

       Center              X                  Y                   Z               Mass
    ------------   -----------------  -----------------  -----------------  -----------------
         O           -1.254350548085    -0.660010827872     1.034637208749    15.994914619570
         O           -1.251224548085     2.475508172128    -0.684040791251    15.994914619570
         O           -3.222779548085     1.513756172128     0.747009208749    15.994914619570
         O           -2.363278548085    -3.074179827872     0.097062208749    15.994914619570
         O            1.354280451915     2.239691172128    -0.074419791251    15.994914619570
         N            0.837154451915     0.037880172128     0.258065208749    14.003074004430
         N            3.050976451915     0.713160172128    -0.291604791251    14.003074004430
         N            4.710213451915    -0.843997827872    -0.570175791251    14.003074004430
         C           -1.295733548085     1.071087172128    -0.589954791251    12.000000000000
         C           -2.721420548085     0.647864172128    -0.255270791251    12.000000000000
         C           -0.531657548085     0.474177172128     0.602216208749    12.000000000000
         C           -2.535505548085    -0.724228827872     0.363178208749    12.000000000000
         C           -2.534593548085    -1.857735827872    -0.637167791251    12.000000000000
         C            1.213525451915    -1.268750827872     0.313396208749    12.000000000000
         C            1.749344451915     1.060092172128    -0.057280791251    12.000000000000
         C            2.504851451915    -1.616482827872     0.049117208749    12.000000000000
         C            3.532330651915    -0.409251027872    -0.299792491251    12.000000000000
         H           -0.943855548085     0.584061172128    -1.512768791251     1.007825032230
         H           -3.368831548085     0.635322172128    -1.144342791251     1.007825032230
         H           -0.446539548085     1.214537172128     1.406120208749     1.007825032230
         H           -3.288206548085    -0.916076827872     1.132905208749     1.007825032230
         H           -1.719557548085    -1.707647827872    -1.367341791251     1.007825032230
         H           -3.491810548085    -1.841346827872    -1.182012791251     1.007825032230
         H           -0.303774548085     2.705836172128    -0.522877791251     1.007825032230
         H           -2.853805548085     2.392400172128     0.510785208749     1.007825032230
         H            0.428061451915    -1.970779827872     0.571190208749     1.007825032230
         H           -2.440123548085    -3.805774827872    -0.541110791251     1.007825032230
         H            2.822862451915    -2.652740827872     0.076044208749     1.007825032230
         H            5.118930451915    -1.678203827872    -0.160291791251     1.007825032230
         H            5.313564451915    -0.027396827872    -0.566171791251     1.007825032230

  Basis Set: AUG-CC-PVTZ
    Blend: AUG-CC-PVTZ
  Basis Set: (AUG-CC-PVTZ AUX)
    Blend: AUG-CC-PVTZ-JKFIT
	 Reference Energy          =    -886.3318173136502764 [Eh]
	 Singles Energy            =      -0.0000000000000000 [Eh]
	 Same-Spin Energy          =      -0.8999473896380156 [Eh]
	 Opposite-Spin Energy      =      -2.7147651244703370 [Eh]
	 Correlation Energy        =      -3.6147125141083527 [Eh]
	 Total Energy              =    -889.9465298277585816 [Eh]

	 ================> DF-SCS-MP2 Energies <==================
	-----------------------------------------------------------
	 SCS Same-Spin Scale       =       0.3333333333333333 [-]
	 SCS Opposite-Spin Scale   =       1.2000000000000000 [-]
	 SCS Same-Spin Energy      =      -0.2999824632126719 [Eh]
	 SCS Opposite-Spin Energy  =      -3.2577181493644045 [Eh]
	 SCS Correlation Energy    =      -3.5577006125770763 [Eh]
	 SCS Total Energy          =    -889.8895179262273132 [Eh]
	-----------------------------------------------------------

  Dipole Moment: [D]
     X:     2.8360      Y:    -5.4487      Z:    -2.0920     Total:     6.4890

*** Psi4 exiting successfully. Buy a developer a beer!
