                               Psi4 1.3.2 release

  ==> Input File <==

--------------------------------------------------------------------------
#psi4
#
memory 32 gb

molecule  {
0 1
  O       -1.2156992    -0.6398834     0.9651904
  O       -1.2449750     2.4828510    -0.6861630
  O       -3.2165300     1.5210990     0.7448870
  O       -2.3570290    -3.0668370     0.0949400
  O        1.3605300     2.2470340    -0.0765420
  N        0.8434040     0.0452230     0.2559430
  N        3.0572260     0.7205030    -0.2937270
  N        4.7164630    -0.8366550    -0.5722980
  C       -1.2894840     1.0784300    -0.5920770
  C       -2.7151710     0.6552070    -0.2573930
  C       -0.5254080     0.4815200     0.6000940
  C       -2.5292560    -0.7168860     0.3610560
  C       -2.5283440    -1.8503930    -0.6392900
  C        1.2197750    -1.2614080     0.3112740
  C        1.7555940     1.0674350    -0.0594030
  C        2.5111010    -1.6091400     0.0469950
  C        3.4119830    -0.5506530    -0.2589250
  H       -0.9376060     0.5914040    -1.5148910
  H       -3.3625820     0.6426650    -1.1464650
  H       -0.4402900     1.2218800     1.4039980
  H       -3.3218926    -0.9080767     1.0897654
  H       -1.7133080    -1.7003050    -1.3694640
  H       -3.4855610    -1.8340040    -1.1841350
  H       -0.2975250     2.7131790    -0.5250000
  H       -2.8475560     2.3997430     0.5086630
  H        0.4343110    -1.9634370     0.5690680
  H       -2.4338740    -3.7984320    -0.5432330
  H        2.8291120    -2.6453980     0.0739220
  H        5.1251800    -1.6708610    -0.1624140
  H        5.3198140    -0.0200540    -0.5682940
units angstrom
no_reorient  #important for SAPT in psi4, default
symmetry c1  #important for SAPT in psi4, default
}

set PROPERTIES_ORIGIN ["COM"]
properties('MP2/aug-cc-pvtz', properties = ['dipole'])
--------------------------------------------------------------------------

    Molecular point group: c1
  Charge       = 0
  Multiplicity = 1
  Basis Set: AUG-CC-PVTZ
    Blend: AUG-CC-PVTZ
  Basis Set: (AUG-CC-PVTZ AUX)
    Blend: AUG-CC-PVTZ-JKFIT

    Orbital Energies [Eh]
    ---------------------

    Doubly Occupied:

       1A    -20.582979     2A    -20.581573     3A    -20.558112
       4A    -20.555298     5A    -20.520751     6A    -15.634597
       7A    -15.599010     8A    -15.552167     9A    -11.386753
      10A    -11.356799    11A    -11.338905    12A    -11.327309
      13A    -11.301429    14A    -11.300436    15A    -11.294188
      16A    -11.292535    17A    -11.247505    18A     -1.442729
      19A     -1.396694    20A     -1.380352    21A     -1.375179
      22A     -1.345844    23A     -1.304879    24A     -1.272396
      25A     -1.181150    26A     -1.081403    27A     -1.070280
      28A     -1.021496    29A     -0.935142    30A     -0.908879
      31A     -0.876865    32A     -0.833470    33A     -0.813618
      34A     -0.766319    35A     -0.753848    36A     -0.738525
      37A     -0.720193    38A     -0.703524    39A     -0.698937
      40A     -0.688659    41A     -0.673471    42A     -0.658392
      43A     -0.650454    44A     -0.638472    45A     -0.620993
      46A     -0.614359    47A     -0.607836    48A     -0.592776
      49A     -0.577560    50A     -0.575655    51A     -0.553886
      52A     -0.544626    53A     -0.536677    54A     -0.531249
      55A     -0.496893    56A     -0.477660    57A     -0.473548
      58A     -0.463419    59A     -0.459065    60A     -0.451434
      61A     -0.439023    62A     -0.431418    63A     -0.394035
      64A     -0.348762

  @DF-RHF Final Energy:  -886.37240602769089

   => Energetics <=

    Nuclear Repulsion Energy =           1325.8326927832142701
    One-Electron Energy =               -3849.3054173150485440
    Two-Electron Energy =                1637.1003185041436154
    Total Energy =                       -886.3724060276908858
  Basis Set: (AUG-CC-PVTZ AUX)
    Blend: AUG-CC-PVTZ-RI
    Molecular point group: c1

    Geometry (in Angstrom), charge = 0, multiplicity = 1:

       Center              X                  Y                   Z               Mass
    ------------   -----------------  -----------------  -----------------  -----------------
         O           -1.217665685604    -0.640727335763     0.969790392665    15.994914619570
         O           -1.246941485604     2.482007064237    -0.681563007335    15.994914619570
         O           -3.218496485604     1.520255064237     0.749486992665    15.994914619570
         O           -2.358995485604    -3.067680935763     0.099539992665    15.994914619570
         O            1.358563514396     2.246190064237    -0.071942007335    15.994914619570
         N            0.841437514396     0.044379064237     0.260542992665    14.003074004430
         N            3.055259514396     0.719659064237    -0.289127007335    14.003074004430
         N            4.714496514396    -0.837498935763    -0.567698007335    14.003074004430
         C           -1.291450485604     1.077586064237    -0.587477007335    12.000000000000
         C           -2.717137485604     0.654363064237    -0.252793007335    12.000000000000
         C           -0.527374485604     0.480676064237     0.604693992665    12.000000000000
         C           -2.531222485604    -0.717729935763     0.365655992665    12.000000000000
         C           -2.530310485604    -1.851236935763    -0.634690007335    12.000000000000
         C            1.217808514396    -1.262251935763     0.315873992665    12.000000000000
         C            1.753627514396     1.066591064237    -0.054803007335    12.000000000000
         C            2.509134514396    -1.609983935763     0.051594992665    12.000000000000
         C            3.410016514396    -0.551496935763    -0.254325007335    12.000000000000
         H           -0.939572485604     0.590560064237    -1.510291007335     1.007825032230
         H           -3.364548485604     0.641821064237    -1.141865007335     1.007825032230
         H           -0.442256485604     1.221036064237     1.408597992665     1.007825032230
         H           -3.323859085604    -0.908920635763     1.094365392665     1.007825032230
         H           -1.715274485604    -1.701148935763    -1.364864007335     1.007825032230
         H           -3.487527485604    -1.834847935763    -1.179535007335     1.007825032230
         H           -0.299491485604     2.712335064237    -0.520400007335     1.007825032230
         H           -2.849522485604     2.398899064237     0.513262992665     1.007825032230
         H            0.432344514396    -1.964280935763     0.573667992665     1.007825032230
         H           -2.435840485604    -3.799275935763    -0.538633007335     1.007825032230
         H            2.827145514396    -2.646241935763     0.078521992665     1.007825032230
         H            5.123213514396    -1.671704935763    -0.157814007335     1.007825032230
         H            5.317847514396    -0.020897935763    -0.563694007335     1.007825032230

  Basis Set: AUG-CC-PVTZ
    Blend: AUG-CC-PVTZ
  Basis Set: (AUG-CC-PVTZ AUX)
    Blend: AUG-CC-PVTZ-JKFIT
	 Reference Energy          =    -886.3724060276908858 [Eh]
	 Singles Energy            =      -0.0000000000000000 [Eh]
	 Same-Spin Energy          =      -0.9011681453330005 [Eh]
	 Opposite-Spin Energy      =      -2.7137585168891807 [Eh]
	 Correlation Energy        =      -3.6149266622221812 [Eh]
	 Total Energy              =    -889.9873326899130461 [Eh]

	 ================> DF-SCS-MP2 Energies <==================
	-----------------------------------------------------------
	 SCS Same-Spin Scale       =       0.3333333333333333 [-]
	 SCS Opposite-Spin Scale   =       1.2000000000000000 [-]
	 SCS Same-Spin Energy      =      -0.3003893817776668 [Eh]
	 SCS Opposite-Spin Energy  =      -3.2565102202670166 [Eh]
	 SCS Correlation Energy    =      -3.5568996020446835 [Eh]
	 SCS Total Energy          =    -889.9293056297356088 [Eh]
	-----------------------------------------------------------

  Dipole Moment: [D]
     X:     1.5358      Y:    -6.0356      Z:    -1.7106     Total:     6.4586

*** Psi4 exiting successfully. Buy a developer a beer!
