                               Psi4 1.3.2 release

  ==> Input File <==

--------------------------------------------------------------------------
#psi4
#
memory 32 gb

molecule  {
0 1
  O       -1.2481010    -0.6526680     1.0325150
  O       -1.2449750     2.4828510    -0.6861630
  O       -3.2165300     1.5210990     0.7448870
  O       -2.3570290    -3.0668370     0.0949400
  O        1.3605300     2.2470340    -0.0765420
  N        0.8434040     0.0452230     0.2559430
  N        3.0572260     0.7205030    -0.2937270
  N        4.7164630    -0.8366550    -0.5722980
  C       -1.2894840     1.0784300    -0.5920770
  C       -2.7106126     0.6863757    -0.1845164
  C       -0.5254080     0.4815200     0.6000940
  C       -2.5292560    -0.7168860     0.3610560
  C       -2.5177388    -1.9007163    -0.5791271
  C        1.2197750    -1.2614080     0.3112740
  C        1.7555940     1.0674350    -0.0594030
  C        2.5111010    -1.6091400     0.0469950
  C        3.4119830    -0.5506530    -0.2589250
  H       -0.9376060     0.5914040    -1.5148910
  H       -3.3625820     0.6426650    -1.1464650
  H       -0.4402900     1.2218800     1.4039980
  H       -3.2819570    -0.9087340     1.1307830
  H       -1.7133080    -1.7003050    -1.3694640
  H       -3.4855610    -1.8340040    -1.1841350
  H       -0.2975250     2.7131790    -0.5250000
  H       -2.8475560     2.3997430     0.5086630
  H        0.4343110    -1.9634370     0.5690680
  H       -2.4338740    -3.7984320    -0.5432330
  H        2.8291120    -2.6453980     0.0739220
  H        5.1251800    -1.6708610    -0.1624140
  H        5.3198140    -0.0200540    -0.5682940
units angstrom
no_reorient  #important for SAPT in psi4, default
symmetry c1  #important for SAPT in psi4, default
}

set PROPERTIES_ORIGIN ["COM"]
properties('MP2/aug-cc-pvtz', properties = ['dipole'])
--------------------------------------------------------------------------

    Molecular point group: c1
  Charge       = 0
  Multiplicity = 1
  Basis Set: AUG-CC-PVTZ
    Blend: AUG-CC-PVTZ
  Basis Set: (AUG-CC-PVTZ AUX)
    Blend: AUG-CC-PVTZ-JKFIT

    Orbital Energies [Eh]
    ---------------------

    Doubly Occupied:

       1A    -20.589443     2A    -20.578378     3A    -20.564795
       4A    -20.556794     5A    -20.521348     6A    -15.635939
       7A    -15.599371     8A    -15.552753     9A    -11.387558
      10A    -11.357269    11A    -11.339617    12A    -11.327954
      13A    -11.304969    14A    -11.296039    15A    -11.294068
      16A    -11.293540    17A    -11.247932    18A     -1.433220
      19A     -1.408777    20A     -1.400217    21A     -1.387104
      22A     -1.356572    23A     -1.305424    24A     -1.273102
      25A     -1.181653    26A     -1.081297    27A     -1.059905
      28A     -1.020551    29A     -0.932312    30A     -0.908112
      31A     -0.877016    32A     -0.833177    33A     -0.804845
      34A     -0.766166    35A     -0.751307    36A     -0.742366
      37A     -0.728857    38A     -0.715043    39A     -0.703225
      40A     -0.685891    41A     -0.674627    42A     -0.654418
      43A     -0.651705    44A     -0.641026    45A     -0.621432
      46A     -0.620496    47A     -0.611154    48A     -0.593937
      49A     -0.583322    50A     -0.572735    51A     -0.562046
      52A     -0.548208    53A     -0.538408    54A     -0.529066
      55A     -0.497095    56A     -0.470989    57A     -0.466906
      58A     -0.460103    59A     -0.452481    60A     -0.448193
      61A     -0.432423    62A     -0.430729    63A     -0.393882
      64A     -0.348927

  @DF-RHF Final Energy:  -886.36155598270796

   => Energetics <=

    Nuclear Repulsion Energy =           1325.1459952476689068
    One-Electron Energy =               -3847.7986718989864130
    Two-Electron Energy =                1636.2911206686096648
    Total Energy =                       -886.3615559827078414
  Basis Set: (AUG-CC-PVTZ AUX)
    Blend: AUG-CC-PVTZ-RI
    Molecular point group: c1

    Geometry (in Angstrom), charge = 0, multiplicity = 1:

       Center              X                  Y                   Z               Mass
    ------------   -----------------  -----------------  -----------------  -----------------
         O           -1.248849590245    -0.651722416470     1.025947466985    15.994914619570
         O           -1.245723590245     2.483796583530    -0.692730533015    15.994914619570
         O           -3.217278590245     1.522044583530     0.738319466985    15.994914619570
         O           -2.357777590245    -3.065891416470     0.088372466985    15.994914619570
         O            1.359781409755     2.247979583530    -0.083109533015    15.994914619570
         N            0.842655409755     0.046168583530     0.249375466985    14.003074004430
         N            3.056477409755     0.721448583530    -0.300294533015    14.003074004430
         N            4.715714409755    -0.835709416470    -0.578865533015    14.003074004430
         C           -1.290232590245     1.079375583530    -0.598644533015    12.000000000000
         C           -2.711361190245     0.687321283530    -0.191083933015    12.000000000000
         C           -0.526156590245     0.482465583530     0.593526466985    12.000000000000
         C           -2.530004590245    -0.715940416470     0.354488466985    12.000000000000
         C           -2.518487390245    -1.899770716470    -0.585694633015    12.000000000000
         C            1.219026409755    -1.260462416470     0.304706466985    12.000000000000
         C            1.754845409755     1.068380583530    -0.065970533015    12.000000000000
         C            2.510352409755    -1.608194416470     0.040427466985    12.000000000000
         C            3.411234409755    -0.549707416470    -0.265492533015    12.000000000000
         H           -0.938354590245     0.592349583530    -1.521458533015     1.007825032230
         H           -3.363330590245     0.643610583530    -1.153032533015     1.007825032230
         H           -0.441038590245     1.222825583530     1.397430466985     1.007825032230
         H           -3.282705590245    -0.907788416470     1.124215466985     1.007825032230
         H           -1.714056590245    -1.699359416470    -1.376031533015     1.007825032230
         H           -3.486309590245    -1.833058416470    -1.190702533015     1.007825032230
         H           -0.298273590245     2.714124583530    -0.531567533015     1.007825032230
         H           -2.848304590245     2.400688583530     0.502095466985     1.007825032230
         H            0.433562409755    -1.962491416470     0.562500466985     1.007825032230
         H           -2.434622590245    -3.797486416470    -0.549800533015     1.007825032230
         H            2.828363409755    -2.644452416470     0.067354466985     1.007825032230
         H            5.124431409755    -1.669915416470    -0.168981533015     1.007825032230
         H            5.319065409755    -0.019108416470    -0.574861533015     1.007825032230

  Basis Set: AUG-CC-PVTZ
    Blend: AUG-CC-PVTZ
  Basis Set: (AUG-CC-PVTZ AUX)
    Blend: AUG-CC-PVTZ-JKFIT
	 Reference Energy          =    -886.3615559827079551 [Eh]
	 Singles Energy            =      -0.0000000000000000 [Eh]
	 Same-Spin Energy          =      -0.9016224373463702 [Eh]
	 Opposite-Spin Energy      =      -2.7134725204302494 [Eh]
	 Correlation Energy        =      -3.6150949577766198 [Eh]
	 Total Energy              =    -889.9766509404845465 [Eh]

	 ================> DF-SCS-MP2 Energies <==================
	-----------------------------------------------------------
	 SCS Same-Spin Scale       =       0.3333333333333333 [-]
	 SCS Opposite-Spin Scale   =       1.2000000000000000 [-]
	 SCS Same-Spin Energy      =      -0.3005408124487901 [Eh]
	 SCS Opposite-Spin Energy  =      -3.2561670245162992 [Eh]
	 SCS Correlation Energy    =      -3.5567078369650895 [Eh]
	 SCS Total Energy          =    -889.9182638196730295 [Eh]
	-----------------------------------------------------------

  Dipole Moment: [D]
     X:     1.6667      Y:    -6.0538      Z:    -1.4885     Total:     6.4531

*** Psi4 exiting successfully. Buy a developer a beer!
