                               Psi4 1.3.2 release

  ==> Input File <==

--------------------------------------------------------------------------
#psi4
#
memory 32 gb

molecule  {
0 1
  O       -1.2481010    -0.6526680     1.0325150
  O       -1.2449750     2.4828510    -0.6861630
  O       -3.2165300     1.5210990     0.7448870
  O       -2.3570290    -3.0668370     0.0949400
  O        1.3605300     2.2470340    -0.0765420
  N        0.8499499     0.0302331     0.3048452
  N        3.0572260     0.7205030    -0.2937270
  N        4.7164630    -0.8366550    -0.5722980
  C       -1.3316451     1.0863556    -0.5598806
  C       -2.7151710     0.6552070    -0.2573930
  C       -0.5254080     0.4815200     0.6000940
  C       -2.5292560    -0.7168860     0.3610560
  C       -2.5283440    -1.8503930    -0.6392900
  C        1.2197750    -1.2614080     0.3112740
  C        1.7555940     1.0674350    -0.0594030
  C        2.5111010    -1.6091400     0.0469950
  C        3.4119830    -0.5506530    -0.2589250
  H       -0.9376060     0.5914040    -1.5148910
  H       -3.3625820     0.6426650    -1.1464650
  H       -0.4402900     1.2218800     1.4039980
  H       -3.2819570    -0.9087340     1.1307830
  H       -1.7133080    -1.7003050    -1.3694640
  H       -3.4855610    -1.8340040    -1.1841350
  H       -0.2975250     2.7131790    -0.5250000
  H       -2.8475560     2.3997430     0.5086630
  H        0.4343110    -1.9634370     0.5690680
  H       -2.4338740    -3.7984320    -0.5432330
  H        2.8291120    -2.6453980     0.0739220
  H        5.1251800    -1.6708610    -0.1624140
  H        5.3198140    -0.0200540    -0.5682940
units angstrom
no_reorient  #important for SAPT in psi4, default
symmetry c1  #important for SAPT in psi4, default
}

set PROPERTIES_ORIGIN ["COM"]
properties('MP2/aug-cc-pvtz', properties = ['dipole'])
--------------------------------------------------------------------------

    Molecular point group: c1
  Charge       = 0
  Multiplicity = 1
  Basis Set: AUG-CC-PVTZ
    Blend: AUG-CC-PVTZ
  Basis Set: (AUG-CC-PVTZ AUX)
    Blend: AUG-CC-PVTZ-JKFIT

    Orbital Energies [Eh]
    ---------------------

    Doubly Occupied:

       1A    -20.582304     2A    -20.581064     3A    -20.558375
       4A    -20.558032     5A    -20.525018     6A    -15.638393
       7A    -15.599306     8A    -15.553344     9A    -11.391054
      10A    -11.357349    11A    -11.342002    12A    -11.326956
      13A    -11.301338    14A    -11.300113    15A    -11.298025
      16A    -11.292792    17A    -11.246280    18A     -1.430529
      19A     -1.396563    20A     -1.382499    21A     -1.373338
      22A     -1.347624    23A     -1.307553    24A     -1.275257
      25A     -1.182365    26A     -1.081061    27A     -1.072250
      28A     -1.023163    29A     -0.938233    30A     -0.907887
      31A     -0.877952    32A     -0.832575    33A     -0.812544
      34A     -0.765968    35A     -0.755400    36A     -0.736475
      37A     -0.719877    38A     -0.703954    39A     -0.698099
      40A     -0.685173    41A     -0.672943    42A     -0.654916
      43A     -0.652222    44A     -0.637974    45A     -0.620753
      46A     -0.613821    47A     -0.606119    48A     -0.596548
      49A     -0.578872    50A     -0.570300    51A     -0.553289
      52A     -0.544730    53A     -0.537425    54A     -0.531893
      55A     -0.501158    56A     -0.481308    57A     -0.476050
      58A     -0.463962    59A     -0.461314    60A     -0.450691
      61A     -0.440174    62A     -0.431679    63A     -0.395450
      64A     -0.348370

  @DF-RHF Final Energy:  -886.36875943257098

   => Energetics <=

    Nuclear Repulsion Energy =           1323.7928469914120342
    One-Electron Energy =               -3845.1631216049486284
    Two-Electron Energy =                1635.0015151809657254
    Total Energy =                       -886.3687594325710961
  Basis Set: (AUG-CC-PVTZ AUX)
    Blend: AUG-CC-PVTZ-RI
    Molecular point group: c1

    Geometry (in Angstrom), charge = 0, multiplicity = 1:

       Center              X                  Y                   Z               Mass
    ------------   -----------------  -----------------  -----------------  -----------------
         O           -1.246396816931    -0.652195738455     1.028108583259    15.994914619570
         O           -1.243270816931     2.483323261545    -0.690569416741    15.994914619570
         O           -3.214825816931     1.521571261545     0.740480583259    15.994914619570
         O           -2.355324816931    -3.066364738455     0.090533583259    15.994914619570
         O            1.362234183069     2.247506261545    -0.080948416741    15.994914619570
         N            0.851654083069     0.030705361545     0.300438783259    14.003074004430
         N            3.058930183069     0.720975261545    -0.298133416741    14.003074004430
         N            4.718167183069    -0.836182738455    -0.576704416741    14.003074004430
         C           -1.329940916931     1.086827861545    -0.564287016741    12.000000000000
         C           -2.713466816931     0.655679261545    -0.261799416741    12.000000000000
         C           -0.523703816931     0.481992261545     0.595687583259    12.000000000000
         C           -2.527551816931    -0.716413738455     0.356649583259    12.000000000000
         C           -2.526639816931    -1.849920738455    -0.643696416741    12.000000000000
         C            1.221479183069    -1.260935738455     0.306867583259    12.000000000000
         C            1.757298183069     1.067907261545    -0.063809416741    12.000000000000
         C            2.512805183069    -1.608667738455     0.042588583259    12.000000000000
         C            3.413687183069    -0.550180738455    -0.263331416741    12.000000000000
         H           -0.935901816931     0.591876261545    -1.519297416741     1.007825032230
         H           -3.360877816931     0.643137261545    -1.150871416741     1.007825032230
         H           -0.438585816931     1.222352261545     1.399591583259     1.007825032230
         H           -3.280252816931    -0.908261738455     1.126376583259     1.007825032230
         H           -1.711603816931    -1.699832738455    -1.373870416741     1.007825032230
         H           -3.483856816931    -1.833531738455    -1.188541416741     1.007825032230
         H           -0.295820816931     2.713651261545    -0.529406416741     1.007825032230
         H           -2.845851816931     2.400215261545     0.504256583259     1.007825032230
         H            0.436015183069    -1.962964738455     0.564661583259     1.007825032230
         H           -2.432169816931    -3.797959738455    -0.547639416741     1.007825032230
         H            2.830816183069    -2.644925738455     0.069515583259     1.007825032230
         H            5.126884183069    -1.670388738455    -0.166820416741     1.007825032230
         H            5.321518183069    -0.019581738455    -0.572700416741     1.007825032230

  Basis Set: AUG-CC-PVTZ
    Blend: AUG-CC-PVTZ
  Basis Set: (AUG-CC-PVTZ AUX)
    Blend: AUG-CC-PVTZ-JKFIT
	 Reference Energy          =    -886.3687594325709824 [Eh]
	 Singles Energy            =      -0.0000000000000000 [Eh]
	 Same-Spin Energy          =      -0.9015371743910076 [Eh]
	 Opposite-Spin Energy      =      -2.7150354206981642 [Eh]
	 Correlation Energy        =      -3.6165725950891718 [Eh]
	 Total Energy              =    -889.9853320276602062 [Eh]

	 ================> DF-SCS-MP2 Energies <==================
	-----------------------------------------------------------
	 SCS Same-Spin Scale       =       0.3333333333333333 [-]
	 SCS Opposite-Spin Scale   =       1.2000000000000000 [-]
	 SCS Same-Spin Energy      =      -0.3005123914636691 [Eh]
	 SCS Opposite-Spin Energy  =      -3.2580425048377970 [Eh]
	 SCS Correlation Energy    =      -3.5585548963014659 [Eh]
	 SCS Total Energy          =    -889.9273143288723986 [Eh]
	-----------------------------------------------------------

  Dipole Moment: [D]
     X:     1.6417      Y:    -5.8555      Z:    -1.8073     Total:     6.3442

*** Psi4 exiting successfully. Buy a developer a beer!
