                               Psi4 1.3.2 release

  ==> Input File <==

--------------------------------------------------------------------------
#psi4
#
memory 32 gb

molecule  {
0 1
  O       -1.2481010    -0.6526680     1.0325150
  O       -1.2449750     2.4828510    -0.6861630
  O       -3.1972973     1.5152396     0.7592649
  O       -2.3570290    -3.0668370     0.0949400
  O        1.3605300     2.2470340    -0.0765420
  N        0.8434040     0.0452230     0.2559430
  N        3.0572260     0.7205030    -0.2937270
  N        4.7164630    -0.8366550    -0.5722980
  C       -1.2894840     1.0784300    -0.5920770
  C       -2.7151710     0.6552070    -0.2573930
  C       -0.5254080     0.4815200     0.6000940
  C       -2.5292560    -0.7168860     0.3610560
  C       -2.5283440    -1.8503930    -0.6392900
  C        1.2197750    -1.2614080     0.3112740
  C        1.7555940     1.0674350    -0.0594030
  C        2.5111010    -1.6091400     0.0469950
  C        3.4119830    -0.5506530    -0.2589250
  H       -0.9376060     0.5914040    -1.5148910
  H       -3.3506575     0.6301178    -1.1547640
  H       -0.4402900     1.2218800     1.4039980
  H       -3.2819570    -0.9087340     1.1307830
  H       -1.7133080    -1.7003050    -1.3694640
  H       -3.4855610    -1.8340040    -1.1841350
  H       -0.2975250     2.7131790    -0.5250000
  H       -2.8475560     2.3997430     0.5086630
  H        0.4343110    -1.9634370     0.5690680
  H       -2.4338740    -3.7984320    -0.5432330
  H        2.8291120    -2.6453980     0.0739220
  H        5.1251800    -1.6708610    -0.1624140
  H        5.3198140    -0.0200540    -0.5682940
units angstrom
no_reorient  #important for SAPT in psi4, default
symmetry c1  #important for SAPT in psi4, default
}

set PROPERTIES_ORIGIN ["COM"]
properties('MP2/aug-cc-pvtz', properties = ['dipole'])
--------------------------------------------------------------------------

    Molecular point group: c1
  Charge       = 0
  Multiplicity = 1
  Basis Set: AUG-CC-PVTZ
    Blend: AUG-CC-PVTZ
  Basis Set: (AUG-CC-PVTZ AUX)
    Blend: AUG-CC-PVTZ-JKFIT

    Orbital Energies [Eh]
    ---------------------

    Doubly Occupied:

       1A    -20.582160     2A    -20.581158     3A    -20.558856
       4A    -20.556960     5A    -20.521762     6A    -15.636642
       7A    -15.599691     8A    -15.553151     9A    -11.388030
      10A    -11.357665    11A    -11.341047    12A    -11.328305
      13A    -11.301050    14A    -11.296613    15A    -11.296119
      16A    -11.293191    17A    -11.248347    18A     -1.429147
      19A     -1.396187    20A     -1.380137    21A     -1.372653
      22A     -1.346208    23A     -1.305843    24A     -1.273559
      25A     -1.182054    26A     -1.081721    27A     -1.067749
      28A     -1.021058    29A     -0.935312    30A     -0.909252
      31A     -0.877112    32A     -0.832112    33A     -0.811569
      34A     -0.766745    35A     -0.752172    36A     -0.735886
      37A     -0.719937    38A     -0.702861    39A     -0.698299
      40A     -0.685442    41A     -0.673688    42A     -0.654306
      43A     -0.651378    44A     -0.638051    45A     -0.620512
      46A     -0.614243    47A     -0.606101    48A     -0.593620
      49A     -0.575690    50A     -0.569593    51A     -0.553490
      52A     -0.545906    53A     -0.537258    54A     -0.531679
      55A     -0.497698    56A     -0.477449    57A     -0.475152
      58A     -0.461754    59A     -0.460058    60A     -0.452505
      61A     -0.440650    62A     -0.432914    63A     -0.394989
      64A     -0.349762

  @DF-RHF Final Energy:  -886.37282276213352

   => Energetics <=

    Nuclear Repulsion Energy =           1324.1164917446299114
    One-Electron Energy =               -3845.9142168385751575
    Two-Electron Energy =                1635.4249023318118361
    Total Energy =                       -886.3728227621334099
  Basis Set: (AUG-CC-PVTZ AUX)
    Blend: AUG-CC-PVTZ-RI
    Molecular point group: c1

    Geometry (in Angstrom), charge = 0, multiplicity = 1:

       Center              X                  Y                   Z               Mass
    ------------   -----------------  -----------------  -----------------  -----------------
         O           -1.249415975292    -0.652230423754     1.031603355719    15.994914619570
         O           -1.246289975292     2.483288576246    -0.687074644281    15.994914619570
         O           -3.198612275292     1.515677176246     0.758353255719    15.994914619570
         O           -2.358343975292    -3.066399423754     0.094028355719    15.994914619570
         O            1.359215024708     2.247471576246    -0.077453644281    15.994914619570
         N            0.842089024708     0.045660576246     0.255031355719    14.003074004430
         N            3.055911024708     0.720940576246    -0.294638644281    14.003074004430
         N            4.715148024708    -0.836217423754    -0.573209644281    14.003074004430
         C           -1.290798975292     1.078867576246    -0.592988644281    12.000000000000
         C           -2.716485975292     0.655644576246    -0.258304644281    12.000000000000
         C           -0.526722975292     0.481957576246     0.599182355719    12.000000000000
         C           -2.530570975292    -0.716448423754     0.360144355719    12.000000000000
         C           -2.529658975292    -1.849955423754    -0.640201644281    12.000000000000
         C            1.218460024708    -1.260970423754     0.310362355719    12.000000000000
         C            1.754279024708     1.067872576246    -0.060314644281    12.000000000000
         C            2.509786024708    -1.608702423754     0.046083355719    12.000000000000
         C            3.410668024708    -0.550215423754    -0.259836644281    12.000000000000
         H           -0.938920975292     0.591841576246    -1.515802644281     1.007825032230
         H           -3.351972475292     0.630555376246    -1.155675644281     1.007825032230
         H           -0.441604975292     1.222317576246     1.403086355719     1.007825032230
         H           -3.283271975292    -0.908296423754     1.129871355719     1.007825032230
         H           -1.714622975292    -1.699867423754    -1.370375644281     1.007825032230
         H           -3.486875975292    -1.833566423754    -1.185046644281     1.007825032230
         H           -0.298839975292     2.713616576246    -0.525911644281     1.007825032230
         H           -2.848870975292     2.400180576246     0.507751355719     1.007825032230
         H            0.432996024708    -1.962999423754     0.568156355719     1.007825032230
         H           -2.435188975292    -3.797994423754    -0.544144644281     1.007825032230
         H            2.827797024708    -2.644960423754     0.073010355719     1.007825032230
         H            5.123865024708    -1.670423423754    -0.163325644281     1.007825032230
         H            5.318499024708    -0.019616423754    -0.569205644281     1.007825032230

  Basis Set: AUG-CC-PVTZ
    Blend: AUG-CC-PVTZ
  Basis Set: (AUG-CC-PVTZ AUX)
    Blend: AUG-CC-PVTZ-JKFIT
	 Reference Energy          =    -886.3728227621335236 [Eh]
	 Singles Energy            =      -0.0000000000000000 [Eh]
	 Same-Spin Energy          =      -0.9013694108497422 [Eh]
	 Opposite-Spin Energy      =      -2.7151579122650404 [Eh]
	 Correlation Energy        =      -3.6165273231147825 [Eh]
	 Total Energy              =    -889.9893500852483612 [Eh]

	 ================> DF-SCS-MP2 Energies <==================
	-----------------------------------------------------------
	 SCS Same-Spin Scale       =       0.3333333333333333 [-]
	 SCS Opposite-Spin Scale   =       1.2000000000000000 [-]
	 SCS Same-Spin Energy      =      -0.3004564702832474 [Eh]
	 SCS Opposite-Spin Energy  =      -3.2581894947180485 [Eh]
	 SCS Correlation Energy    =      -3.5586459650012960 [Eh]
	 SCS Total Energy          =    -889.9314687271348703 [Eh]
	-----------------------------------------------------------

  Dipole Moment: [D]
     X:     1.6510      Y:    -5.9298      Z:    -1.8415     Total:     6.4249

*** Psi4 exiting successfully. Buy a developer a beer!
