                               Psi4 1.3.2 release

  ==> Input File <==

--------------------------------------------------------------------------
#psi4
#
memory 32 gb

molecule  {
0 1
  O       -1.2481010    -0.6526680     1.0325150
  O       -1.2449750     2.4828510    -0.6861630
  O       -3.2165300     1.5210990     0.7448870
  O       -2.3570290    -3.0668370     0.0949400
  O        1.3605300     2.2470340    -0.0765420
  N        0.8434040     0.0452230     0.2559430
  N        3.0572260     0.7205030    -0.2937270
  N        4.7164630    -0.8366550    -0.5722980
  C       -1.2894840     1.0784300    -0.5920770
  C       -2.7151710     0.6552070    -0.2573930
  C       -0.5254080     0.4815200     0.6000940
  C       -2.5292560    -0.7168860     0.3610560
  C       -2.5283440    -1.8503930    -0.6392900
  C        1.2197750    -1.2614080     0.3112740
  C        1.7555940     1.0674350    -0.0594030
  C        2.5111010    -1.6091400     0.0469950
  C        3.4027321    -0.5424714    -0.2576066
  H       -0.9376060     0.5914040    -1.5148910
  H       -3.3625820     0.6426650    -1.1464650
  H       -0.4402900     1.2218800     1.4039980
  H       -3.2819570    -0.9087340     1.1307830
  H       -1.7133080    -1.7003050    -1.3694640
  H       -3.4855610    -1.8340040    -1.1841350
  H       -0.2975250     2.7131790    -0.5250000
  H       -2.8475560     2.3997430     0.5086630
  H        0.4343110    -1.9634370     0.5690680
  H       -2.4338740    -3.7984320    -0.5432330
  H        2.8202979    -2.6480012     0.0761732
  H        5.1251800    -1.6708610    -0.1624140
  H        5.3198140    -0.0200540    -0.5682940
units angstrom
no_reorient  #important for SAPT in psi4, default
symmetry c1  #important for SAPT in psi4, default
}

set PROPERTIES_ORIGIN ["COM"]
properties('MP2/aug-cc-pvtz', properties = ['dipole'])
--------------------------------------------------------------------------

    Molecular point group: c1
  Charge       = 0
  Multiplicity = 1
  Basis Set: AUG-CC-PVTZ
    Blend: AUG-CC-PVTZ
  Basis Set: (AUG-CC-PVTZ AUX)
    Blend: AUG-CC-PVTZ-JKFIT

    Orbital Energies [Eh]
    ---------------------

    Doubly Occupied:

       1A    -20.582395     2A    -20.581902     3A    -20.558049
       4A    -20.557667     5A    -20.523258     6A    -15.637434
       7A    -15.597640     8A    -15.554441     9A    -11.389504
      10A    -11.357379    11A    -11.341974    12A    -11.328216
      13A    -11.301369    14A    -11.297167    15A    -11.297004
      16A    -11.293238    17A    -11.248636    18A     -1.429825
      19A     -1.397545    20A     -1.380433    21A     -1.373037
      22A     -1.346674    23A     -1.306649    24A     -1.272641
      25A     -1.182791    26A     -1.082472    27A     -1.068003
      28A     -1.021621    29A     -0.935540    30A     -0.909826
      31A     -0.878065    32A     -0.832553    33A     -0.812042
      34A     -0.766344    35A     -0.752937    36A     -0.736549
      37A     -0.718497    38A     -0.702713    39A     -0.698639
      40A     -0.685154    41A     -0.672435    42A     -0.655038
      43A     -0.652191    44A     -0.639355    45A     -0.620872
      46A     -0.614856    47A     -0.606269    48A     -0.594234
      49A     -0.576005    50A     -0.569803    51A     -0.554167
      52A     -0.545610    53A     -0.537639    54A     -0.531230
      55A     -0.498641    56A     -0.477742    57A     -0.474783
      58A     -0.462787    59A     -0.461355    60A     -0.453179
      61A     -0.441029    62A     -0.434421    63A     -0.396697
      64A     -0.350344

  @DF-RHF Final Energy:  -886.37344412715640

   => Energetics <=

    Nuclear Repulsion Energy =           1323.8995518738031478
    One-Electron Energy =               -3845.4289934770422406
    Two-Electron Energy =                1635.1559974760828027
    Total Energy =                       -886.3734441271565174
  Basis Set: (AUG-CC-PVTZ AUX)
    Blend: AUG-CC-PVTZ-RI
    Molecular point group: c1

    Geometry (in Angstrom), charge = 0, multiplicity = 1:

       Center              X                  Y                   Z               Mass
    ------------   -----------------  -----------------  -----------------  -----------------
         O           -1.247607817103    -0.653061084562     1.032440590808    15.994914619570
         O           -1.244481817103     2.482457915438    -0.686237409192    15.994914619570
         O           -3.216036817103     1.520705915438     0.744812590808    15.994914619570
         O           -2.356535817103    -3.067230084562     0.094865590808    15.994914619570
         O            1.361023182897     2.246640915438    -0.076616409192    15.994914619570
         N            0.843897182897     0.044829915438     0.255868590808    14.003074004430
         N            3.057719182897     0.720109915438    -0.293801409192    14.003074004430
         N            4.716956182897    -0.837048084562    -0.572372409192    14.003074004430
         C           -1.288990817103     1.078036915438    -0.592151409192    12.000000000000
         C           -2.714677817103     0.654813915438    -0.257467409192    12.000000000000
         C           -0.524914817103     0.481126915438     0.600019590808    12.000000000000
         C           -2.528762817103    -0.717279084562     0.360981590808    12.000000000000
         C           -2.527850817103    -1.850786084562    -0.639364409192    12.000000000000
         C            1.220268182897    -1.261801084562     0.311199590808    12.000000000000
         C            1.756087182897     1.067041915438    -0.059477409192    12.000000000000
         C            2.511594182897    -1.609533084562     0.046920590808    12.000000000000
         C            3.403225282897    -0.542864484562    -0.257681009192    12.000000000000
         H           -0.937112817103     0.591010915438    -1.514965409192     1.007825032230
         H           -3.362088817103     0.642271915438    -1.146539409192     1.007825032230
         H           -0.439796817103     1.221486915438     1.403923590808     1.007825032230
         H           -3.281463817103    -0.909127084562     1.130708590808     1.007825032230
         H           -1.712814817103    -1.700698084562    -1.369538409192     1.007825032230
         H           -3.485067817103    -1.834397084562    -1.184209409192     1.007825032230
         H           -0.297031817103     2.712785915438    -0.525074409192     1.007825032230
         H           -2.847062817103     2.399349915438     0.508588590808     1.007825032230
         H            0.434804182897    -1.963830084562     0.568993590808     1.007825032230
         H           -2.433380817103    -3.798825084562    -0.543307409192     1.007825032230
         H            2.820791082897    -2.648394284562     0.076098790808     1.007825032230
         H            5.125673182897    -1.671254084562    -0.162488409192     1.007825032230
         H            5.320307182897    -0.020447084562    -0.568368409192     1.007825032230

  Basis Set: AUG-CC-PVTZ
    Blend: AUG-CC-PVTZ
  Basis Set: (AUG-CC-PVTZ AUX)
    Blend: AUG-CC-PVTZ-JKFIT
	 Reference Energy          =    -886.3734441271564037 [Eh]
	 Singles Energy            =      -0.0000000000000000 [Eh]
	 Same-Spin Energy          =      -0.9011474009502861 [Eh]
	 Opposite-Spin Energy      =      -2.7148631455903667 [Eh]
	 Correlation Energy        =      -3.6160105465406529 [Eh]
	 Total Energy              =    -889.9894546736970824 [Eh]

	 ================> DF-SCS-MP2 Energies <==================
	-----------------------------------------------------------
	 SCS Same-Spin Scale       =       0.3333333333333333 [-]
	 SCS Opposite-Spin Scale   =       1.2000000000000000 [-]
	 SCS Same-Spin Energy      =      -0.3003824669834287 [Eh]
	 SCS Opposite-Spin Energy  =      -3.2578357747084401 [Eh]
	 SCS Correlation Energy    =      -3.5582182416918688 [Eh]
	 SCS Total Energy          =    -889.9316623688482650 [Eh]
	-----------------------------------------------------------

  Dipole Moment: [D]
     X:     1.6073      Y:    -5.8966      Z:    -1.8050     Total:     6.3727

*** Psi4 exiting successfully. Buy a developer a beer!
