                               Psi4 1.3.2 release

  ==> Input File <==

--------------------------------------------------------------------------
#psi4
#
memory 32 gb

molecule  {
0 1
  O       -1.2481010    -0.6526680     1.0325150
  O       -1.2449750     2.4828510    -0.6861630
  O       -3.2165300     1.5210990     0.7448870
  O       -2.3570290    -3.0668370     0.0949400
  O        1.3605300     2.2470340    -0.0765420
  N        0.8434040     0.0452230     0.2559430
  N        3.0572260     0.7205030    -0.2937270
  N        4.7164630    -0.8366550    -0.5722980
  C       -1.2894840     1.0784300    -0.5920770
  C       -2.7151710     0.6552070    -0.2573930
  C       -0.5254080     0.4815200     0.6000940
  C       -2.5292560    -0.7168860     0.3610560
  C       -2.5283440    -1.8503930    -0.6392900
  C        1.2197750    -1.2614080     0.3112740
  C        1.7555940     1.0674350    -0.0594030
  C        2.5111010    -1.6091400     0.0469950
  C        3.4119830    -0.5506530    -0.2589250
  H       -0.9376060     0.5914040    -1.5148910
  H       -3.3625820     0.6426650    -1.1464650
  H       -0.4402900     1.2218800     1.4039980
  H       -3.2819570    -0.9087340     1.1307830
  H       -1.7133080    -1.7003050    -1.3694640
  H       -3.4855610    -1.8340040    -1.1841350
  H       -0.2975250     2.7131790    -0.5250000
  H       -2.8475560     2.3997430     0.5086630
  H        0.4343110    -1.9634370     0.5690680
  H       -2.4338740    -3.7984320    -0.5432330
  H        2.8291120    -2.6453980     0.0739220
  H        5.0446731    -1.5065436    -0.2431508
  H        5.3198140    -0.0200540    -0.5682940
units angstrom
no_reorient  #important for SAPT in psi4, default
symmetry c1  #important for SAPT in psi4, default
}

set PROPERTIES_ORIGIN ["COM"]
properties('MP2/aug-cc-pvtz', properties = ['dipole'])
--------------------------------------------------------------------------

    Molecular point group: c1
  Charge       = 0
  Multiplicity = 1
  Basis Set: AUG-CC-PVTZ
    Blend: AUG-CC-PVTZ
  Basis Set: (AUG-CC-PVTZ AUX)
    Blend: AUG-CC-PVTZ-JKFIT

    Orbital Energies [Eh]
    ---------------------

    Doubly Occupied:

       1A    -20.582537     2A    -20.582099     3A    -20.558135
       4A    -20.557673     5A    -20.522648     6A    -15.637960
       7A    -15.578437     8A    -15.554085     9A    -11.388847
      10A    -11.358669    11A    -11.342144    12A    -11.329656
      13A    -11.301519    14A    -11.297307    15A    -11.297127
      16A    -11.293350    17A    -11.249595    18A     -1.429910
      19A     -1.397130    20A     -1.380511    21A     -1.373162
      22A     -1.346745    23A     -1.316173    24A     -1.284728
      25A     -1.201457    26A     -1.083552    27A     -1.068160
      28A     -1.023520    29A     -0.940502    30A     -0.910374
      31A     -0.890232    32A     -0.836044    33A     -0.812580
      34A     -0.778290    35A     -0.756698    36A     -0.737140
      37A     -0.733659    38A     -0.704924    39A     -0.700847
      40A     -0.698855    41A     -0.673422    42A     -0.657619
      43A     -0.652205    44A     -0.639323    45A     -0.622884
      46A     -0.615438    47A     -0.607538    48A     -0.594864
      49A     -0.576325    50A     -0.570459    51A     -0.554677
      52A     -0.546702    53A     -0.538379    54A     -0.532962
      55A     -0.498755    56A     -0.477887    57A     -0.474875
      58A     -0.462720    59A     -0.460639    60A     -0.453258
      61A     -0.441667    62A     -0.434014    63A     -0.397942
      64A     -0.350892

  @DF-RHF Final Energy:  -886.32996313034278

   => Energetics <=

    Nuclear Repulsion Energy =           1325.0398080668628609
    One-Electron Energy =               -3847.3946907198546796
    Two-Electron Energy =                1636.0249195226490428
    Total Energy =                       -886.3299631303427759
  Basis Set: (AUG-CC-PVTZ AUX)
    Blend: AUG-CC-PVTZ-RI
    Molecular point group: c1

    Geometry (in Angstrom), charge = 0, multiplicity = 1:

       Center              X                  Y                   Z               Mass
    ------------   -----------------  -----------------  -----------------  -----------------
         O           -1.247767254825    -0.653349244708     1.032849739751    15.994914619570
         O           -1.244641254825     2.482169755292    -0.685828260249    15.994914619570
         O           -3.216196254825     1.520417755292     0.745221739751    15.994914619570
         O           -2.356695254825    -3.067518244708     0.095274739751    15.994914619570
         O            1.360863745175     2.246352755292    -0.076207260249    15.994914619570
         N            0.843737745175     0.044541755292     0.256277739751    14.003074004430
         N            3.057559745175     0.719821755292    -0.293392260249    14.003074004430
         N            4.716796745175    -0.837336244708    -0.571963260249    14.003074004430
         C           -1.289150254825     1.077748755292    -0.591742260249    12.000000000000
         C           -2.714837254825     0.654525755292    -0.257058260249    12.000000000000
         C           -0.525074254825     0.480838755292     0.600428739751    12.000000000000
         C           -2.528922254825    -0.717567244708     0.361390739751    12.000000000000
         C           -2.528010254825    -1.851074244708    -0.638955260249    12.000000000000
         C            1.220108745175    -1.262089244708     0.311608739751    12.000000000000
         C            1.755927745175     1.066753755292    -0.059068260249    12.000000000000
         C            2.511434745175    -1.609821244708     0.047329739751    12.000000000000
         C            3.412316745175    -0.551334244708    -0.258590260249    12.000000000000
         H           -0.937272254825     0.590722755292    -1.514556260249     1.007825032230
         H           -3.362248254825     0.641983755292    -1.146130260249     1.007825032230
         H           -0.439956254825     1.221198755292     1.404332739751     1.007825032230
         H           -3.281623254825    -0.909415244708     1.131117739751     1.007825032230
         H           -1.712974254825    -1.700986244708    -1.369129260249     1.007825032230
         H           -3.485227254825    -1.834685244708    -1.183800260249     1.007825032230
         H           -0.297191254825     2.712497755292    -0.524665260249     1.007825032230
         H           -2.847222254825     2.399061755292     0.508997739751     1.007825032230
         H            0.434644745175    -1.964118244708     0.569402739751     1.007825032230
         H           -2.433540254825    -3.799113244708    -0.542898260249     1.007825032230
         H            2.829445745175    -2.646079244708     0.074256739751     1.007825032230
         H            5.045006845175    -1.507224844708    -0.242816060249     1.007825032230
         H            5.320147745175    -0.020735244708    -0.567959260249     1.007825032230

  Basis Set: AUG-CC-PVTZ
    Blend: AUG-CC-PVTZ
  Basis Set: (AUG-CC-PVTZ AUX)
    Blend: AUG-CC-PVTZ-JKFIT
	 Reference Energy          =    -886.3299631303427759 [Eh]
	 Singles Energy            =      -0.0000000000000000 [Eh]
	 Same-Spin Energy          =      -0.9002645987827335 [Eh]
	 Opposite-Spin Energy      =      -2.7124022523552327 [Eh]
	 Correlation Energy        =      -3.6126668511379663 [Eh]
	 Total Energy              =    -889.9426299814807635 [Eh]

	 ================> DF-SCS-MP2 Energies <==================
	-----------------------------------------------------------
	 SCS Same-Spin Scale       =       0.3333333333333333 [-]
	 SCS Opposite-Spin Scale   =       1.2000000000000000 [-]
	 SCS Same-Spin Energy      =      -0.3000881995942445 [Eh]
	 SCS Opposite-Spin Energy  =      -3.2548827028262792 [Eh]
	 SCS Correlation Energy    =      -3.5549709024205236 [Eh]
	 SCS Total Energy          =    -889.8849340327633399 [Eh]
	-----------------------------------------------------------

  Dipole Moment: [D]
     X:     1.5699      Y:    -5.8072      Z:    -1.8635     Total:     6.2976

*** Psi4 exiting successfully. Buy a developer a beer!
