                               Psi4 1.4a3.dev225

  ==> Input File <==

--------------------------------------------------------------------------
#psi4
#
memory 32 gb

molecule  {
0 1
  O       -1.3191770     0.6538360    -1.0992360
  O       -1.5735610    -2.4640850     0.5135810
  O       -3.5606630    -1.0699430    -0.4600060
  O       -1.4399290     3.1254620     0.1265180
  O        1.1065530    -2.3833650     0.0076020
  N        0.7686360    -0.1579440    -0.3706350
  N        2.9363770    -0.9938720     0.1460080
  N        4.7058880     0.4431110     0.3611260
  C       -1.3768610    -1.0680440     0.5552780
  C       -2.7379840    -0.3746360     0.4578480
  C       -0.6377490    -0.5042940    -0.6790150
  C       -2.3707440     0.9655450    -0.1585060
  C       -1.8992030     1.9895750     0.8571380
  C        1.2309690     1.1190800    -0.4442230
  C        1.5618899    -1.2563312    -0.0660683
  C        2.5474650     1.3753690    -0.1998620
  C        3.3802090     0.2523040     0.0808410
  H       -0.8441360    -0.7686950     1.4698480
  H       -3.2257400    -0.2778790     1.4400230
  H       -0.6227070    -1.2428120    -1.4883720
  H       -3.1941750     1.3785730    -0.7472070
  H       -1.0952130     1.5703990     1.4802000
  H       -2.7410530     2.2466610     1.5166010
  H       -0.6710550    -2.8260740     0.3542250
  H       -3.3063470    -2.0105220    -0.3629290
  H        0.4929290     1.8778260    -0.6840360
  H       -1.2098800     3.8154810     0.7720340
  H        2.9334840     2.3875570    -0.2389120
  H        5.1589650     1.2712730    -0.0008400
  H        5.2635310    -0.4031270     0.3606700
units angstrom
no_reorient  #important for SAPT in psi4, default
symmetry c1  #important for SAPT in psi4, default
}

set PROPERTIES_ORIGIN ["COM"]
properties('MP2/aug-cc-pvtz', properties = ['dipole'])
--------------------------------------------------------------------------

    Molecular point group: c1
  Charge       = 0
  Multiplicity = 1
  Basis Set: AUG-CC-PVTZ
    Blend: AUG-CC-PVTZ
  Basis Set: (AUG-CC-PVTZ AUX)
    Blend: AUG-CC-PVTZ-JKFIT

    Orbital Energies [Eh]
    ---------------------

    Doubly Occupied:

       1A    -20.586982     2A    -20.582222     3A    -20.562033
       4A    -20.557753     5A    -20.527988     6A    -15.633261
       7A    -15.594943     8A    -15.548699     9A    -11.386363
      10A    -11.351281    11A    -11.340774    12A    -11.323714
      13A    -11.304083    14A    -11.298948    15A    -11.298785
      16A    -11.294889    17A    -11.245882    18A     -1.432609
      19A     -1.406513    20A     -1.384404    21A     -1.377114
      22A     -1.348639    23A     -1.306694    24A     -1.271523
      25A     -1.167802    26A     -1.078962    27A     -1.069203
      28A     -1.018672    29A     -0.936235    30A     -0.911033
      31A     -0.870908    32A     -0.828629    33A     -0.813389
      34A     -0.762579    35A     -0.751676    36A     -0.737454
      37A     -0.721437    38A     -0.708664    39A     -0.703911
      40A     -0.683661    41A     -0.675822    42A     -0.654235
      43A     -0.653105    44A     -0.634208    45A     -0.623569
      46A     -0.614769    47A     -0.607207    48A     -0.595574
      49A     -0.577724    50A     -0.564821    51A     -0.556547
      52A     -0.549334    53A     -0.539154    54A     -0.533803
      55A     -0.498856    56A     -0.481514    57A     -0.475126
      58A     -0.467539    59A     -0.461185    60A     -0.454481
      61A     -0.443246    62A     -0.424518    63A     -0.387540
      64A     -0.347774

  @DF-RHF Final Energy:  -886.37176860798058

   => Energetics <=

    Nuclear Repulsion Energy =           1335.0373684855183001
    One-Electron Energy =               -3867.7143441626189997
    Two-Electron Energy =                1646.3052070691203426
    Total Energy =                       -886.3717686079805844
  Basis Set: (AUG-CC-PVTZ AUX)
    Blend: AUG-CC-PVTZ-RI
    Molecular point group: c1

    Geometry (in Angstrom), charge = 0, multiplicity = 1:

       Center              X                  Y                   Z               Mass
    ------------   -----------------  -----------------  -----------------  -----------------
         O           -1.329523567554     0.682905192076    -1.083085929137    15.994914619570
         O           -1.583907567554    -2.435015807924     0.529731070863    15.994914619570
         O           -3.571009567554    -1.040873807924    -0.443855929137    15.994914619570
         O           -1.450275567554     3.154531192076     0.142668070863    15.994914619570
         O            1.096206432446    -2.354295807924     0.023752070863    15.994914619570
         N            0.758289432446    -0.128874807924    -0.354484929137    14.003074004430
         N            2.926030432446    -0.964802807924     0.162158070863    14.003074004430
         N            4.695541432446     0.472180192076     0.377276070863    14.003074004430
         C           -1.387207567554    -1.038974807924     0.571428070863    12.000000000000
         C           -2.748330567554    -0.345566807924     0.473998070863    12.000000000000
         C           -0.648095567554    -0.475224807924    -0.662864929137    12.000000000000
         C           -2.381090567554     0.994614192076    -0.142355929137    12.000000000000
         C           -1.909549567554     2.018644192076     0.873288070863    12.000000000000
         C            1.220622432446     1.148149192076    -0.428072929137    12.000000000000
         C            1.551543332446    -1.227262007924    -0.049918229137    12.000000000000
         C            2.537118432446     1.404438192076    -0.183711929137    12.000000000000
         C            3.369862432446     0.281373192076     0.096991070863    12.000000000000
         H           -0.854482567554    -0.739625807924     1.485998070863     1.007825032230
         H           -3.236086567554    -0.248809807924     1.456173070863     1.007825032230
         H           -0.633053567554    -1.213742807924    -1.472221929137     1.007825032230
         H           -3.204521567554     1.407642192076    -0.731056929137     1.007825032230
         H           -1.105559567554     1.599468192076     1.496350070863     1.007825032230
         H           -2.751399567554     2.275730192076     1.532751070863     1.007825032230
         H           -0.681401567554    -2.797004807924     0.370375070863     1.007825032230
         H           -3.316693567554    -1.981452807924    -0.346778929137     1.007825032230
         H            0.482582432446     1.906895192076    -0.667885929137     1.007825032230
         H           -1.220226567554     3.844550192076     0.788184070863     1.007825032230
         H            2.923137432446     2.416626192076    -0.222761929137     1.007825032230
         H            5.148618432446     1.300342192076     0.015310070863     1.007825032230
         H            5.253184432446    -0.374057807924     0.376820070863     1.007825032230

  Basis Set: AUG-CC-PVTZ
    Blend: AUG-CC-PVTZ
  Basis Set: (AUG-CC-PVTZ AUX)
    Blend: AUG-CC-PVTZ-JKFIT
	 Reference Energy          =    -886.3717686079805844 [Eh]
	 Singles Energy            =      -0.0000000000000000 [Eh]
	 Same-Spin Energy          =      -0.9014929071535633 [Eh]
	 Opposite-Spin Energy      =      -2.7160072845709662 [Eh]
	 Correlation Energy        =      -3.6175001917245293 [Eh]
	 Total Energy              =    -889.9892687997050871 [Eh]

	 ================> DF-SCS-MP2 Energies <==================
	-----------------------------------------------------------
	 SCS Same-Spin Scale       =       0.3333333333333333 [-]
	 SCS Opposite-Spin Scale   =       1.2000000000000000 [-]
	 SCS Same-Spin Energy      =      -0.3004976357178544 [Eh]
	 SCS Opposite-Spin Energy  =      -3.2592087414851592 [Eh]
	 SCS Correlation Energy    =      -3.5597063772030135 [Eh]
	 SCS Total Energy          =    -889.9314749851836268 [Eh]
	-----------------------------------------------------------

  Dipole Moment: [D]
     X:     2.3953      Y:     5.5910      Z:     1.9259     Total:     6.3801

*** Psi4 exiting successfully. Buy a developer a beer!
