                               Psi4 1.3.2 release

  ==> Input File <==

--------------------------------------------------------------------------
#psi4
#
memory 32 gb

molecule  {
0 1
  O       -1.2481010    -0.6526680     1.0325150
  O       -1.2449750     2.4828510    -0.6861630
  O       -3.2165300     1.5210990     0.7448870
  O       -2.3570290    -3.0668370     0.0949400
  O        1.3605300     2.2470340    -0.0765420
  N        0.8434040     0.0452230     0.2559430
  N        3.0572260     0.7205030    -0.2937270
  N        4.7164630    -0.8366550    -0.5722980
  C       -1.2894840     1.0784300    -0.5920770
  C       -2.7151710     0.6552070    -0.2573930
  C       -0.5254080     0.4815200     0.6000940
  C       -2.5292560    -0.7168860     0.3610560
  C       -2.5283440    -1.8503930    -0.6392900
  C        1.2197750    -1.2614080     0.3112740
  C        1.7555940     1.0674350    -0.0594030
  C        2.5111010    -1.6091400     0.0469950
  C        3.4119830    -0.5506530    -0.2589250
  H       -0.9056514     0.5471764    -1.5986933
  H       -3.3625820     0.6426650    -1.1464650
  H       -0.4402900     1.2218800     1.4039980
  H       -3.2819570    -0.9087340     1.1307830
  H       -1.7133080    -1.7003050    -1.3694640
  H       -3.4855610    -1.8340040    -1.1841350
  H       -0.2975250     2.7131790    -0.5250000
  H       -2.8475560     2.3997430     0.5086630
  H        0.4343110    -1.9634370     0.5690680
  H       -2.4338740    -3.7984320    -0.5432330
  H        2.8291120    -2.6453980     0.0739220
  H        5.1251800    -1.6708610    -0.1624140
  H        5.3198140    -0.0200540    -0.5682940
units angstrom
no_reorient  #important for SAPT in psi4, default
symmetry c1  #important for SAPT in psi4, default
}

set PROPERTIES_ORIGIN ["COM"]
properties('MP2/aug-cc-pvtz', properties = ['dipole'])
--------------------------------------------------------------------------

    Molecular point group: c1
  Charge       = 0
  Multiplicity = 1
  Basis Set: AUG-CC-PVTZ
    Blend: AUG-CC-PVTZ
  Basis Set: (AUG-CC-PVTZ AUX)
    Blend: AUG-CC-PVTZ-JKFIT

    Orbital Energies [Eh]
    ---------------------

    Doubly Occupied:

       1A    -20.582031     2A    -20.581866     3A    -20.559744
       4A    -20.558834     5A    -20.522010     6A    -15.636804
       7A    -15.599758     8A    -15.553247     9A    -11.388226
      10A    -11.357756    11A    -11.342928    12A    -11.328422
      13A    -11.308381    14A    -11.300619    15A    -11.297131
      16A    -11.293993    17A    -11.248420    18A     -1.429704
      19A     -1.396432    20A     -1.381044    21A     -1.372841
      22A     -1.347556    23A     -1.305990    24A     -1.273706
      25A     -1.182162    26A     -1.081748    27A     -1.066926
      28A     -1.019675    29A     -0.935410    30A     -0.909261
      31A     -0.876646    32A     -0.829024    33A     -0.810949
      34A     -0.766541    35A     -0.752278    36A     -0.734510
      37A     -0.719045    38A     -0.703156    39A     -0.695316
      40A     -0.685298    41A     -0.671409    42A     -0.654105
      43A     -0.651173    44A     -0.636132    45A     -0.620807
      46A     -0.614113    47A     -0.605688    48A     -0.593798
      49A     -0.575484    50A     -0.570044    51A     -0.554031
      52A     -0.544912    53A     -0.538080    54A     -0.531875
      55A     -0.498238    56A     -0.477557    57A     -0.473634
      58A     -0.462529    59A     -0.460060    60A     -0.449124
      61A     -0.440453    62A     -0.432898    63A     -0.395238
      64A     -0.349993

  @DF-RHF Final Energy:  -886.36654990166892

   => Energetics <=

    Nuclear Repulsion Energy =           1323.1595271948044683
    One-Electron Energy =               -3843.9786203389458024
    Two-Electron Energy =                1634.4525432424723022
    Total Energy =                       -886.3665499016690319
  Basis Set: (AUG-CC-PVTZ AUX)
    Blend: AUG-CC-PVTZ-RI
    Molecular point group: c1

    Geometry (in Angstrom), charge = 0, multiplicity = 1:

       Center              X                  Y                   Z               Mass
    ------------   -----------------  -----------------  -----------------  -----------------
         O           -1.248233516717    -0.652484623603     1.032862449219    15.994914619570
         O           -1.245107516717     2.483034376397    -0.685815550781    15.994914619570
         O           -3.216662516717     1.521282376397     0.745234449219    15.994914619570
         O           -2.357161516717    -3.066653623603     0.095287449219    15.994914619570
         O            1.360397483283     2.247217376397    -0.076194550781    15.994914619570
         N            0.843271483283     0.045406376397     0.256290449219    14.003074004430
         N            3.057093483283     0.720686376397    -0.293379550781    14.003074004430
         N            4.716330483283    -0.836471623603    -0.571950550781    14.003074004430
         C           -1.289616516717     1.078613376397    -0.591729550781    12.000000000000
         C           -2.715303516717     0.655390376397    -0.257045550781    12.000000000000
         C           -0.525540516717     0.481703376397     0.600441449219    12.000000000000
         C           -2.529388516717    -0.716702623603     0.361403449219    12.000000000000
         C           -2.528476516717    -1.850209623603    -0.638942550781    12.000000000000
         C            1.219642483283    -1.261224623603     0.311621449219    12.000000000000
         C            1.755461483283     1.067618376397    -0.059055550781    12.000000000000
         C            2.510968483283    -1.608956623603     0.047342449219    12.000000000000
         C            3.411850483283    -0.550469623603    -0.258577550781    12.000000000000
         H           -0.905783916717     0.547359776397    -1.598345850781     1.007825032230
         H           -3.362714516717     0.642848376397    -1.146117550781     1.007825032230
         H           -0.440422516717     1.222063376397     1.404345449219     1.007825032230
         H           -3.282089516717    -0.908550623603     1.131130449219     1.007825032230
         H           -1.713440516717    -1.700121623603    -1.369116550781     1.007825032230
         H           -3.485693516717    -1.833820623603    -1.183787550781     1.007825032230
         H           -0.297657516717     2.713362376397    -0.524652550781     1.007825032230
         H           -2.847688516717     2.399926376397     0.509010449219     1.007825032230
         H            0.434178483283    -1.963253623603     0.569415449219     1.007825032230
         H           -2.434006516717    -3.798248623603    -0.542885550781     1.007825032230
         H            2.828979483283    -2.645214623603     0.074269449219     1.007825032230
         H            5.125047483283    -1.670677623603    -0.162066550781     1.007825032230
         H            5.319681483283    -0.019870623603    -0.567946550781     1.007825032230

  Basis Set: AUG-CC-PVTZ
    Blend: AUG-CC-PVTZ
  Basis Set: (AUG-CC-PVTZ AUX)
    Blend: AUG-CC-PVTZ-JKFIT
	 Reference Energy          =    -886.3665499016689182 [Eh]
	 Singles Energy            =      -0.0000000000000000 [Eh]
	 Same-Spin Energy          =      -0.9015320540314502 [Eh]
	 Opposite-Spin Energy      =      -2.7159955487335159 [Eh]
	 Correlation Energy        =      -3.6175276027649659 [Eh]
	 Total Energy              =    -889.9840775044339125 [Eh]

	 ================> DF-SCS-MP2 Energies <==================
	-----------------------------------------------------------
	 SCS Same-Spin Scale       =       0.3333333333333333 [-]
	 SCS Opposite-Spin Scale   =       1.2000000000000000 [-]
	 SCS Same-Spin Energy      =      -0.3005106846771500 [Eh]
	 SCS Opposite-Spin Energy  =      -3.2591946584802192 [Eh]
	 SCS Correlation Energy    =      -3.5597053431573693 [Eh]
	 SCS Total Energy          =    -889.9262552448262795 [Eh]
	-----------------------------------------------------------

  Dipole Moment: [D]
     X:     1.6904      Y:    -5.8874      Z:    -1.7730     Total:     6.3767

*** Psi4 exiting successfully. Buy a developer a beer!
