                               Psi4 1.4a3.dev225

  ==> Input File <==

--------------------------------------------------------------------------
#psi4
#
memory 32 gb

molecule  {
0 1
  O       -1.3191770     0.6538360    -1.0992360
  O       -1.5735610    -2.4640850     0.5135810
  O       -3.5606630    -1.0699430    -0.4600060
  O       -1.4399290     3.1254620     0.1265180
  O        1.1065530    -2.3833650     0.0076020
  N        0.7686360    -0.1579440    -0.3706350
  N        2.9363770    -0.9938720     0.1460080
  N        4.7058880     0.4431110     0.3611260
  C       -1.3768610    -1.0680440     0.5552780
  C       -2.7379840    -0.3746360     0.4578480
  C       -0.6377490    -0.5042940    -0.6790150
  C       -2.3707440     0.9655450    -0.1585060
  C       -1.8992030     1.9895750     0.8571380
  C        1.2309690     1.1190800    -0.4442230
  C        1.6104480    -1.2470590    -0.0585760
  C        2.5474650     1.3753690    -0.1998620
  C        3.3802090     0.2523040     0.0808410
  H       -0.8441360    -0.7686950     1.4698480
  H       -3.2257400    -0.2778790     1.4400230
  H       -0.6227070    -1.2428120    -1.4883720
  H       -3.2318347     1.3974629    -0.7741313
  H       -1.0952130     1.5703990     1.4802000
  H       -2.7410530     2.2466610     1.5166010
  H       -0.6710550    -2.8260740     0.3542250
  H       -3.3063470    -2.0105220    -0.3629290
  H        0.4929290     1.8778260    -0.6840360
  H       -1.2098800     3.8154810     0.7720340
  H        2.9334840     2.3875570    -0.2389120
  H        5.1589650     1.2712730    -0.0008400
  H        5.2635310    -0.4031270     0.3606700
units angstrom
no_reorient  #important for SAPT in psi4, default
symmetry c1  #important for SAPT in psi4, default
}

set PROPERTIES_ORIGIN ["COM"]
properties('MP2/aug-cc-pvtz', properties = ['dipole'])
--------------------------------------------------------------------------

    Molecular point group: c1
  Charge       = 0
  Multiplicity = 1
  Basis Set: AUG-CC-PVTZ
    Blend: AUG-CC-PVTZ
  Basis Set: (AUG-CC-PVTZ AUX)
    Blend: AUG-CC-PVTZ-JKFIT

    Orbital Energies [Eh]
    ---------------------

    Doubly Occupied:

       1A    -20.586661     2A    -20.581949     3A    -20.559506
       4A    -20.556363     5A    -20.519824     6A    -15.633115
       7A    -15.599738     8A    -15.551847     9A    -11.386075
      10A    -11.358150    11A    -11.339857    12A    -11.325215
      13A    -11.304042    14A    -11.303234    15A    -11.297223
      16A    -11.293824    17A    -11.246647    18A     -1.429435
      19A     -1.394173    20A     -1.383012    21A     -1.375620
      22A     -1.346551    23A     -1.303751    24A     -1.271426
      25A     -1.181271    26A     -1.079345    27A     -1.067224
      28A     -1.016638    29A     -0.936676    30A     -0.906486
      31A     -0.876449    32A     -0.829594    33A     -0.809773
      34A     -0.766374    35A     -0.750463    36A     -0.734326
      37A     -0.722078    38A     -0.706632    39A     -0.702674
      40A     -0.685059    41A     -0.675166    42A     -0.653465
      43A     -0.649125    44A     -0.633488    45A     -0.620363
      46A     -0.615050    47A     -0.607164    48A     -0.593021
      49A     -0.576957    50A     -0.561206    51A     -0.555902
      52A     -0.548075    53A     -0.536617    54A     -0.530413
      55A     -0.495317    56A     -0.480802    57A     -0.472463
      58A     -0.463192    59A     -0.458039    60A     -0.452989
      61A     -0.442130    62A     -0.430234    63A     -0.392341
      64A     -0.348332

  @DF-RHF Final Energy:  -886.37178594174554

   => Energetics <=

    Nuclear Repulsion Energy =           1334.2478441060825389
    One-Electron Energy =               -3866.2189584442116939
    Two-Electron Energy =                1645.5993283963837257
    Total Energy =                       -886.3717859417454292
  Basis Set: (AUG-CC-PVTZ AUX)
    Blend: AUG-CC-PVTZ-RI
    Molecular point group: c1

    Geometry (in Angstrom), charge = 0, multiplicity = 1:

       Center              X                  Y                   Z               Mass
    ------------   -----------------  -----------------  -----------------  -----------------
         O           -1.331764518848     0.682369149807    -1.083344161780    15.994914619570
         O           -1.586148518848    -2.435551850193     0.529472838220    15.994914619570
         O           -3.573250518848    -1.041409850193    -0.444114161780    15.994914619570
         O           -1.452516518848     3.153995149807     0.142409838220    15.994914619570
         O            1.093965481152    -2.354831850193     0.023493838220    15.994914619570
         N            0.756048481152    -0.129410850193    -0.354743161780    14.003074004430
         N            2.923789481152    -0.965338850193     0.161899838220    14.003074004430
         N            4.693300481152     0.471644149807     0.377017838220    14.003074004430
         C           -1.389448518848    -1.039510850193     0.571169838220    12.000000000000
         C           -2.750571518848    -0.346102850193     0.473739838220    12.000000000000
         C           -0.650336518848    -0.475760850193    -0.663123161780    12.000000000000
         C           -2.383331518848     0.994078149807    -0.142614161780    12.000000000000
         C           -1.911790518848     2.018108149807     0.873029838220    12.000000000000
         C            1.218381481152     1.147613149807    -0.428331161780    12.000000000000
         C            1.597860481152    -1.218525850193    -0.042684161780    12.000000000000
         C            2.534877481152     1.403902149807    -0.183970161780    12.000000000000
         C            3.367621481152     0.280837149807     0.096732838220    12.000000000000
         H           -0.856723518848    -0.740161850193     1.485739838220     1.007825032230
         H           -3.238327518848    -0.249345850193     1.455914838220     1.007825032230
         H           -0.635294518848    -1.214278850193    -1.472480161780     1.007825032230
         H           -3.244422218848     1.425996049807    -0.758239461780     1.007825032230
         H           -1.107800518848     1.598932149807     1.496091838220     1.007825032230
         H           -2.753640518848     2.275194149807     1.532492838220     1.007825032230
         H           -0.683642518848    -2.797540850193     0.370116838220     1.007825032230
         H           -3.318934518848    -1.981988850193    -0.347037161780     1.007825032230
         H            0.480341481152     1.906359149807    -0.668144161780     1.007825032230
         H           -1.222467518848     3.844014149807     0.787925838220     1.007825032230
         H            2.920896481152     2.416090149807    -0.223020161780     1.007825032230
         H            5.146377481152     1.299806149807     0.015051838220     1.007825032230
         H            5.250943481152    -0.374593850193     0.376561838220     1.007825032230

  Basis Set: AUG-CC-PVTZ
    Blend: AUG-CC-PVTZ
  Basis Set: (AUG-CC-PVTZ AUX)
    Blend: AUG-CC-PVTZ-JKFIT
	 Reference Energy          =    -886.3717859417455429 [Eh]
	 Singles Energy            =      -0.0000000000000000 [Eh]
	 Same-Spin Energy          =      -0.9019500953582711 [Eh]
	 Opposite-Spin Energy      =      -2.7164112528229110 [Eh]
	 Correlation Energy        =      -3.6183613481811818 [Eh]
	 Total Energy              =    -889.9901472899267674 [Eh]

	 ================> DF-SCS-MP2 Energies <==================
	-----------------------------------------------------------
	 SCS Same-Spin Scale       =       0.3333333333333333 [-]
	 SCS Opposite-Spin Scale   =       1.2000000000000000 [-]
	 SCS Same-Spin Energy      =      -0.3006500317860903 [Eh]
	 SCS Opposite-Spin Energy  =      -3.2596935033874930 [Eh]
	 SCS Correlation Energy    =      -3.5603435351735833 [Eh]
	 SCS Total Energy          =    -889.9321294769191582 [Eh]
	-----------------------------------------------------------

  Dipole Moment: [D]
     X:     2.7538      Y:     5.7901      Z:     1.9474     Total:     6.7008

*** Psi4 exiting successfully. Buy a developer a beer!
