                               Psi4 1.4a3.dev225

  ==> Input File <==

--------------------------------------------------------------------------
#psi4
#
memory 32 gb

molecule  {
0 1
  O       -1.3191770     0.6538360    -1.0992360
  O       -1.5735610    -2.4640850     0.5135810
  O       -3.5606630    -1.0699430    -0.4600060
  O       -1.4399290     3.1254620     0.1265180
  O        1.1065530    -2.3833650     0.0076020
  N        0.7686360    -0.1579440    -0.3706350
  N        2.9363770    -0.9938720     0.1460080
  N        4.7058880     0.4431110     0.3611260
  C       -1.3768610    -1.0680440     0.5552780
  C       -2.7379840    -0.3746360     0.4578480
  C       -0.6281823    -0.4969971    -0.6949910
  C       -2.3707440     0.9655450    -0.1585060
  C       -1.8992030     1.9895750     0.8571380
  C        1.2309690     1.1190800    -0.4442230
  C        1.6104480    -1.2470590    -0.0585760
  C        2.5474650     1.3753690    -0.1998620
  C        3.3802090     0.2523040     0.0808410
  H       -0.8441360    -0.7686950     1.4698480
  H       -3.2257400    -0.2778790     1.4400230
  H       -0.6227070    -1.2428120    -1.4883720
  H       -3.1941750     1.3785730    -0.7472070
  H       -1.0952130     1.5703990     1.4802000
  H       -2.7410530     2.2466610     1.5166010
  H       -0.6710550    -2.8260740     0.3542250
  H       -3.3063470    -2.0105220    -0.3629290
  H        0.4929290     1.8778260    -0.6840360
  H       -1.2098800     3.8154810     0.7720340
  H        2.9334840     2.3875570    -0.2389120
  H        5.1589650     1.2712730    -0.0008400
  H        5.2635310    -0.4031270     0.3606700
units angstrom
no_reorient  #important for SAPT in psi4, default
symmetry c1  #important for SAPT in psi4, default
}

set PROPERTIES_ORIGIN ["COM"]
properties('MP2/aug-cc-pvtz', properties = ['dipole'])
--------------------------------------------------------------------------

    Molecular point group: c1
  Charge       = 0
  Multiplicity = 1
  Basis Set: AUG-CC-PVTZ
    Blend: AUG-CC-PVTZ
  Basis Set: (AUG-CC-PVTZ AUX)
    Blend: AUG-CC-PVTZ-JKFIT

    Orbital Energies [Eh]
    ---------------------

    Doubly Occupied:

       1A    -20.586716     2A    -20.581150     3A    -20.558761
       4A    -20.555963     5A    -20.519915     6A    -15.633288
       7A    -15.599864     8A    -15.552044     9A    -11.386350
      10A    -11.358298    11A    -11.338852    12A    -11.325277
      13A    -11.303529    14A    -11.298171    15A    -11.296862
      16A    -11.292892    17A    -11.246796    18A     -1.429933
      19A     -1.394403    20A     -1.382786    21A     -1.375477
      22A     -1.345921    23A     -1.304040    24A     -1.272241
      25A     -1.181606    26A     -1.079500    27A     -1.067722
      28A     -1.014717    29A     -0.936842    30A     -0.907169
      31A     -0.876900    32A     -0.830569    33A     -0.811481
      34A     -0.767138    35A     -0.750210    36A     -0.734913
      37A     -0.721904    38A     -0.707703    39A     -0.703044
      40A     -0.685488    41A     -0.675676    42A     -0.654108
      43A     -0.649331    44A     -0.633218    45A     -0.620745
      46A     -0.615101    47A     -0.607893    48A     -0.593037
      49A     -0.577167    50A     -0.565680    51A     -0.555631
      52A     -0.548363    53A     -0.535579    54A     -0.531494
      55A     -0.495820    56A     -0.480707    57A     -0.472784
      58A     -0.463538    59A     -0.458034    60A     -0.451812
      61A     -0.440125    62A     -0.430738    63A     -0.392104
      64A     -0.348167

  @DF-RHF Final Energy:  -886.37418857114699

   => Energetics <=

    Nuclear Repulsion Energy =           1334.4410254530257589
    One-Electron Energy =               -3866.6038553709754524
    Two-Electron Energy =                1645.7886413468027058
    Total Energy =                       -886.3741885711469877
  Basis Set: (AUG-CC-PVTZ AUX)
    Blend: AUG-CC-PVTZ-RI
    Molecular point group: c1

    Geometry (in Angstrom), charge = 0, multiplicity = 1:

       Center              X                  Y                   Z               Mass
    ------------   -----------------  -----------------  -----------------  -----------------
         O           -1.332392918220     0.682087252779    -1.082667128380    15.994914619570
         O           -1.586776918220    -2.435833747221     0.530149871620    15.994914619570
         O           -3.573878918220    -1.041691747221    -0.443437128380    15.994914619570
         O           -1.453144918220     3.153713252779     0.143086871620    15.994914619570
         O            1.093337081780    -2.355113747221     0.024170871620    15.994914619570
         N            0.755420081780    -0.129692747221    -0.354066128380    14.003074004430
         N            2.923161081780    -0.965620747221     0.162576871620    14.003074004430
         N            4.692672081780     0.471362252779     0.377694871620    14.003074004430
         C           -1.390076918220    -1.039792747221     0.571846871620    12.000000000000
         C           -2.751199918220    -0.346384747221     0.474416871620    12.000000000000
         C           -0.641398218220    -0.468745847221    -0.678422128380    12.000000000000
         C           -2.383959918220     0.993796252779    -0.141937128380    12.000000000000
         C           -1.912418918220     2.017826252779     0.873706871620    12.000000000000
         C            1.217753081780     1.147331252779    -0.427654128380    12.000000000000
         C            1.597232081780    -1.218807747221    -0.042007128380    12.000000000000
         C            2.534249081780     1.403620252779    -0.183293128380    12.000000000000
         C            3.366993081780     0.280555252779     0.097409871620    12.000000000000
         H           -0.857351918220    -0.740443747221     1.486416871620     1.007825032230
         H           -3.238955918220    -0.249627747221     1.456591871620     1.007825032230
         H           -0.635922918220    -1.214560747221    -1.471803128380     1.007825032230
         H           -3.207390918220     1.406824252779    -0.730638128380     1.007825032230
         H           -1.108428918220     1.598650252779     1.496768871620     1.007825032230
         H           -2.754268918220     2.274912252779     1.533169871620     1.007825032230
         H           -0.684270918220    -2.797822747221     0.370793871620     1.007825032230
         H           -3.319562918220    -1.982270747221    -0.346360128380     1.007825032230
         H            0.479713081780     1.906077252779    -0.667467128380     1.007825032230
         H           -1.223095918220     3.843732252779     0.788602871620     1.007825032230
         H            2.920268081780     2.415808252779    -0.222343128380     1.007825032230
         H            5.145749081780     1.299524252779     0.015728871620     1.007825032230
         H            5.250315081780    -0.374875747221     0.377238871620     1.007825032230

  Basis Set: AUG-CC-PVTZ
    Blend: AUG-CC-PVTZ
  Basis Set: (AUG-CC-PVTZ AUX)
    Blend: AUG-CC-PVTZ-JKFIT
	 Reference Energy          =    -886.3741885711469877 [Eh]
	 Singles Energy            =      -0.0000000000000000 [Eh]
	 Same-Spin Energy          =      -0.9017277681139816 [Eh]
	 Opposite-Spin Energy      =      -2.7157123372875094 [Eh]
	 Correlation Energy        =      -3.6174401054014909 [Eh]
	 Total Energy              =    -889.9916286765484301 [Eh]

	 ================> DF-SCS-MP2 Energies <==================
	-----------------------------------------------------------
	 SCS Same-Spin Scale       =       0.3333333333333333 [-]
	 SCS Opposite-Spin Scale   =       1.2000000000000000 [-]
	 SCS Same-Spin Energy      =      -0.3005759227046605 [Eh]
	 SCS Opposite-Spin Energy  =      -3.2588548047450110 [Eh]
	 SCS Correlation Energy    =      -3.5594307274496715 [Eh]
	 SCS Total Energy          =    -889.9336192985966818 [Eh]
	-----------------------------------------------------------

  Dipole Moment: [D]
     X:     2.7663      Y:     5.8128      Z:     1.9320     Total:     6.7211

*** Psi4 exiting successfully. Buy a developer a beer!
