                               Psi4 1.3.2 release

  ==> Input File <==

--------------------------------------------------------------------------
#psi4
#
memory 32 gb

molecule  {
0 1
  O       -1.2481010    -0.6526680     1.0325150
  O       -1.2449750     2.4828510    -0.6861630
  O       -3.2165300     1.5210990     0.7448870
  O       -2.3570290    -3.0668370     0.0949400
  O        1.3605300     2.2470340    -0.0765420
  N        0.8434040     0.0452230     0.2559430
  N        3.0572260     0.7205030    -0.2937270
  N        4.7164630    -0.8366550    -0.5722980
  C       -1.2894840     1.0784300    -0.5920770
  C       -2.7359378     0.6593001    -0.2415030
  C       -0.5254080     0.4815200     0.6000940
  C       -2.5292560    -0.7168860     0.3610560
  C       -2.5283440    -1.8503930    -0.6392900
  C        1.2197750    -1.2614080     0.3112740
  C        1.7555940     1.0674350    -0.0594030
  C        2.5111010    -1.6091400     0.0469950
  C        3.4119830    -0.5506530    -0.2589250
  H       -0.9376060     0.5914040    -1.5148910
  H       -3.3625820     0.6426650    -1.1464650
  H       -0.4402900     1.2218800     1.4039980
  H       -3.2894435    -0.8914828     1.1275252
  H       -1.7133080    -1.7003050    -1.3694640
  H       -3.4855610    -1.8340040    -1.1841350
  H       -0.2975250     2.7131790    -0.5250000
  H       -2.8475560     2.3997430     0.5086630
  H        0.4343110    -1.9634370     0.5690680
  H       -2.4338740    -3.7984320    -0.5432330
  H        2.8291120    -2.6453980     0.0739220
  H        5.1251800    -1.6708610    -0.1624140
  H        5.3198140    -0.0200540    -0.5682940
units angstrom
no_reorient  #important for SAPT in psi4, default
symmetry c1  #important for SAPT in psi4, default
}

set PROPERTIES_ORIGIN ["COM"]
properties('MP2/aug-cc-pvtz', properties = ['dipole'])
--------------------------------------------------------------------------

    Molecular point group: c1
  Charge       = 0
  Multiplicity = 1
  Basis Set: AUG-CC-PVTZ
    Blend: AUG-CC-PVTZ
  Basis Set: (AUG-CC-PVTZ AUX)
    Blend: AUG-CC-PVTZ-JKFIT

    Orbital Energies [Eh]
    ---------------------

    Doubly Occupied:

       1A    -20.582025     2A    -20.581558     3A    -20.559609
       4A    -20.556853     5A    -20.521773     6A    -15.636705
       7A    -15.599706     8A    -15.553172     9A    -11.388054
      10A    -11.357684    11A    -11.341070    12A    -11.328330
      13A    -11.301284    14A    -11.296347    15A    -11.296282
      16A    -11.293096    17A    -11.248369    18A     -1.429358
      19A     -1.396472    20A     -1.382744    21A     -1.372946
      22A     -1.350237    23A     -1.305864    24A     -1.273599
      25A     -1.182072    26A     -1.081646    27A     -1.065474
      28A     -1.019055    29A     -0.934510    30A     -0.909320
      31A     -0.877670    32A     -0.832235    33A     -0.811406
      34A     -0.766772    35A     -0.751830    36A     -0.735312
      37A     -0.719915    38A     -0.705190    39A     -0.699320
      40A     -0.685503    41A     -0.674568    42A     -0.654297
      43A     -0.651442    44A     -0.638508    45A     -0.620480
      46A     -0.614314    47A     -0.607486    48A     -0.593743
      49A     -0.576984    50A     -0.569925    51A     -0.555833
      52A     -0.547567    53A     -0.537372    54A     -0.531651
      55A     -0.497379    56A     -0.476859    57A     -0.470910
      58A     -0.462034    59A     -0.459811    60A     -0.451438
      61A     -0.439485    62A     -0.433014    63A     -0.394919
      64A     -0.349697

  @DF-RHF Final Energy:  -886.37325029267799

   => Energetics <=

    Nuclear Repulsion Energy =           1323.4820751095296600
    One-Electron Energy =               -3844.6304786924429209
    Two-Electron Energy =                1634.7751532902354938
    Total Energy =                       -886.3732502926779944
  Basis Set: (AUG-CC-PVTZ AUX)
    Blend: AUG-CC-PVTZ-RI
    Molecular point group: c1

    Geometry (in Angstrom), charge = 0, multiplicity = 1:

       Center              X                  Y                   Z               Mass
    ------------   -----------------  -----------------  -----------------  -----------------
         O           -1.247044834943    -0.652941570085     1.031744098925    15.994914619570
         O           -1.243918834943     2.482577429915    -0.686933901075    15.994914619570
         O           -3.215473834943     1.520825429915     0.744116098925    15.994914619570
         O           -2.355972834943    -3.067110570085     0.094169098925    15.994914619570
         O            1.361586165057     2.246760429915    -0.077312901075    15.994914619570
         N            0.844460165057     0.044949429915     0.255172098925    14.003074004430
         N            3.058282165057     0.720229429915    -0.294497901075    14.003074004430
         N            4.717519165057    -0.836928570085    -0.573068901075    14.003074004430
         C           -1.288427834943     1.078156429915    -0.592847901075    12.000000000000
         C           -2.734881634943     0.659026529915    -0.242273901075    12.000000000000
         C           -0.524351834943     0.481246429915     0.599323098925    12.000000000000
         C           -2.528199834943    -0.717159570085     0.360285098925    12.000000000000
         C           -2.527287834943    -1.850666570085    -0.640060901075    12.000000000000
         C            1.220831165057    -1.261681570085     0.310503098925    12.000000000000
         C            1.756650165057     1.067161429915    -0.060173901075    12.000000000000
         C            2.512157165057    -1.609413570085     0.046224098925    12.000000000000
         C            3.413039165057    -0.550926570085    -0.259695901075    12.000000000000
         H           -0.936549834943     0.591130429915    -1.515661901075     1.007825032230
         H           -3.361525834943     0.642391429915    -1.147235901075     1.007825032230
         H           -0.439233834943     1.221606429915     1.403227098925     1.007825032230
         H           -3.288387334943    -0.891756370085     1.126754298925     1.007825032230
         H           -1.712251834943    -1.700578570085    -1.370234901075     1.007825032230
         H           -3.484504834943    -1.834277570085    -1.184905901075     1.007825032230
         H           -0.296468834943     2.712905429915    -0.525770901075     1.007825032230
         H           -2.846499834943     2.399469429915     0.507892098925     1.007825032230
         H            0.435367165057    -1.963710570085     0.568297098925     1.007825032230
         H           -2.432817834943    -3.798705570085    -0.544003901075     1.007825032230
         H            2.830168165057    -2.645671570085     0.073151098925     1.007825032230
         H            5.126236165057    -1.671134570085    -0.163184901075     1.007825032230
         H            5.320870165057    -0.020327570085    -0.569064901075     1.007825032230

  Basis Set: AUG-CC-PVTZ
    Blend: AUG-CC-PVTZ
  Basis Set: (AUG-CC-PVTZ AUX)
    Blend: AUG-CC-PVTZ-JKFIT
	 Reference Energy          =    -886.3732502926779944 [Eh]
	 Singles Energy            =      -0.0000000000000000 [Eh]
	 Same-Spin Energy          =      -0.9012241037843194 [Eh]
	 Opposite-Spin Energy      =      -2.7146532075915735 [Eh]
	 Correlation Energy        =      -3.6158773113758929 [Eh]
	 Total Energy              =    -889.9891276040539196 [Eh]

	 ================> DF-SCS-MP2 Energies <==================
	-----------------------------------------------------------
	 SCS Same-Spin Scale       =       0.3333333333333333 [-]
	 SCS Opposite-Spin Scale   =       1.2000000000000000 [-]
	 SCS Same-Spin Energy      =      -0.3004080345947731 [Eh]
	 SCS Opposite-Spin Energy  =      -3.2575838491098881 [Eh]
	 SCS Correlation Energy    =      -3.5579918837046614 [Eh]
	 SCS Total Energy          =    -889.9312421763826251 [Eh]
	-----------------------------------------------------------

  Dipole Moment: [D]
     X:     1.6635      Y:    -5.8986      Z:    -1.7887     Total:     6.3844

*** Psi4 exiting successfully. Buy a developer a beer!
