                               Psi4 1.4a3.dev225

  ==> Input File <==

--------------------------------------------------------------------------
#psi4
#
memory 32 gb

molecule  {
0 1
  O       -1.3191770     0.6538360    -1.0992360
  O       -1.5735610    -2.4640850     0.5135810
  O       -3.5606630    -1.0699430    -0.4600060
  O       -1.4399290     3.1254620     0.1265180
  O        1.1065530    -2.3833650     0.0076020
  N        0.7686360    -0.1579440    -0.3706350
  N        2.9363770    -0.9938720     0.1460080
  N        4.7058880     0.4431110     0.3611260
  C       -1.3768610    -1.0680440     0.5552780
  C       -2.7379840    -0.3746360     0.4578480
  C       -0.6377490    -0.5042940    -0.6790150
  C       -2.3707440     0.9655450    -0.1585060
  C       -1.8992030     1.9895750     0.8571380
  C        1.2309690     1.1190800    -0.4442230
  C        1.6104480    -1.2470590    -0.0585760
  C        2.5474650     1.3753690    -0.1998620
  C        3.3802090     0.2523040     0.0808410
  H       -0.8441360    -0.7686950     1.4698480
  H       -3.2257400    -0.2778790     1.4400230
  H       -0.6227070    -1.2428120    -1.4883720
  H       -3.2092389     1.3861290    -0.7579767
  H       -1.0952130     1.5703990     1.4802000
  H       -2.7410530     2.2466610     1.5166010
  H       -0.6710550    -2.8260740     0.3542250
  H       -3.3063470    -2.0105220    -0.3629290
  H        0.4929290     1.8778260    -0.6840360
  H       -1.2098800     3.8154810     0.7720340
  H        2.9334840     2.3875570    -0.2389120
  H        5.1589650     1.2712730    -0.0008400
  H        5.2635310    -0.4031270     0.3606700
units angstrom
no_reorient  #important for SAPT in psi4, default
symmetry c1  #important for SAPT in psi4, default
}

set PROPERTIES_ORIGIN ["COM"]
properties('MP2/aug-cc-pvtz', properties = ['dipole'])
--------------------------------------------------------------------------

    Molecular point group: c1
  Charge       = 0
  Multiplicity = 1
  Basis Set: AUG-CC-PVTZ
    Blend: AUG-CC-PVTZ
  Basis Set: (AUG-CC-PVTZ AUX)
    Blend: AUG-CC-PVTZ-JKFIT

    Orbital Energies [Eh]
    ---------------------

    Doubly Occupied:

       1A    -20.586696     2A    -20.581611     3A    -20.559402
       4A    -20.556397     5A    -20.519746     6A    -15.633013
       7A    -15.599684     8A    -15.551779     9A    -11.385992
      10A    -11.358085    11A    -11.339682    12A    -11.325143
      13A    -11.303693    14A    -11.300119    15A    -11.297062
      16A    -11.293621    17A    -11.246579    18A     -1.429299
      19A     -1.394112    20A     -1.383013    21A     -1.375546
      22A     -1.346534    23A     -1.303680    24A     -1.271353
      25A     -1.181211    26A     -1.079323    27A     -1.067686
      28A     -1.016984    29A     -0.936574    30A     -0.906566
      31A     -0.876642    32A     -0.829830    33A     -0.811283
      34A     -0.766419    35A     -0.750379    36A     -0.734790
      37A     -0.722027    38A     -0.707354    39A     -0.703123
      40A     -0.685060    41A     -0.675114    42A     -0.653414
      43A     -0.649063    44A     -0.633444    45A     -0.620288
      46A     -0.615063    47A     -0.607515    48A     -0.593075
      49A     -0.577004    50A     -0.563452    51A     -0.555838
      52A     -0.548175    53A     -0.536634    54A     -0.530813
      55A     -0.495518    56A     -0.480794    57A     -0.473224
      58A     -0.463322    59A     -0.457978    60A     -0.452994
      61A     -0.442078    62A     -0.430239    63A     -0.392276
      64A     -0.348257

  @DF-RHF Final Energy:  -886.37355553174370

   => Energetics <=

    Nuclear Repulsion Energy =           1334.4425471779397867
    One-Electron Energy =               -3866.6068796104941612
    Two-Electron Energy =                1645.7907769008104424
    Total Energy =                       -886.3735555317437047
  Basis Set: (AUG-CC-PVTZ AUX)
    Blend: AUG-CC-PVTZ-RI
    Molecular point group: c1

    Geometry (in Angstrom), charge = 0, multiplicity = 1:

       Center              X                  Y                   Z               Mass
    ------------   -----------------  -----------------  -----------------  -----------------
         O           -1.331858200334     0.682416139805    -1.083411138251    15.994914619570
         O           -1.586242200334    -2.435504860195     0.529405861749    15.994914619570
         O           -3.573344200334    -1.041362860195    -0.444181138251    15.994914619570
         O           -1.452610200334     3.154042139805     0.142342861749    15.994914619570
         O            1.093871799666    -2.354784860195     0.023426861749    15.994914619570
         N            0.755954799666    -0.129363860195    -0.354810138251    14.003074004430
         N            2.923695799666    -0.965291860195     0.161832861749    14.003074004430
         N            4.693206799666     0.471691139805     0.376950861749    14.003074004430
         C           -1.389542200334    -1.039463860195     0.571102861749    12.000000000000
         C           -2.750665200334    -0.346055860195     0.473672861749    12.000000000000
         C           -0.650430200334    -0.475713860195    -0.663190138251    12.000000000000
         C           -2.383425200334     0.994125139805    -0.142681138251    12.000000000000
         C           -1.911884200334     2.018155139805     0.872962861749    12.000000000000
         C            1.218287799666     1.147660139805    -0.428398138251    12.000000000000
         C            1.597766799666    -1.218478860195    -0.042751138251    12.000000000000
         C            2.534783799666     1.403949139805    -0.184037138251    12.000000000000
         C            3.367527799666     0.280884139805     0.096665861749    12.000000000000
         H           -0.856817200334    -0.740114860195     1.485672861749     1.007825032230
         H           -3.238421200334    -0.249298860195     1.455847861749     1.007825032230
         H           -0.635388200334    -1.214231860195    -1.472547138251     1.007825032230
         H           -3.221920100334     1.414709139805    -0.742151838251     1.007825032230
         H           -1.107894200334     1.598979139805     1.496024861749     1.007825032230
         H           -2.753734200334     2.275241139805     1.532425861749     1.007825032230
         H           -0.683736200334    -2.797493860195     0.370049861749     1.007825032230
         H           -3.319028200334    -1.981941860195    -0.347104138251     1.007825032230
         H            0.480247799666     1.906406139805    -0.668211138251     1.007825032230
         H           -1.222561200334     3.844061139805     0.787858861749     1.007825032230
         H            2.920802799666     2.416137139805    -0.223087138251     1.007825032230
         H            5.146283799666     1.299853139805     0.014984861749     1.007825032230
         H            5.250849799666    -0.374546860195     0.376494861749     1.007825032230

  Basis Set: AUG-CC-PVTZ
    Blend: AUG-CC-PVTZ
  Basis Set: (AUG-CC-PVTZ AUX)
    Blend: AUG-CC-PVTZ-JKFIT
	 Reference Energy          =    -886.3735555317437047 [Eh]
	 Singles Energy            =      -0.0000000000000000 [Eh]
	 Same-Spin Energy          =      -0.9018677932308746 [Eh]
	 Opposite-Spin Energy      =      -2.7161044599121689 [Eh]
	 Correlation Energy        =      -3.6179722531430434 [Eh]
	 Total Energy              =    -889.9915277848867845 [Eh]

	 ================> DF-SCS-MP2 Energies <==================
	-----------------------------------------------------------
	 SCS Same-Spin Scale       =       0.3333333333333333 [-]
	 SCS Opposite-Spin Scale   =       1.2000000000000000 [-]
	 SCS Same-Spin Energy      =      -0.3006225977436249 [Eh]
	 SCS Opposite-Spin Energy  =      -3.2593253518946024 [Eh]
	 SCS Correlation Energy    =      -3.5599479496382274 [Eh]
	 SCS Total Energy          =    -889.9335034813818766 [Eh]
	-----------------------------------------------------------

  Dipole Moment: [D]
     X:     2.7425      Y:     5.7962      Z:     1.9472     Total:     6.7014

*** Psi4 exiting successfully. Buy a developer a beer!
