                               Psi4 1.3.2 release

  ==> Input File <==

--------------------------------------------------------------------------
#psi4
#
memory 32 gb

molecule  {
0 1
  O       -1.2481010    -0.6526680     1.0325150
  O       -1.2449750     2.4828510    -0.6861630
  O       -3.2165300     1.5210990     0.7448870
  O       -2.3570290    -3.0668370     0.0949400
  O        1.3605300     2.2470340    -0.0765420
  N        0.8434040     0.0452230     0.2559430
  N        3.0572260     0.7205030    -0.2937270
  N        4.7164630    -0.8366550    -0.5722980
  C       -1.2894840     1.0784300    -0.5920770
  C       -2.7151710     0.6552070    -0.2573930
  C       -0.5254080     0.4815200     0.6000940
  C       -2.5292560    -0.7168860     0.3610560
  C       -2.5283440    -1.8503930    -0.6392900
  C        1.2197750    -1.2614080     0.3112740
  C        1.7555940     1.0674350    -0.0594030
  C        2.5111010    -1.6091400     0.0469950
  C        3.3745750    -0.5184164    -0.2535127
  H       -0.9376060     0.5914040    -1.5148910
  H       -3.3625820     0.6426650    -1.1464650
  H       -0.4402900     1.2218800     1.4039980
  H       -3.2819570    -0.9087340     1.1307830
  H       -1.7133080    -1.7003050    -1.3694640
  H       -3.4855610    -1.8340040    -1.1841350
  H       -0.2975250     2.7131790    -0.5250000
  H       -2.8475560     2.3997430     0.5086630
  H        0.4343110    -1.9634370     0.5690680
  H       -2.4338740    -3.7984320    -0.5432330
  H        2.7937170    -2.6553354     0.0829127
  H        5.1251800    -1.6708610    -0.1624140
  H        5.3198140    -0.0200540    -0.5682940
units angstrom
no_reorient  #important for SAPT in psi4, default
symmetry c1  #important for SAPT in psi4, default
}

set PROPERTIES_ORIGIN ["COM"]
properties('MP2/aug-cc-pvtz', properties = ['dipole'])
--------------------------------------------------------------------------

    Molecular point group: c1
  Charge       = 0
  Multiplicity = 1
  Basis Set: AUG-CC-PVTZ
    Blend: AUG-CC-PVTZ
  Basis Set: (AUG-CC-PVTZ AUX)
    Blend: AUG-CC-PVTZ-JKFIT

    Orbital Energies [Eh]
    ---------------------

    Doubly Occupied:

       1A    -20.582837     2A    -20.582777     3A    -20.558948
       4A    -20.558836     5A    -20.527026     6A    -15.638922
       7A    -15.590935     8A    -15.557628     9A    -11.393195
      10A    -11.355866    11A    -11.343211    12A    -11.327311
      13A    -11.301921    14A    -11.298081    15A    -11.297876
      16A    -11.294060    17A    -11.248977    18A     -1.431286
      19A     -1.401094    20A     -1.381388    21A     -1.373691
      22A     -1.347801    23A     -1.309914    24A     -1.270967
      25A     -1.181837    26A     -1.083995    27A     -1.068805
      28A     -1.022374    29A     -0.935974    30A     -0.910997
      31A     -0.880439    32A     -0.833377    33A     -0.812680
      34A     -0.764969    35A     -0.754710    36A     -0.737656
      37A     -0.714593    38A     -0.701717    39A     -0.698812
      40A     -0.683264    41A     -0.671080    42A     -0.656541
      43A     -0.653821    44A     -0.642048    45A     -0.621981
      46A     -0.616179    47A     -0.605273    48A     -0.593873
      49A     -0.576723    50A     -0.570141    51A     -0.554817
      52A     -0.545845    53A     -0.538165    54A     -0.529127
      55A     -0.500316    56A     -0.478540    57A     -0.475873
      58A     -0.466796    59A     -0.462991    60A     -0.454195
      61A     -0.441987    62A     -0.437566    63A     -0.400626
      64A     -0.351331

  @DF-RHF Final Energy:  -886.37048152932380

   => Energetics <=

    Nuclear Repulsion Energy =           1324.4924358268578999
    One-Electron Energy =               -3846.5126695140525044
    Two-Electron Energy =                1635.6497521578705800
    Total Energy =                       -886.3704815293237971
  Basis Set: (AUG-CC-PVTZ AUX)
    Blend: AUG-CC-PVTZ-RI
    Molecular point group: c1

    Geometry (in Angstrom), charge = 0, multiplicity = 1:

       Center              X                  Y                   Z               Mass
    ------------   -----------------  -----------------  -----------------  -----------------
         O           -1.246107628628    -0.654218160512     1.032210552274    15.994914619570
         O           -1.242981628628     2.481300839488    -0.686467447726    15.994914619570
         O           -3.214536628628     1.519548839488     0.744582552274    15.994914619570
         O           -2.355035628628    -3.068387160512     0.094635552274    15.994914619570
         O            1.362523371372     2.245483839488    -0.076846447726    15.994914619570
         N            0.845397371372     0.043672839488     0.255638552274    14.003074004430
         N            3.059219371372     0.718952839488    -0.294031447726    14.003074004430
         N            4.718456371372    -0.838205160512    -0.572602447726    14.003074004430
         C           -1.287490628628     1.076879839488    -0.592381447726    12.000000000000
         C           -2.713177628628     0.653656839488    -0.257697447726    12.000000000000
         C           -0.523414628628     0.479969839488     0.599789552274    12.000000000000
         C           -2.527262628628    -0.718436160512     0.360751552274    12.000000000000
         C           -2.526350628628    -1.851943160512    -0.639594447726    12.000000000000
         C            1.221768371372    -1.262958160512     0.310969552274    12.000000000000
         C            1.757587371372     1.065884839488    -0.059707447726    12.000000000000
         C            2.513094371372    -1.610690160512     0.046690552274    12.000000000000
         C            3.376568371372    -0.519966560512    -0.253817147726    12.000000000000
         H           -0.935612628628     0.589853839488    -1.515195447726     1.007825032230
         H           -3.360588628628     0.641114839488    -1.146769447726     1.007825032230
         H           -0.438296628628     1.220329839488     1.403693552274     1.007825032230
         H           -3.279963628628    -0.910284160512     1.130478552274     1.007825032230
         H           -1.711314628628    -1.701855160512    -1.369768447726     1.007825032230
         H           -3.483567628628    -1.835554160512    -1.184439447726     1.007825032230
         H           -0.295531628628     2.711628839488    -0.525304447726     1.007825032230
         H           -2.845562628628     2.398192839488     0.508358552274     1.007825032230
         H            0.436304371372    -1.964987160512     0.568763552274     1.007825032230
         H           -2.431880628628    -3.799982160512    -0.543537447726     1.007825032230
         H            2.795710371372    -2.656885560512     0.082608252274     1.007825032230
         H            5.127173371372    -1.672411160512    -0.162718447726     1.007825032230
         H            5.321807371372    -0.021604160512    -0.568598447726     1.007825032230

  Basis Set: AUG-CC-PVTZ
    Blend: AUG-CC-PVTZ
  Basis Set: (AUG-CC-PVTZ AUX)
    Blend: AUG-CC-PVTZ-JKFIT
	 Reference Energy          =    -886.3704815293237971 [Eh]
	 Singles Energy            =      -0.0000000000000000 [Eh]
	 Same-Spin Energy          =      -0.9009089444757923 [Eh]
	 Opposite-Spin Energy      =      -2.7147425150803386 [Eh]
	 Correlation Energy        =      -3.6156514595561307 [Eh]
	 Total Energy              =    -889.9861329888799446 [Eh]

	 ================> DF-SCS-MP2 Energies <==================
	-----------------------------------------------------------
	 SCS Same-Spin Scale       =       0.3333333333333333 [-]
	 SCS Opposite-Spin Scale   =       1.2000000000000000 [-]
	 SCS Same-Spin Energy      =      -0.3003029814919307 [Eh]
	 SCS Opposite-Spin Energy  =      -3.2576910180964060 [Eh]
	 SCS Correlation Energy    =      -3.5579939995883367 [Eh]
	 SCS Total Energy          =    -889.9284755289121449 [Eh]
	-----------------------------------------------------------

  Dipole Moment: [D]
     X:     1.2959      Y:    -5.7337      Z:    -1.7518     Total:     6.1338

*** Psi4 exiting successfully. Buy a developer a beer!
