                               Psi4 1.4a3.dev225

  ==> Input File <==

--------------------------------------------------------------------------
#psi4
#
memory 32 gb

molecule  {
0 1
  O       -1.3191770     0.6538360    -1.0992360
  O       -1.5735610    -2.4640850     0.5135810
  O       -3.5606630    -1.0699430    -0.4600060
  O       -1.4399290     3.1254620     0.1265180
  O        1.1065530    -2.3833650     0.0076020
  N        0.7686360    -0.1579440    -0.3706350
  N        2.9363770    -0.9938720     0.1460080
  N        4.7058880     0.4431110     0.3611260
  C       -1.3768610    -1.0680440     0.5552780
  C       -2.7379840    -0.3746360     0.4578480
  C       -0.6619491    -0.4631644    -0.6939386
  C       -2.3707440     0.9655450    -0.1585060
  C       -1.8992030     1.9895750     0.8571380
  C        1.2309690     1.1190800    -0.4442230
  C        1.6104480    -1.2470590    -0.0585760
  C        2.5474650     1.3753690    -0.1998620
  C        3.3802090     0.2523040     0.0808410
  H       -0.8441360    -0.7686950     1.4698480
  H       -3.2257400    -0.2778790     1.4400230
  H       -0.6227070    -1.2428120    -1.4883720
  H       -3.1941750     1.3785730    -0.7472070
  H       -1.0952130     1.5703990     1.4802000
  H       -2.7410530     2.2466610     1.5166010
  H       -0.6710550    -2.8260740     0.3542250
  H       -3.3063470    -2.0105220    -0.3629290
  H        0.4929290     1.8778260    -0.6840360
  H       -1.2098800     3.8154810     0.7720340
  H        2.9334840     2.3875570    -0.2389120
  H        5.1589650     1.2712730    -0.0008400
  H        5.2635310    -0.4031270     0.3606700
units angstrom
no_reorient  #important for SAPT in psi4, default
symmetry c1  #important for SAPT in psi4, default
}

set PROPERTIES_ORIGIN ["COM"]
properties('MP2/aug-cc-pvtz', properties = ['dipole'])
--------------------------------------------------------------------------

    Molecular point group: c1
  Charge       = 0
  Multiplicity = 1
  Basis Set: AUG-CC-PVTZ
    Blend: AUG-CC-PVTZ
  Basis Set: (AUG-CC-PVTZ AUX)
    Blend: AUG-CC-PVTZ-JKFIT

    Orbital Energies [Eh]
    ---------------------

    Doubly Occupied:

       1A    -20.588305     2A    -20.587177     3A    -20.559583
       4A    -20.557193     5A    -20.517624     6A    -15.630080
       7A    -15.598439     8A    -15.550587     9A    -11.384561
      10A    -11.356577    11A    -11.340240    12A    -11.323122
      13A    -11.305672    14A    -11.301509    15A    -11.296876
      16A    -11.293969    17A    -11.244880    18A     -1.444286
      19A     -1.393395    20A     -1.384121    21A     -1.379034
      22A     -1.346797    23A     -1.302003    24A     -1.268811
      25A     -1.179394    26A     -1.076525    27A     -1.072402
      28A     -1.016232    29A     -0.935515    30A     -0.905693
      31A     -0.875919    32A     -0.829143    33A     -0.815866
      34A     -0.765784    35A     -0.750309    36A     -0.734763
      37A     -0.722268    38A     -0.710430    39A     -0.703792
      40A     -0.685861    41A     -0.675739    42A     -0.654150
      43A     -0.650224    44A     -0.633601    45A     -0.622517
      46A     -0.615578    47A     -0.609331    48A     -0.590441
      49A     -0.580484    50A     -0.566779    51A     -0.556809
      52A     -0.548585    53A     -0.536785    54A     -0.530319
      55A     -0.494607    56A     -0.482232    57A     -0.474233
      58A     -0.464411    59A     -0.456566    60A     -0.454923
      61A     -0.438708    62A     -0.428707    63A     -0.390358
      64A     -0.345820

  @DF-RHF Final Energy:  -886.37240206818035

   => Energetics <=

    Nuclear Repulsion Energy =           1334.7931444995795118
    One-Electron Energy =               -3867.2577983641558603
    Two-Electron Energy =                1646.0922517963961127
    Total Energy =                       -886.3724020681804632
  Basis Set: (AUG-CC-PVTZ AUX)
    Blend: AUG-CC-PVTZ-RI
    Molecular point group: c1

    Geometry (in Angstrom), charge = 0, multiplicity = 1:

       Center              X                  Y                   Z               Mass
    ------------   -----------------  -----------------  -----------------  -----------------
         O           -1.330726008569     0.680417089952    -1.082719080467    15.994914619570
         O           -1.585110008569    -2.437503910048     0.530097919533    15.994914619570
         O           -3.572212008569    -1.043361910048    -0.443489080467    15.994914619570
         O           -1.451478008569     3.152043089952     0.143034919533    15.994914619570
         O            1.095003991431    -2.356783910048     0.024118919533    15.994914619570
         N            0.757086991431    -0.131362910048    -0.354118080467    14.003074004430
         N            2.924827991431    -0.967290910048     0.162524919533    14.003074004430
         N            4.694338991431     0.469692089952     0.377642919533    14.003074004430
         C           -1.388410008569    -1.041462910048     0.571794919533    12.000000000000
         C           -2.749533008569    -0.348054910048     0.474364919533    12.000000000000
         C           -0.673498108569    -0.436583310048    -0.677421680467    12.000000000000
         C           -2.382293008569     0.992126089952    -0.141989080467    12.000000000000
         C           -1.910752008569     2.016156089952     0.873654919533    12.000000000000
         C            1.219419991431     1.145661089952    -0.427706080467    12.000000000000
         C            1.598898991431    -1.220477910048    -0.042059080467    12.000000000000
         C            2.535915991431     1.401950089952    -0.183345080467    12.000000000000
         C            3.368659991431     0.278885089952     0.097357919533    12.000000000000
         H           -0.855685008569    -0.742113910048     1.486364919533     1.007825032230
         H           -3.237289008569    -0.251297910048     1.456539919533     1.007825032230
         H           -0.634256008569    -1.216230910048    -1.471855080467     1.007825032230
         H           -3.205724008569     1.405154089952    -0.730690080467     1.007825032230
         H           -1.106762008569     1.596980089952     1.496716919533     1.007825032230
         H           -2.752602008569     2.273242089952     1.533117919533     1.007825032230
         H           -0.682604008569    -2.799492910048     0.370741919533     1.007825032230
         H           -3.317896008569    -1.983940910048    -0.346412080467     1.007825032230
         H            0.481379991431     1.904407089952    -0.667519080467     1.007825032230
         H           -1.221429008569     3.842062089952     0.788550919533     1.007825032230
         H            2.921934991431     2.414138089952    -0.222395080467     1.007825032230
         H            5.147415991431     1.297854089952     0.015676919533     1.007825032230
         H            5.251981991431    -0.376545910048     0.377186919533     1.007825032230

  Basis Set: AUG-CC-PVTZ
    Blend: AUG-CC-PVTZ
  Basis Set: (AUG-CC-PVTZ AUX)
    Blend: AUG-CC-PVTZ-JKFIT
	 Reference Energy          =    -886.3724020681803495 [Eh]
	 Singles Energy            =      -0.0000000000000000 [Eh]
	 Same-Spin Energy          =      -0.9020083334245468 [Eh]
	 Opposite-Spin Energy      =      -2.7155961369070702 [Eh]
	 Correlation Energy        =      -3.6176044703316173 [Eh]
	 Total Energy              =    -889.9900065385119206 [Eh]

	 ================> DF-SCS-MP2 Energies <==================
	-----------------------------------------------------------
	 SCS Same-Spin Scale       =       0.3333333333333333 [-]
	 SCS Opposite-Spin Scale   =       1.2000000000000000 [-]
	 SCS Same-Spin Energy      =      -0.3006694444748489 [Eh]
	 SCS Opposite-Spin Energy  =      -3.2587153642884843 [Eh]
	 SCS Correlation Energy    =      -3.5593848087633333 [Eh]
	 SCS Total Energy          =    -889.9317868769436473 [Eh]
	-----------------------------------------------------------

  Dipole Moment: [D]
     X:     2.4991      Y:     5.9272      Z:     1.9307     Total:     6.7160

*** Psi4 exiting successfully. Buy a developer a beer!
