                               Psi4 1.3.2 release

  ==> Input File <==

--------------------------------------------------------------------------
#psi4
#
memory 32 gb

molecule  {
0 1
  O       -1.2481010    -0.6526680     1.0325150
  O       -1.2449750     2.4828510    -0.6861630
  O       -3.2165300     1.5210990     0.7448870
  O       -2.3570290    -3.0668370     0.0949400
  O        1.3605300     2.2470340    -0.0765420
  N        0.8434040     0.0452230     0.2559430
  N        3.0572260     0.7205030    -0.2937270
  N        4.7164630    -0.8366550    -0.5722980
  C       -1.2894840     1.0784300    -0.5920770
  C       -2.7151710     0.6552070    -0.2573930
  C       -0.5254080     0.4815200     0.6000940
  C       -2.5292560    -0.7168860     0.3610560
  C       -2.5283440    -1.8503930    -0.6392900
  C        1.2096193    -1.3074179     0.3179062
  C        1.7555940     1.0674350    -0.0594030
  C        2.5111010    -1.6091400     0.0469950
  C        3.4482561    -0.5841946    -0.2641276
  H       -0.9376060     0.5914040    -1.5148910
  H       -3.3625820     0.6426650    -1.1464650
  H       -0.4402900     1.2218800     1.4039980
  H       -3.2819570    -0.9087340     1.1307830
  H       -1.7133080    -1.7003050    -1.3694640
  H       -3.4855610    -1.8340040    -1.1841350
  H       -0.2975250     2.7131790    -0.5250000
  H       -2.8475560     2.3997430     0.5086630
  H        0.4343110    -1.9634370     0.5690680
  H       -2.4338740    -3.7984320    -0.5432330
  H        2.8291120    -2.6453980     0.0739220
  H        5.1251800    -1.6708610    -0.1624140
  H        5.3198140    -0.0200540    -0.5682940
units angstrom
no_reorient  #important for SAPT in psi4, default
symmetry c1  #important for SAPT in psi4, default
}

set PROPERTIES_ORIGIN ["COM"]
properties('MP2/aug-cc-pvtz', properties = ['dipole'])
--------------------------------------------------------------------------

    Molecular point group: c1
  Charge       = 0
  Multiplicity = 1
  Basis Set: AUG-CC-PVTZ
    Blend: AUG-CC-PVTZ
  Basis Set: (AUG-CC-PVTZ AUX)
    Blend: AUG-CC-PVTZ-JKFIT

    Orbital Energies [Eh]
    ---------------------

    Doubly Occupied:

       1A    -20.581475     2A    -20.579082     3A    -20.555615
       4A    -20.554128     5A    -20.516063     6A    -15.631336
       7A    -15.610811     8A    -15.550447     9A    -11.382747
      10A    -11.363259    11A    -11.336882    12A    -11.331232
      13A    -11.299954    14A    -11.295012    15A    -11.293227
      16A    -11.290586    17A    -11.252812    18A     -1.425260
      19A     -1.389779    20A     -1.377720    21A     -1.371167
      22A     -1.343545    23A     -1.307670    24A     -1.270379
      25A     -1.176366    26A     -1.081673    27A     -1.065530
      28A     -1.018139    29A     -0.933899    30A     -0.909175
      31A     -0.873229    32A     -0.829890    33A     -0.810162
      34A     -0.769002    35A     -0.749547    36A     -0.732763
      37A     -0.730005    38A     -0.702776    39A     -0.696511
      40A     -0.689764    41A     -0.672384    42A     -0.651137
      43A     -0.647790    44A     -0.634012    45A     -0.629310
      46A     -0.612638    47A     -0.607324    48A     -0.585553
      49A     -0.574882    50A     -0.569664    51A     -0.553577
      52A     -0.545410    53A     -0.536378    54A     -0.531564
      55A     -0.491779    56A     -0.475901    57A     -0.471636
      58A     -0.459599    59A     -0.453706    60A     -0.450170
      61A     -0.438531    62A     -0.427757    63A     -0.388156
      64A     -0.350990

  @DF-RHF Final Energy:  -886.36462853417061

   => Energetics <=

    Nuclear Repulsion Energy =           1322.0377680959979898
    One-Electron Energy =               -3841.9278602008525922
    Two-Electron Energy =                1633.5254635706837689
    Total Energy =                       -886.3646285341706061
  Basis Set: (AUG-CC-PVTZ AUX)
    Blend: AUG-CC-PVTZ-RI
    Molecular point group: c1

    Geometry (in Angstrom), charge = 0, multiplicity = 1:

       Center              X                  Y                   Z               Mass
    ------------   -----------------  -----------------  -----------------  -----------------
         O           -1.249390328335    -0.648740902810     1.032444434787    15.994914619570
         O           -1.246264328335     2.486778097190    -0.686233565213    15.994914619570
         O           -3.217819328335     1.525026097190     0.744816434787    15.994914619570
         O           -2.358318328335    -3.062909902810     0.094869434787    15.994914619570
         O            1.359240671665     2.250961097190    -0.076612565213    15.994914619570
         N            0.842114671665     0.049150097190     0.255872434787    14.003074004430
         N            3.055936671665     0.724430097190    -0.293797565213    14.003074004430
         N            4.715173671665    -0.832727902810    -0.572368565213    14.003074004430
         C           -1.290773328335     1.082357097190    -0.592147565213    12.000000000000
         C           -2.716460328335     0.659134097190    -0.257463565213    12.000000000000
         C           -0.526697328335     0.485447097190     0.600023434787    12.000000000000
         C           -2.530545328335    -0.712958902810     0.360985434787    12.000000000000
         C           -2.529633328335    -1.846465902810    -0.639360565213    12.000000000000
         C            1.208329971665    -1.303490802810     0.317835634787    12.000000000000
         C            1.754304671665     1.071362097190    -0.059473565213    12.000000000000
         C            2.509811671665    -1.605212902810     0.046924434787    12.000000000000
         C            3.446966771665    -0.580267502810    -0.264198165213    12.000000000000
         H           -0.938895328335     0.595331097190    -1.514961565213     1.007825032230
         H           -3.363871328335     0.646592097190    -1.146535565213     1.007825032230
         H           -0.441579328335     1.225807097190     1.403927434787     1.007825032230
         H           -3.283246328335    -0.904806902810     1.130712434787     1.007825032230
         H           -1.714597328335    -1.696377902810    -1.369534565213     1.007825032230
         H           -3.486850328335    -1.830076902810    -1.184205565213     1.007825032230
         H           -0.298814328335     2.717106097190    -0.525070565213     1.007825032230
         H           -2.848845328335     2.403670097190     0.508592434787     1.007825032230
         H            0.433021671665    -1.959509902810     0.568997434787     1.007825032230
         H           -2.435163328335    -3.794504902810    -0.543303565213     1.007825032230
         H            2.827822671665    -2.641470902810     0.073851434787     1.007825032230
         H            5.123890671665    -1.666933902810    -0.162484565213     1.007825032230
         H            5.318524671665    -0.016126902810    -0.568364565213     1.007825032230

  Basis Set: AUG-CC-PVTZ
    Blend: AUG-CC-PVTZ
  Basis Set: (AUG-CC-PVTZ AUX)
    Blend: AUG-CC-PVTZ-JKFIT
	 Reference Energy          =    -886.3646285341706061 [Eh]
	 Singles Energy            =      -0.0000000000000000 [Eh]
	 Same-Spin Energy          =      -0.9017023829109805 [Eh]
	 Opposite-Spin Energy      =      -2.7163095429040118 [Eh]
	 Correlation Energy        =      -3.6180119258149923 [Eh]
	 Total Energy              =    -889.9826404599856460 [Eh]

	 ================> DF-SCS-MP2 Energies <==================
	-----------------------------------------------------------
	 SCS Same-Spin Scale       =       0.3333333333333333 [-]
	 SCS Opposite-Spin Scale   =       1.2000000000000000 [-]
	 SCS Same-Spin Energy      =      -0.3005674609703268 [Eh]
	 SCS Opposite-Spin Energy  =      -3.2595714514848142 [Eh]
	 SCS Correlation Energy    =      -3.5601389124551410 [Eh]
	 SCS Total Energy          =    -889.9247674466257649 [Eh]
	-----------------------------------------------------------

  Dipole Moment: [D]
     X:     2.2701      Y:    -6.2557      Z:    -1.9052     Total:     6.9222

*** Psi4 exiting successfully. Buy a developer a beer!
