                               Psi4 1.3.2 release

  ==> Input File <==

--------------------------------------------------------------------------
#psi4
#
memory 32 gb

molecule  {
0 1
  O       -1.2481010    -0.6526680     1.0325150
  O       -1.2449750     2.4828510    -0.6861630
  O       -3.2165300     1.5210990     0.7448870
  O       -2.3570290    -3.0668370     0.0949400
  O        1.3605300     2.2470340    -0.0765420
  N        0.8434040     0.0452230     0.2559430
  N        3.0572260     0.7205030    -0.2937270
  N        4.7164630    -0.8366550    -0.5722980
  C       -1.2894840     1.0784300    -0.5920770
  C       -2.7151710     0.6552070    -0.2573930
  C       -0.5751305     0.5203641     0.5225130
  C       -2.5292560    -0.7168860     0.3610560
  C       -2.5283440    -1.8503930    -0.6392900
  C        1.2197750    -1.2614080     0.3112740
  C        1.7555940     1.0674350    -0.0594030
  C        2.5111010    -1.6091400     0.0469950
  C        3.4119830    -0.5506530    -0.2589250
  H       -0.9376060     0.5914040    -1.5148910
  H       -3.3625820     0.6426650    -1.1464650
  H       -0.4402900     1.2218800     1.4039980
  H       -3.2819570    -0.9087340     1.1307830
  H       -1.7133080    -1.7003050    -1.3694640
  H       -3.4855610    -1.8340040    -1.1841350
  H       -0.2975250     2.7131790    -0.5250000
  H       -2.8475560     2.3997430     0.5086630
  H        0.4343110    -1.9634370     0.5690680
  H       -2.4338740    -3.7984320    -0.5432330
  H        2.8291120    -2.6453980     0.0739220
  H        5.1251800    -1.6708610    -0.1624140
  H        5.3198140    -0.0200540    -0.5682940
units angstrom
no_reorient  #important for SAPT in psi4, default
symmetry c1  #important for SAPT in psi4, default
}

set PROPERTIES_ORIGIN ["COM"]
properties('MP2/aug-cc-pvtz', properties = ['dipole'])
--------------------------------------------------------------------------

    Molecular point group: c1
  Charge       = 0
  Multiplicity = 1
  Basis Set: AUG-CC-PVTZ
    Blend: AUG-CC-PVTZ
  Basis Set: (AUG-CC-PVTZ AUX)
    Blend: AUG-CC-PVTZ-JKFIT

    Orbital Energies [Eh]
    ---------------------

    Doubly Occupied:

       1A    -20.583007     2A    -20.582427     3A    -20.560549
       4A    -20.560242     5A    -20.520580     6A    -15.634851
       7A    -15.598608     8A    -15.551584     9A    -11.385864
      10A    -11.356349    11A    -11.346300    12A    -11.327231
      13A    -11.301330    14A    -11.297027    15A    -11.295946
      16A    -11.295733    17A    -11.247019    18A     -1.426446
      19A     -1.394414    20A     -1.382123    21A     -1.371921
      22A     -1.349648    23A     -1.303730    24A     -1.268785
      25A     -1.179799    26A     -1.084366    27A     -1.070467
      28A     -1.033648    29A     -0.933729    30A     -0.906709
      31A     -0.877449    32A     -0.829509    33A     -0.816802
      34A     -0.764066    35A     -0.752133    36A     -0.738197
      37A     -0.720303    38A     -0.704084    39A     -0.700188
      40A     -0.683480    41A     -0.669959    42A     -0.651219
      43A     -0.649967    44A     -0.640521    45A     -0.621295
      46A     -0.611762    47A     -0.606645    48A     -0.591878
      49A     -0.575455    50A     -0.565613    51A     -0.554154
      52A     -0.546251    53A     -0.542002    54A     -0.528859
      55A     -0.496698    56A     -0.482252    57A     -0.476812
      58A     -0.462278    59A     -0.460877    60A     -0.458213
      61A     -0.443253    62A     -0.430346    63A     -0.394985
      64A     -0.349495

  @DF-RHF Final Energy:  -886.35956582901917

   => Energetics <=

    Nuclear Repulsion Energy =           1324.3483080912390051
    One-Electron Energy =               -3846.3208816752162420
    Two-Electron Energy =                1635.6130077549582893
    Total Energy =                       -886.3595658290191750
  Basis Set: (AUG-CC-PVTZ AUX)
    Blend: AUG-CC-PVTZ-RI
    Molecular point group: c1

    Geometry (in Angstrom), charge = 0, multiplicity = 1:

       Center              X                  Y                   Z               Mass
    ------------   -----------------  -----------------  -----------------  -----------------
         O           -1.245646465689    -0.654585542165     1.036344820124    15.994914619570
         O           -1.242520465689     2.480933457835    -0.682333179876    15.994914619570
         O           -3.214075465689     1.519181457835     0.748716820124    15.994914619570
         O           -2.354574465689    -3.068754542165     0.098769820124    15.994914619570
         O            1.362984534311     2.245116457835    -0.072712179876    15.994914619570
         N            0.845858534311     0.043305457835     0.259772820124    14.003074004430
         N            3.059680534311     0.718585457835    -0.289897179876    14.003074004430
         N            4.718917534311    -0.838572542165    -0.568468179876    14.003074004430
         C           -1.287029465689     1.076512457835    -0.588247179876    12.000000000000
         C           -2.712716465689     0.653289457835    -0.253563179876    12.000000000000
         C           -0.572675965689     0.518446557835     0.526342820124    12.000000000000
         C           -2.526801465689    -0.718803542165     0.364885820124    12.000000000000
         C           -2.525889465689    -1.852310542165    -0.635460179876    12.000000000000
         C            1.222229534311    -1.263325542165     0.315103820124    12.000000000000
         C            1.758048534311     1.065517457835    -0.055573179876    12.000000000000
         C            2.513555534311    -1.611057542165     0.050824820124    12.000000000000
         C            3.414437534311    -0.552570542165    -0.255095179876    12.000000000000
         H           -0.935151465689     0.589486457835    -1.511061179876     1.007825032230
         H           -3.360127465689     0.640747457835    -1.142635179876     1.007825032230
         H           -0.437835465689     1.219962457835     1.407827820124     1.007825032230
         H           -3.279502465689    -0.910651542165     1.134612820124     1.007825032230
         H           -1.710853465689    -1.702222542165    -1.365634179876     1.007825032230
         H           -3.483106465689    -1.835921542165    -1.180305179876     1.007825032230
         H           -0.295070465689     2.711261457835    -0.521170179876     1.007825032230
         H           -2.845101465689     2.397825457835     0.512492820124     1.007825032230
         H            0.436765534311    -1.965354542165     0.572897820124     1.007825032230
         H           -2.431419465689    -3.800349542165    -0.539403179876     1.007825032230
         H            2.831566534311    -2.647315542165     0.077751820124     1.007825032230
         H            5.127634534311    -1.672778542165    -0.158584179876     1.007825032230
         H            5.322268534311    -0.021971542165    -0.564464179876     1.007825032230

  Basis Set: AUG-CC-PVTZ
    Blend: AUG-CC-PVTZ
  Basis Set: (AUG-CC-PVTZ AUX)
    Blend: AUG-CC-PVTZ-JKFIT
	 Reference Energy          =    -886.3595658290191750 [Eh]
	 Singles Energy            =      -0.0000000000000000 [Eh]
	 Same-Spin Energy          =      -0.9024794114972420 [Eh]
	 Opposite-Spin Energy      =      -2.7172068220618741 [Eh]
	 Correlation Energy        =      -3.6196862335591162 [Eh]
	 Total Energy              =    -889.9792520625783254 [Eh]

	 ================> DF-SCS-MP2 Energies <==================
	-----------------------------------------------------------
	 SCS Same-Spin Scale       =       0.3333333333333333 [-]
	 SCS Opposite-Spin Scale   =       1.2000000000000000 [-]
	 SCS Same-Spin Energy      =      -0.3008264704990806 [Eh]
	 SCS Opposite-Spin Energy  =      -3.2606481864742487 [Eh]
	 SCS Correlation Energy    =      -3.5614746569733295 [Eh]
	 SCS Total Energy          =    -889.9210404859925347 [Eh]
	-----------------------------------------------------------

  Dipole Moment: [D]
     X:     1.5212      Y:    -5.8642      Z:    -1.9017     Total:     6.3498

*** Psi4 exiting successfully. Buy a developer a beer!
