                               Psi4 1.3.2 release

  ==> Input File <==

--------------------------------------------------------------------------
#psi4
#
memory 32 gb

molecule  {
0 1
  O       -1.2481010    -0.6526680     1.0325150
  O       -1.2449750     2.4828510    -0.6861630
  O       -3.2165300     1.5210990     0.7448870
  O       -2.3570290    -3.0668370     0.0949400
  O        1.3605300     2.2470340    -0.0765420
  N        0.8434040     0.0452230     0.2559430
  N        3.0572260     0.7205030    -0.2937270
  N        4.7164630    -0.8366550    -0.5722980
  C       -1.2894840     1.0784300    -0.5920770
  C       -2.7151710     0.6552070    -0.2573930
  C       -0.5254080     0.4815200     0.6000940
  C       -2.5292560    -0.7168860     0.3610560
  C       -2.5284647    -1.7004381    -0.5069514
  C        1.2197750    -1.2614080     0.3112740
  C        1.7555940     1.0674350    -0.0594030
  C        2.5111010    -1.6091400     0.0469950
  C        3.4119830    -0.5506530    -0.2589250
  H       -0.9376060     0.5914040    -1.5148910
  H       -3.3625820     0.6426650    -1.1464650
  H       -0.4402900     1.2218800     1.4039980
  H       -3.2819570    -0.9087340     1.1307830
  H       -1.7133080    -1.7003050    -1.3694640
  H       -3.4855610    -1.8340040    -1.1841350
  H       -0.2975250     2.7131790    -0.5250000
  H       -2.8475560     2.3997430     0.5086630
  H        0.4343110    -1.9634370     0.5690680
  H       -2.4338740    -3.7984320    -0.5432330
  H        2.8291120    -2.6453980     0.0739220
  H        5.1251800    -1.6708610    -0.1624140
  H        5.3198140    -0.0200540    -0.5682940
units angstrom
no_reorient  #important for SAPT in psi4, default
symmetry c1  #important for SAPT in psi4, default
}

set PROPERTIES_ORIGIN ["COM"]
properties('MP2/aug-cc-pvtz', properties = ['dipole'])
--------------------------------------------------------------------------

    Molecular point group: c1
  Charge       = 0
  Multiplicity = 1
  Basis Set: AUG-CC-PVTZ
    Blend: AUG-CC-PVTZ
  Basis Set: (AUG-CC-PVTZ AUX)
    Blend: AUG-CC-PVTZ-JKFIT

    Orbital Energies [Eh]
    ---------------------

    Doubly Occupied:

       1A    -20.584318     2A    -20.569898     3A    -20.561712
       4A    -20.559440     5A    -20.522805     6A    -15.637783
       7A    -15.600104     8A    -15.553756     9A    -11.388998
      10A    -11.358196    11A    -11.343878    12A    -11.328662
      13A    -11.311581    14A    -11.300258    15A    -11.299085
      16A    -11.290405    17A    -11.248697    18A     -1.434826
      19A     -1.398127    20A     -1.382035    21A     -1.349450
      22A     -1.345471    23A     -1.306742    24A     -1.274876
      25A     -1.183040    26A     -1.109916    27A     -1.081860
      28A     -1.032480    29A     -0.939746    30A     -0.908919
      31A     -0.875730    32A     -0.835595    33A     -0.813175
      34A     -0.767548    35A     -0.753593    36A     -0.740038
      37A     -0.720690    38A     -0.710980    39A     -0.694691
      40A     -0.683881    41A     -0.675647    42A     -0.654605
      43A     -0.651338    44A     -0.639532    45A     -0.628683
      46A     -0.618257    47A     -0.603899    48A     -0.595125
      49A     -0.578491    50A     -0.560463    51A     -0.556725
      52A     -0.544284    53A     -0.538436    54A     -0.522518
      55A     -0.497174    56A     -0.480225    57A     -0.472259
      58A     -0.464745    59A     -0.460128    60A     -0.451509
      61A     -0.438548    62A     -0.434648    63A     -0.395794
      64A     -0.350566

  @DF-RHF Final Energy:  -886.31947687947559

   => Energetics <=

    Nuclear Repulsion Energy =           1327.3893692494734751
    One-Electron Energy =               -3852.1845294621011817
    Two-Electron Energy =                1638.4756833331521193
    Total Energy =                       -886.3194768794755873
  Basis Set: (AUG-CC-PVTZ AUX)
    Blend: AUG-CC-PVTZ-RI
    Molecular point group: c1

    Geometry (in Angstrom), charge = 0, multiplicity = 1:

       Center              X                  Y                   Z               Mass
    ------------   -----------------  -----------------  -----------------  -----------------
         O           -1.248095075539    -0.660070564873     1.025982067154    15.994914619570
         O           -1.244969075539     2.475448435127    -0.692695932846    15.994914619570
         O           -3.216524075539     1.513696435127     0.738354067154    15.994914619570
         O           -2.357023075539    -3.074239564873     0.088407067154    15.994914619570
         O            1.360535924461     2.239631435127    -0.083074932846    15.994914619570
         N            0.843409924461     0.037820435127     0.249410067154    14.003074004430
         N            3.057231924461     0.713100435127    -0.300259932846    14.003074004430
         N            4.716468924461    -0.844057564873    -0.578830932846    14.003074004430
         C           -1.289478075539     1.071027435127    -0.598609932846    12.000000000000
         C           -2.715165075539     0.647804435127    -0.263925932846    12.000000000000
         C           -0.525402075539     0.474117435127     0.593561067154    12.000000000000
         C           -2.529250075539    -0.724288564873     0.354523067154    12.000000000000
         C           -2.528458775539    -1.707840664873    -0.513484332846    12.000000000000
         C            1.219780924461    -1.268810564873     0.304741067154    12.000000000000
         C            1.755599924461     1.060032435127    -0.065935932846    12.000000000000
         C            2.511106924461    -1.616542564873     0.040462067154    12.000000000000
         C            3.411988924461    -0.558055564873    -0.265457932846    12.000000000000
         H           -0.937600075539     0.584001435127    -1.521423932846     1.007825032230
         H           -3.362576075539     0.635262435127    -1.152997932846     1.007825032230
         H           -0.440284075539     1.214477435127     1.397465067154     1.007825032230
         H           -3.281951075539    -0.916136564873     1.124250067154     1.007825032230
         H           -1.713302075539    -1.707707564873    -1.375996932846     1.007825032230
         H           -3.485555075539    -1.841406564873    -1.190667932846     1.007825032230
         H           -0.297519075539     2.705776435127    -0.531532932846     1.007825032230
         H           -2.847550075539     2.392340435127     0.502130067154     1.007825032230
         H            0.434316924461    -1.970839564873     0.562535067154     1.007825032230
         H           -2.433868075539    -3.805834564873    -0.549765932846     1.007825032230
         H            2.829117924461    -2.652800564873     0.067389067154     1.007825032230
         H            5.125185924461    -1.678263564873    -0.168946932846     1.007825032230
         H            5.319819924461    -0.027456564873    -0.574826932846     1.007825032230

  Basis Set: AUG-CC-PVTZ
    Blend: AUG-CC-PVTZ
  Basis Set: (AUG-CC-PVTZ AUX)
    Blend: AUG-CC-PVTZ-JKFIT
	 Reference Energy          =    -886.3194768794755873 [Eh]
	 Singles Energy            =      -0.0000000000000000 [Eh]
	 Same-Spin Energy          =      -0.9042861916669751 [Eh]
	 Opposite-Spin Energy      =      -2.7194911089190588 [Eh]
	 Correlation Energy        =      -3.6237773005860339 [Eh]
	 Total Energy              =    -889.9432541800616718 [Eh]

	 ================> DF-SCS-MP2 Energies <==================
	-----------------------------------------------------------
	 SCS Same-Spin Scale       =       0.3333333333333333 [-]
	 SCS Opposite-Spin Scale   =       1.2000000000000000 [-]
	 SCS Same-Spin Energy      =      -0.3014287305556583 [Eh]
	 SCS Opposite-Spin Energy  =      -3.2633893307028705 [Eh]
	 SCS Correlation Energy    =      -3.5648180612585287 [Eh]
	 SCS Total Energy          =    -889.8842949407340939 [Eh]
	-----------------------------------------------------------

  Dipole Moment: [D]
     X:     1.7071      Y:    -5.5433      Z:    -1.8152     Total:     6.0776

*** Psi4 exiting successfully. Buy a developer a beer!
