                               Psi4 1.3.2 release

  ==> Input File <==

--------------------------------------------------------------------------
#psi4
#
memory 32 gb

molecule  {
0 1
  O       -1.2716589    -0.6612910     1.0763868
  O       -1.2449750     2.4828510    -0.6861630
  O       -3.2165300     1.5210990     0.7448870
  O       -2.3570290    -3.0668370     0.0949400
  O        1.3605300     2.2470340    -0.0765420
  N        0.8434040     0.0452230     0.2559430
  N        3.0572260     0.7205030    -0.2937270
  N        4.7164630    -0.8366550    -0.5722980
  C       -1.2894840     1.0784300    -0.5920770
  C       -2.7151710     0.6552070    -0.2573930
  C       -0.5254080     0.4815200     0.6000940
  C       -2.5292560    -0.7168860     0.3610560
  C       -2.5283440    -1.8503930    -0.6392900
  C        1.2197750    -1.2614080     0.3112740
  C        1.7555940     1.0674350    -0.0594030
  C        2.5111010    -1.6091400     0.0469950
  C        3.4119830    -0.5506530    -0.2589250
  H       -0.9376060     0.5914040    -1.5148910
  H       -3.3625820     0.6426650    -1.1464650
  H       -0.4402900     1.2218800     1.4039980
  H       -3.2541801    -0.9088801     1.1569627
  H       -1.7133080    -1.7003050    -1.3694640
  H       -3.4855610    -1.8340040    -1.1841350
  H       -0.2975250     2.7131790    -0.5250000
  H       -2.8475560     2.3997430     0.5086630
  H        0.4343110    -1.9634370     0.5690680
  H       -2.4338740    -3.7984320    -0.5432330
  H        2.8291120    -2.6453980     0.0739220
  H        5.1251800    -1.6708610    -0.1624140
  H        5.3198140    -0.0200540    -0.5682940
units angstrom
no_reorient  #important for SAPT in psi4, default
symmetry c1  #important for SAPT in psi4, default
}

set PROPERTIES_ORIGIN ["COM"]
properties('MP2/aug-cc-pvtz', properties = ['dipole'])
--------------------------------------------------------------------------

    Molecular point group: c1
  Charge       = 0
  Multiplicity = 1
  Basis Set: AUG-CC-PVTZ
    Blend: AUG-CC-PVTZ
  Basis Set: (AUG-CC-PVTZ AUX)
    Blend: AUG-CC-PVTZ-JKFIT

    Orbital Energies [Eh]
    ---------------------

    Doubly Occupied:

       1A    -20.581843     2A    -20.581778     3A    -20.558450
       4A    -20.557536     5A    -20.522830     6A    -15.638521
       7A    -15.600452     8A    -15.554169     9A    -11.389294
      10A    -11.358611    11A    -11.343402    12A    -11.329419
      13A    -11.301103    14A    -11.298193    15A    -11.294648
      16A    -11.293146    17A    -11.249320    18A     -1.422632
      19A     -1.395665    20A     -1.379777    21A     -1.370621
      22A     -1.346430    23A     -1.306888    24A     -1.274804
      25A     -1.183037    26A     -1.082789    27A     -1.066072
      28A     -1.021052    29A     -0.935708    30A     -0.909945
      31A     -0.877618    32A     -0.831913    33A     -0.810499
      34A     -0.767583    35A     -0.751582    36A     -0.734947
      37A     -0.720275    38A     -0.702721    39A     -0.698092
      40A     -0.684698    41A     -0.672274    42A     -0.652841
      43A     -0.651593    44A     -0.638214    45A     -0.620415
      46A     -0.614669    47A     -0.605869    48A     -0.594630
      49A     -0.575023    50A     -0.564159    51A     -0.554068
      52A     -0.546008    53A     -0.537939    54A     -0.531919
      55A     -0.498838    56A     -0.477286    57A     -0.475028
      58A     -0.461697    59A     -0.460340    60A     -0.453746
      61A     -0.441427    62A     -0.434144    63A     -0.395996
      64A     -0.350878

  @DF-RHF Final Energy:  -886.37033587551014

   => Energetics <=

    Nuclear Repulsion Energy =           1322.2954404425215671
    One-Electron Energy =               -3842.2574228852199667
    Two-Electron Energy =                1633.5916465671880360
    Total Energy =                       -886.3703358755101362
  Basis Set: (AUG-CC-PVTZ AUX)
    Blend: AUG-CC-PVTZ-RI
    Molecular point group: c1

    Geometry (in Angstrom), charge = 0, multiplicity = 1:

       Center              X                  Y                   Z               Mass
    ------------   -----------------  -----------------  -----------------  -----------------
         O           -1.270223997198    -0.660722994731     1.073391523144    15.994914619570
         O           -1.243540097198     2.483419005269    -0.689158276856    15.994914619570
         O           -3.215095097198     1.521667005269     0.741891723144    15.994914619570
         O           -2.355594097198    -3.066268994731     0.091944723144    15.994914619570
         O            1.361964902802     2.247602005269    -0.079537276856    15.994914619570
         N            0.844838902802     0.045791005269     0.252947723144    14.003074004430
         N            3.058660902802     0.721071005269    -0.296722276856    14.003074004430
         N            4.717897902802    -0.836086994731    -0.575293276856    14.003074004430
         C           -1.288049097198     1.078998005269    -0.595072276856    12.000000000000
         C           -2.713736097198     0.655775005269    -0.260388276856    12.000000000000
         C           -0.523973097198     0.482088005269     0.597098723144    12.000000000000
         C           -2.527821097198    -0.716317994731     0.358060723144    12.000000000000
         C           -2.526909097198    -1.849824994731    -0.642285276856    12.000000000000
         C            1.221209902802    -1.260839994731     0.308278723144    12.000000000000
         C            1.757028902802     1.068003005269    -0.062398276856    12.000000000000
         C            2.512535902802    -1.608571994731     0.043999723144    12.000000000000
         C            3.413417902802    -0.550084994731    -0.261920276856    12.000000000000
         H           -0.936171097198     0.591972005269    -1.517886276856     1.007825032230
         H           -3.361147097198     0.643233005269    -1.149460276856     1.007825032230
         H           -0.438855097198     1.222448005269     1.401002723144     1.007825032230
         H           -3.252745197198    -0.908312094731     1.153967423144     1.007825032230
         H           -1.711873097198    -1.699736994731    -1.372459276856     1.007825032230
         H           -3.484126097198    -1.833435994731    -1.187130276856     1.007825032230
         H           -0.296090097198     2.713747005269    -0.527995276856     1.007825032230
         H           -2.846121097198     2.400311005269     0.505667723144     1.007825032230
         H            0.435745902802    -1.962868994731     0.566072723144     1.007825032230
         H           -2.432439097198    -3.797863994731    -0.546228276856     1.007825032230
         H            2.830546902802    -2.644829994731     0.070926723144     1.007825032230
         H            5.126614902802    -1.670292994731    -0.165409276856     1.007825032230
         H            5.321248902802    -0.019485994731    -0.571289276856     1.007825032230

  Basis Set: AUG-CC-PVTZ
    Blend: AUG-CC-PVTZ
  Basis Set: (AUG-CC-PVTZ AUX)
    Blend: AUG-CC-PVTZ-JKFIT
	 Reference Energy          =    -886.3703358755101362 [Eh]
	 Singles Energy            =      -0.0000000000000000 [Eh]
	 Same-Spin Energy          =      -0.9014771524099721 [Eh]
	 Opposite-Spin Energy      =      -2.7160949841506485 [Eh]
	 Correlation Energy        =      -3.6175721365606206 [Eh]
	 Total Energy              =    -889.9879080120707613 [Eh]

	 ================> DF-SCS-MP2 Energies <==================
	-----------------------------------------------------------
	 SCS Same-Spin Scale       =       0.3333333333333333 [-]
	 SCS Opposite-Spin Scale   =       1.2000000000000000 [-]
	 SCS Same-Spin Energy      =      -0.3004923841366574 [Eh]
	 SCS Opposite-Spin Energy  =      -3.2593139809807781 [Eh]
	 SCS Correlation Energy    =      -3.5598063651174354 [Eh]
	 SCS Total Energy          =    -889.9301422406275606 [Eh]
	-----------------------------------------------------------

  Dipole Moment: [D]
     X:     1.8318      Y:    -5.8983      Z:    -1.8948     Total:     6.4604

*** Psi4 exiting successfully. Buy a developer a beer!
