                               Psi4 1.3.2 release

  ==> Input File <==

--------------------------------------------------------------------------
#psi4
#
memory 32 gb

molecule  {
0 1
  O       -1.2481010    -0.6526680     1.0325150
  O       -1.2449750     2.4828510    -0.6861630
  O       -3.2165300     1.5210990     0.7448870
  O       -2.3570290    -3.0668370     0.0949400
  O        1.3605300     2.2470340    -0.0765420
  N        0.8434040     0.0452230     0.2559430
  N        3.0146148     0.7081158    -0.2813051
  N        4.7071179    -0.8830717    -0.5651786
  C       -1.2894840     1.0784300    -0.5920770
  C       -2.7151710     0.6552070    -0.2573930
  C       -0.5254080     0.4815200     0.6000940
  C       -2.5292560    -0.7168860     0.3610560
  C       -2.5283440    -1.8503930    -0.6392900
  C        1.2197750    -1.2614080     0.3112740
  C        1.7555940     1.0674350    -0.0594030
  C        2.5111010    -1.6091400     0.0469950
  C        3.4119830    -0.5506530    -0.2589250
  H       -0.9376060     0.5914040    -1.5148910
  H       -3.3625820     0.6426650    -1.1464650
  H       -0.4402900     1.2218800     1.4039980
  H       -3.2819570    -0.9087340     1.1307830
  H       -1.7133080    -1.7003050    -1.3694640
  H       -3.4855610    -1.8340040    -1.1841350
  H       -0.2975250     2.7131790    -0.5250000
  H       -2.8475560     2.3997430     0.5086630
  H        0.4343110    -1.9634370     0.5690680
  H       -2.4338740    -3.7984320    -0.5432330
  H        2.8291120    -2.6453980     0.0739220
  H        5.1251800    -1.6708610    -0.1624140
  H        5.3198140    -0.0200540    -0.5682940
units angstrom
no_reorient  #important for SAPT in psi4, default
symmetry c1  #important for SAPT in psi4, default
}

set PROPERTIES_ORIGIN ["COM"]
properties('MP2/aug-cc-pvtz', properties = ['dipole'])
--------------------------------------------------------------------------

    Molecular point group: c1
  Charge       = 0
  Multiplicity = 1
  Basis Set: AUG-CC-PVTZ
    Blend: AUG-CC-PVTZ
  Basis Set: (AUG-CC-PVTZ AUX)
    Blend: AUG-CC-PVTZ-JKFIT

    Orbital Energies [Eh]
    ---------------------

    Doubly Occupied:

       1A    -20.581637     2A    -20.580342     3A    -20.556964
       4A    -20.555999     5A    -20.517870     6A    -15.634648
       7A    -15.604462     8A    -15.550372     9A    -11.384009
      10A    -11.362342    11A    -11.339928    12A    -11.327060
      13A    -11.300478    14A    -11.296020    15A    -11.295560
      16A    -11.292067    17A    -11.246523    18A     -1.428434
      19A     -1.396734    20A     -1.379246    21A     -1.371998
      22A     -1.345410    23A     -1.306782    24A     -1.272824
      25A     -1.192680    26A     -1.081192    27A     -1.066804
      28A     -1.020878    29A     -0.936859    30A     -0.906941
      31A     -0.884306    32A     -0.833100    33A     -0.810723
      34A     -0.766610    35A     -0.752645    36A     -0.735205
      37A     -0.728389    38A     -0.703273    39A     -0.697648
      40A     -0.685937    41A     -0.670436    42A     -0.656504
      43A     -0.650299    44A     -0.638619    45A     -0.618505
      46A     -0.614021    47A     -0.604121    48A     -0.594528
      49A     -0.574971    50A     -0.569196    51A     -0.553163
      52A     -0.545263    53A     -0.536900    54A     -0.531625
      55A     -0.497395    56A     -0.476705    57A     -0.473446
      58A     -0.461178    59A     -0.456227    60A     -0.451768
      61A     -0.438976    62A     -0.431044    63A     -0.398427
      64A     -0.349281

  @DF-RHF Final Energy:  -886.36914170380339

   => Energetics <=

    Nuclear Repulsion Energy =           1325.0142191992872540
    One-Electron Energy =               -3847.7197167568665463
    Two-Electron Energy =                1636.3363558537757854
    Total Energy =                       -886.3691417038035070
  Basis Set: (AUG-CC-PVTZ AUX)
    Blend: AUG-CC-PVTZ-RI
    Molecular point group: c1

    Geometry (in Angstrom), charge = 0, multiplicity = 1:

       Center              X                  Y                   Z               Mass
    ------------   -----------------  -----------------  -----------------  -----------------
         O           -1.245108062935    -0.649280559126     1.031389320235    15.994914619570
         O           -1.241982062935     2.486238440874    -0.687288679765    15.994914619570
         O           -3.213537062935     1.524486440874     0.743761320235    15.994914619570
         O           -2.354036062935    -3.063449559126     0.093814320235    15.994914619570
         O            1.363522937065     2.250421440874    -0.077667679765    15.994914619570
         N            0.846396937065     0.048610440874     0.254817320235    14.003074004430
         N            3.017607737065     0.711503240874    -0.282430779765    14.003074004430
         N            4.710110837065    -0.879684259126    -0.566304279765    14.003074004430
         C           -1.286491062935     1.081817440874    -0.593202679765    12.000000000000
         C           -2.712178062935     0.658594440874    -0.258518679765    12.000000000000
         C           -0.522415062935     0.484907440874     0.598968320235    12.000000000000
         C           -2.526263062935    -0.713498559126     0.359930320235    12.000000000000
         C           -2.525351062935    -1.847005559126    -0.640415679765    12.000000000000
         C            1.222767937065    -1.258020559126     0.310148320235    12.000000000000
         C            1.758586937065     1.070822440874    -0.060528679765    12.000000000000
         C            2.514093937065    -1.605752559126     0.045869320235    12.000000000000
         C            3.414975937065    -0.547265559126    -0.260050679765    12.000000000000
         H           -0.934613062935     0.594791440874    -1.516016679765     1.007825032230
         H           -3.359589062935     0.646052440874    -1.147590679765     1.007825032230
         H           -0.437297062935     1.225267440874     1.402872320235     1.007825032230
         H           -3.278964062935    -0.905346559126     1.129657320235     1.007825032230
         H           -1.710315062935    -1.696917559126    -1.370589679765     1.007825032230
         H           -3.482568062935    -1.830616559126    -1.185260679765     1.007825032230
         H           -0.294532062935     2.716566440874    -0.526125679765     1.007825032230
         H           -2.844563062935     2.403130440874     0.507537320235     1.007825032230
         H            0.437303937065    -1.960049559126     0.567942320235     1.007825032230
         H           -2.430881062935    -3.795044559126    -0.544358679765     1.007825032230
         H            2.832104937065    -2.642010559126     0.072796320235     1.007825032230
         H            5.128172937065    -1.667473559126    -0.163539679765     1.007825032230
         H            5.322806937065    -0.016666559126    -0.569419679765     1.007825032230

  Basis Set: AUG-CC-PVTZ
    Blend: AUG-CC-PVTZ
  Basis Set: (AUG-CC-PVTZ AUX)
    Blend: AUG-CC-PVTZ-JKFIT
	 Reference Energy          =    -886.3691417038033933 [Eh]
	 Singles Energy            =      -0.0000000000000000 [Eh]
	 Same-Spin Energy          =      -0.9015644031970282 [Eh]
	 Opposite-Spin Energy      =      -2.7145854180664601 [Eh]
	 Correlation Energy        =      -3.6161498212634884 [Eh]
	 Total Energy              =    -889.9852915250668275 [Eh]

	 ================> DF-SCS-MP2 Energies <==================
	-----------------------------------------------------------
	 SCS Same-Spin Scale       =       0.3333333333333333 [-]
	 SCS Opposite-Spin Scale   =       1.2000000000000000 [-]
	 SCS Same-Spin Energy      =      -0.3005214677323427 [Eh]
	 SCS Opposite-Spin Energy  =      -3.2575025016797521 [Eh]
	 SCS Correlation Energy    =      -3.5580239694120950 [Eh]
	 SCS Total Energy          =    -889.9271656732155407 [Eh]
	-----------------------------------------------------------

  Dipole Moment: [D]
     X:     1.9336      Y:    -5.9776      Z:    -1.8568     Total:     6.5512

*** Psi4 exiting successfully. Buy a developer a beer!
