                               Psi4 1.3.2 release

  ==> Input File <==

--------------------------------------------------------------------------
#psi4
#
memory 32 gb

molecule  {
0 1
  O       -1.2481010    -0.6526680     1.0325150
  O       -1.2449750     2.4828510    -0.6861630
  O       -3.2165300     1.5210990     0.7448870
  O       -2.3570290    -3.0668370     0.0949400
  O        1.3605300     2.2470340    -0.0765420
  N        0.8434040     0.0452230     0.2559430
  N        3.0572260     0.7205030    -0.2937270
  N        4.7164630    -0.8366550    -0.5722980
  C       -1.2894840     1.0784300    -0.5920770
  C       -2.7151710     0.6552070    -0.2573930
  C       -0.5254080     0.4815200     0.6000940
  C       -2.5137351    -0.7061608     0.3796188
  C       -2.5283440    -1.8503930    -0.6392900
  C        1.2197750    -1.2614080     0.3112740
  C        1.7555940     1.0674350    -0.0594030
  C        2.5111010    -1.6091400     0.0469950
  C        3.4119830    -0.5506530    -0.2589250
  H       -0.9376060     0.5914040    -1.5148910
  H       -3.3602336     0.6616348    -1.1482354
  H       -0.4402900     1.2218800     1.4039980
  H       -3.2819570    -0.9087340     1.1307830
  H       -1.7133080    -1.7003050    -1.3694640
  H       -3.4855610    -1.8340040    -1.1841350
  H       -0.2975250     2.7131790    -0.5250000
  H       -2.8475560     2.3997430     0.5086630
  H        0.4343110    -1.9634370     0.5690680
  H       -2.4338740    -3.7984320    -0.5432330
  H        2.8291120    -2.6453980     0.0739220
  H        5.1251800    -1.6708610    -0.1624140
  H        5.3198140    -0.0200540    -0.5682940
units angstrom
no_reorient  #important for SAPT in psi4, default
symmetry c1  #important for SAPT in psi4, default
}

set PROPERTIES_ORIGIN ["COM"]
properties('MP2/aug-cc-pvtz', properties = ['dipole'])
--------------------------------------------------------------------------

    Molecular point group: c1
  Charge       = 0
  Multiplicity = 1
  Basis Set: AUG-CC-PVTZ
    Blend: AUG-CC-PVTZ
  Basis Set: (AUG-CC-PVTZ AUX)
    Blend: AUG-CC-PVTZ-JKFIT

    Orbital Energies [Eh]
    ---------------------

    Doubly Occupied:

       1A    -20.584343     2A    -20.581072     3A    -20.557414
       4A    -20.556850     5A    -20.522499     6A    -15.637728
       7A    -15.600241     8A    -15.553836     9A    -11.388846
      10A    -11.358339    11A    -11.342970    12A    -11.329164
      13A    -11.300156    14A    -11.296560    15A    -11.296413
      16A    -11.291977    17A    -11.249102    18A     -1.434517
      19A     -1.397934    20A     -1.380172    21A     -1.372588
      22A     -1.346160    23A     -1.306789    24A     -1.274836
      25A     -1.182826    26A     -1.082737    27A     -1.064722
      28A     -1.021397    29A     -0.934182    30A     -0.910341
      31A     -0.877193    32A     -0.832970    33A     -0.813080
      34A     -0.767405    35A     -0.753622    36A     -0.736356
      37A     -0.720811    38A     -0.701866    39A     -0.698811
      40A     -0.686276    41A     -0.672212    42A     -0.655402
      43A     -0.651629    44A     -0.639674    45A     -0.621075
      46A     -0.615723    47A     -0.607312    48A     -0.593928
      49A     -0.576747    50A     -0.571509    51A     -0.554080
      52A     -0.544500    53A     -0.538937    54A     -0.531531
      55A     -0.498244    56A     -0.476501    57A     -0.474057
      58A     -0.460916    59A     -0.459389    60A     -0.453252
      61A     -0.439975    62A     -0.433271    63A     -0.395608
      64A     -0.350529

  @DF-RHF Final Energy:  -886.37340857246272

   => Energetics <=

    Nuclear Repulsion Energy =           1324.0152674629541707
    One-Electron Energy =               -3845.6551487292113052
    Two-Electron Energy =                1635.2664726937946398
    Total Energy =                       -886.3734085724627221
  Basis Set: (AUG-CC-PVTZ AUX)
    Blend: AUG-CC-PVTZ-RI
    Molecular point group: c1

    Geometry (in Angstrom), charge = 0, multiplicity = 1:

       Center              X                  Y                   Z               Mass
    ------------   -----------------  -----------------  -----------------  -----------------
         O           -1.248876964876    -0.653276091236     1.031605988523    15.994914619570
         O           -1.245750964876     2.482242908764    -0.687072011477    15.994914619570
         O           -3.217305964876     1.520490908764     0.743977988523    15.994914619570
         O           -2.357804964876    -3.067445091236     0.094030988523    15.994914619570
         O            1.359754035124     2.246425908764    -0.077451011477    15.994914619570
         N            0.842628035124     0.044614908764     0.255033988523    14.003074004430
         N            3.056450035124     0.719894908764    -0.294636011477    14.003074004430
         N            4.715687035124    -0.837263091236    -0.573207011477    14.003074004430
         C           -1.290259964876     1.077821908764    -0.592986011477    12.000000000000
         C           -2.715946964876     0.654598908764    -0.258302011477    12.000000000000
         C           -0.526183964876     0.480911908764     0.599184988523    12.000000000000
         C           -2.514511064876    -0.706768891236     0.378709788523    12.000000000000
         C           -2.529119964876    -1.851001091236    -0.640199011477    12.000000000000
         C            1.218999035124    -1.262016091236     0.310364988523    12.000000000000
         C            1.754818035124     1.066826908764    -0.060312011477    12.000000000000
         C            2.510325035124    -1.609748091236     0.046085988523    12.000000000000
         C            3.411207035124    -0.551261091236    -0.259834011477    12.000000000000
         H           -0.938381964876     0.590795908764    -1.515800011477     1.007825032230
         H           -3.361009564876     0.661026708764    -1.149144411477     1.007825032230
         H           -0.441065964876     1.221271908764     1.403088988523     1.007825032230
         H           -3.282732964876    -0.909342091236     1.129873988523     1.007825032230
         H           -1.714083964876    -1.700913091236    -1.370373011477     1.007825032230
         H           -3.486336964876    -1.834612091236    -1.185044011477     1.007825032230
         H           -0.298300964876     2.712570908764    -0.525909011477     1.007825032230
         H           -2.848331964876     2.399134908764     0.507753988523     1.007825032230
         H            0.433535035124    -1.964045091236     0.568158988523     1.007825032230
         H           -2.434649964876    -3.799040091236    -0.544142011477     1.007825032230
         H            2.828336035124    -2.646006091236     0.073012988523     1.007825032230
         H            5.124404035124    -1.671469091236    -0.163323011477     1.007825032230
         H            5.319038035124    -0.020662091236    -0.569203011477     1.007825032230

  Basis Set: AUG-CC-PVTZ
    Blend: AUG-CC-PVTZ
  Basis Set: (AUG-CC-PVTZ AUX)
    Blend: AUG-CC-PVTZ-JKFIT
	 Reference Energy          =    -886.3734085724627221 [Eh]
	 Singles Energy            =      -0.0000000000000000 [Eh]
	 Same-Spin Energy          =      -0.9011035818500031 [Eh]
	 Opposite-Spin Energy      =      -2.7146091546338109 [Eh]
	 Correlation Energy        =      -3.6157127364838137 [Eh]
	 Total Energy              =    -889.9891213089465509 [Eh]

	 ================> DF-SCS-MP2 Energies <==================
	-----------------------------------------------------------
	 SCS Same-Spin Scale       =       0.3333333333333333 [-]
	 SCS Opposite-Spin Scale   =       1.2000000000000000 [-]
	 SCS Same-Spin Energy      =      -0.3003678606166676 [Eh]
	 SCS Opposite-Spin Energy  =      -3.2575309855605732 [Eh]
	 SCS Correlation Energy    =      -3.5578988461772409 [Eh]
	 SCS Total Energy          =    -889.9313074186400172 [Eh]
	-----------------------------------------------------------

  Dipole Moment: [D]
     X:     1.8012      Y:    -5.9080      Z:    -1.7880     Total:     6.4301

*** Psi4 exiting successfully. Buy a developer a beer!
