                               Psi4 1.4a3.dev225

  ==> Input File <==

--------------------------------------------------------------------------
#psi4
#
memory 32 gb

molecule  {
0 1
  O       -1.3191770     0.6538360    -1.0992360
  O       -1.5735610    -2.4640850     0.5135810
  O       -3.5606630    -1.0699430    -0.4600060
  O       -1.4399290     3.1254620     0.1265180
  O        1.1065530    -2.3833650     0.0076020
  N        0.7686360    -0.1579440    -0.3706350
  N        2.9363770    -0.9938720     0.1460080
  N        4.7058880     0.4431110     0.3611260
  C       -1.3768610    -1.0680440     0.5552780
  C       -2.7379840    -0.3746360     0.4578480
  C       -0.6377490    -0.5042940    -0.6790150
  C       -2.3707440     0.9655450    -0.1585060
  C       -1.8992030     1.9895750     0.8571380
  C        1.2309690     1.1190800    -0.4442230
  C        1.6104480    -1.2470590    -0.0585760
  C        2.4991812     1.3659693    -0.2088242
  C        3.3802090     0.2523040     0.0808410
  H       -0.8441360    -0.7686950     1.4698480
  H       -3.2257400    -0.2778790     1.4400230
  H       -0.6227070    -1.2428120    -1.4883720
  H       -3.1941750     1.3785730    -0.7472070
  H       -1.0952130     1.5703990     1.4802000
  H       -2.7410530     2.2466610     1.5166010
  H       -0.6710550    -2.8260740     0.3542250
  H       -3.3063470    -2.0105220    -0.3629290
  H        0.4929290     1.8778260    -0.6840360
  H       -1.2098800     3.8154810     0.7720340
  H        2.9334840     2.3875570    -0.2389120
  H        5.1589650     1.2712730    -0.0008400
  H        5.2635310    -0.4031270     0.3606700
units angstrom
no_reorient  #important for SAPT in psi4, default
symmetry c1  #important for SAPT in psi4, default
}

set PROPERTIES_ORIGIN ["COM"]
properties('MP2/aug-cc-pvtz', properties = ['dipole'])
--------------------------------------------------------------------------

    Molecular point group: c1
  Charge       = 0
  Multiplicity = 1
  Basis Set: AUG-CC-PVTZ
    Blend: AUG-CC-PVTZ
  Basis Set: (AUG-CC-PVTZ AUX)
    Blend: AUG-CC-PVTZ-JKFIT

    Orbital Energies [Eh]
    ---------------------

    Doubly Occupied:

       1A    -20.585627     2A    -20.579686     3A    -20.558257
       4A    -20.555395     5A    -20.519457     6A    -15.627502
       7A    -15.604281     8A    -15.552979     9A    -11.385555
      10A    -11.362320    11A    -11.337423    12A    -11.314105
      13A    -11.302454    14A    -11.296673    15A    -11.295397
      16A    -11.292279    17A    -11.246594    18A     -1.427565
      19A     -1.393367    20A     -1.381967    21A     -1.374273
      22A     -1.345481    23A     -1.304474    24A     -1.271069
      25A     -1.182754    26A     -1.085943    27A     -1.066758
      28A     -1.015639    29A     -0.934825    30A     -0.902338
      31A     -0.878163    32A     -0.829391    33A     -0.811433
      34A     -0.768388    35A     -0.749110    36A     -0.733678
      37A     -0.722700    38A     -0.706879    39A     -0.702425
      40A     -0.685635    41A     -0.674291    42A     -0.652509
      43A     -0.644951    44A     -0.632364    45A     -0.619218
      46A     -0.616351    47A     -0.609501    48A     -0.589824
      49A     -0.576247    50A     -0.564143    51A     -0.554980
      52A     -0.547206    53A     -0.535409    54A     -0.530544
      55A     -0.497335    56A     -0.479826    57A     -0.472866
      58A     -0.461956    59A     -0.456947    60A     -0.451457
      61A     -0.442105    62A     -0.429034    63A     -0.392878
      64A     -0.352438

  @DF-RHF Final Energy:  -886.37188973428476

   => Energetics <=

    Nuclear Repulsion Energy =           1335.3900958067458760
    One-Electron Energy =               -3868.5747281962512716
    Two-Electron Energy =                1646.8127426552205179
    Total Energy =                       -886.3718897342846503
  Basis Set: (AUG-CC-PVTZ AUX)
    Blend: AUG-CC-PVTZ-RI
    Molecular point group: c1

    Geometry (in Angstrom), charge = 0, multiplicity = 1:

       Center              X                  Y                   Z               Mass
    ------------   -----------------  -----------------  -----------------  -----------------
         O           -1.329537108468     0.682911486158    -1.083013367020    15.994914619570
         O           -1.583921108468    -2.435009513842     0.529803632980    15.994914619570
         O           -3.571023108468    -1.040867513842    -0.443783367020    15.994914619570
         O           -1.450289108468     3.154537486158     0.142740632980    15.994914619570
         O            1.096192891532    -2.354289513842     0.023824632980    15.994914619570
         N            0.758275891532    -0.128868513842    -0.354412367020    14.003074004430
         N            2.926016891532    -0.964796513842     0.162230632980    14.003074004430
         N            4.695527891532     0.472186486158     0.377348632980    14.003074004430
         C           -1.387221108468    -1.038968513842     0.571500632980    12.000000000000
         C           -2.748344108468    -0.345560513842     0.474070632980    12.000000000000
         C           -0.648109108468    -0.475218513842    -0.662792367020    12.000000000000
         C           -2.381104108468     0.994620486158    -0.142283367020    12.000000000000
         C           -1.909563108468     2.018650486158     0.873360632980    12.000000000000
         C            1.220608891532     1.148155486158    -0.428000367020    12.000000000000
         C            1.600087891532    -1.217983513842    -0.042353367020    12.000000000000
         C            2.488821091532     1.395044786158    -0.192601567020    12.000000000000
         C            3.369848891532     0.281379486158     0.097063632980    12.000000000000
         H           -0.854496108468    -0.739619513842     1.486070632980     1.007825032230
         H           -3.236100108468    -0.248803513842     1.456245632980     1.007825032230
         H           -0.633067108468    -1.213736513842    -1.472149367020     1.007825032230
         H           -3.204535108468     1.407648486158    -0.730984367020     1.007825032230
         H           -1.105573108468     1.599474486158     1.496422632980     1.007825032230
         H           -2.751413108468     2.275736486158     1.532823632980     1.007825032230
         H           -0.681415108468    -2.796998513842     0.370447632980     1.007825032230
         H           -3.316707108468    -1.981446513842    -0.346706367020     1.007825032230
         H            0.482568891532     1.906901486158    -0.667813367020     1.007825032230
         H           -1.220240108468     3.844556486158     0.788256632980     1.007825032230
         H            2.923123891532     2.416632486158    -0.222689367020     1.007825032230
         H            5.148604891532     1.300348486158     0.015382632980     1.007825032230
         H            5.253170891532    -0.374051513842     0.376892632980     1.007825032230

  Basis Set: AUG-CC-PVTZ
    Blend: AUG-CC-PVTZ
  Basis Set: (AUG-CC-PVTZ AUX)
    Blend: AUG-CC-PVTZ-JKFIT
	 Reference Energy          =    -886.3718897342847640 [Eh]
	 Singles Energy            =      -0.0000000000000000 [Eh]
	 Same-Spin Energy          =      -0.9012611292882020 [Eh]
	 Opposite-Spin Energy      =      -2.7152932142794666 [Eh]
	 Correlation Energy        =      -3.6165543435676684 [Eh]
	 Total Energy              =    -889.9884440778524777 [Eh]

	 ================> DF-SCS-MP2 Energies <==================
	-----------------------------------------------------------
	 SCS Same-Spin Scale       =       0.3333333333333333 [-]
	 SCS Opposite-Spin Scale   =       1.2000000000000000 [-]
	 SCS Same-Spin Energy      =      -0.3004203764294007 [Eh]
	 SCS Opposite-Spin Energy  =      -3.2583518571353598 [Eh]
	 SCS Correlation Energy    =      -3.5587722335647602 [Eh]
	 SCS Total Energy          =    -889.9306619678495736 [Eh]
	-----------------------------------------------------------

  Dipole Moment: [D]
     X:     2.9398      Y:     5.7921      Z:     1.9748     Total:     6.7890

*** Psi4 exiting successfully. Buy a developer a beer!
