                               Psi4 1.3.2 release

  ==> Input File <==

--------------------------------------------------------------------------
#psi4
#
memory 32 gb

molecule  {
0 1
  O       -1.2481010    -0.6526680     1.0325150
  O       -1.2449750     2.4828510    -0.6861630
  O       -3.2165300     1.5210990     0.7448870
  O       -2.3570290    -3.0668370     0.0949400
  O        1.3605300     2.2470340    -0.0765420
  N        0.8434040     0.0452230     0.2559430
  N        3.0572260     0.7205030    -0.2937270
  N        4.7164630    -0.8366550    -0.5722980
  C       -1.2894840     1.0784300    -0.5920770
  C       -2.7151710     0.6552070    -0.2573930
  C       -0.5384790     0.4321041     0.6068900
  C       -2.5292560    -0.7168860     0.3610560
  C       -2.5283440    -1.8503930    -0.6392900
  C        1.2197750    -1.2614080     0.3112740
  C        1.7900853     1.0332712    -0.0665573
  C        2.5111010    -1.6091400     0.0469950
  C        3.4119830    -0.5506530    -0.2589250
  H       -0.9376060     0.5914040    -1.5148910
  H       -3.3625820     0.6426650    -1.1464650
  H       -0.4402900     1.2218800     1.4039980
  H       -3.2819570    -0.9087340     1.1307830
  H       -1.7133080    -1.7003050    -1.3694640
  H       -3.4855610    -1.8340040    -1.1841350
  H       -0.2975250     2.7131790    -0.5250000
  H       -2.8475560     2.3997430     0.5086630
  H        0.4343110    -1.9634370     0.5690680
  H       -2.4338740    -3.7984320    -0.5432330
  H        2.8291120    -2.6453980     0.0739220
  H        5.1251800    -1.6708610    -0.1624140
  H        5.3198140    -0.0200540    -0.5682940
units angstrom
no_reorient  #important for SAPT in psi4, default
symmetry c1  #important for SAPT in psi4, default
}

set PROPERTIES_ORIGIN ["COM"]
properties('MP2/aug-cc-pvtz', properties = ['dipole'])
--------------------------------------------------------------------------

    Molecular point group: c1
  Charge       = 0
  Multiplicity = 1
  Basis Set: AUG-CC-PVTZ
    Blend: AUG-CC-PVTZ
  Basis Set: (AUG-CC-PVTZ AUX)
    Blend: AUG-CC-PVTZ-JKFIT

    Orbital Energies [Eh]
    ---------------------

    Doubly Occupied:

       1A    -20.586343     2A    -20.583880     3A    -20.556528
       4A    -20.553820     5A    -20.508015     6A    -15.638558
       7A    -15.604178     8A    -15.557222     9A    -11.385802
      10A    -11.363554    11A    -11.341670    12A    -11.330193
      13A    -11.303036    14A    -11.299898    15A    -11.294595
      16A    -11.291946    17A    -11.250971    18A     -1.442142
      19A     -1.384805    20A     -1.378744    21A     -1.375149
      22A     -1.343690    23A     -1.298417    24A     -1.273463
      25A     -1.194355    26A     -1.082568    27A     -1.071054
      28A     -1.019592    29A     -0.936193    30A     -0.911043
      31A     -0.882653    32A     -0.832330    33A     -0.814975
      34A     -0.772517    35A     -0.753272    36A     -0.733349
      37A     -0.722124    38A     -0.703709    39A     -0.699038
      40A     -0.688568    41A     -0.674924    42A     -0.654934
      43A     -0.648387    44A     -0.639376    45A     -0.623300
      46A     -0.614443    47A     -0.608109    48A     -0.584687
      49A     -0.578072    50A     -0.571179    51A     -0.554555
      52A     -0.545697    53A     -0.535700    54A     -0.527021
      55A     -0.491553    56A     -0.478418    57A     -0.473749
      58A     -0.462979    59A     -0.451607    60A     -0.450758
      61A     -0.440769    62A     -0.431483    63A     -0.396151
      64A     -0.349667

  @DF-RHF Final Energy:  -886.36608388447007

   => Energetics <=

    Nuclear Repulsion Energy =           1323.9775492621729427
    One-Electron Energy =               -3845.5843102361250203
    Two-Electron Energy =                1635.2406770894820056
    Total Energy =                       -886.3660838844700720
  Basis Set: (AUG-CC-PVTZ AUX)
    Blend: AUG-CC-PVTZ-RI
    Molecular point group: c1

    Geometry (in Angstrom), charge = 0, multiplicity = 1:

       Center              X                  Y                   Z               Mass
    ------------   -----------------  -----------------  -----------------  -----------------
         O           -1.249158454384    -0.648542049337     1.032532695083    15.994914619570
         O           -1.246032454384     2.486976950663    -0.686145304917    15.994914619570
         O           -3.217587454384     1.525224950663     0.744904695083    15.994914619570
         O           -2.358086454384    -3.062711049337     0.094957695083    15.994914619570
         O            1.359472545616     2.251159950663    -0.076524304917    15.994914619570
         N            0.842346545616     0.049348950663     0.255960695083    14.003074004430
         N            3.056168545616     0.724628950663    -0.293709304917    14.003074004430
         N            4.715405545616    -0.832529049337    -0.572280304917    14.003074004430
         C           -1.290541454384     1.082555950663    -0.592059304917    12.000000000000
         C           -2.716228454384     0.659332950663    -0.257375304917    12.000000000000
         C           -0.539536454384     0.436230050663     0.606907695083    12.000000000000
         C           -2.530313454384    -0.712760049337     0.361073695083    12.000000000000
         C           -2.529401454384    -1.846267049337    -0.639272304917    12.000000000000
         C            1.218717545616    -1.257282049337     0.311291695083    12.000000000000
         C            1.789027845616     1.037397150663    -0.066539604917    12.000000000000
         C            2.510043545616    -1.605014049337     0.047012695083    12.000000000000
         C            3.410925545616    -0.546527049337    -0.258907304917    12.000000000000
         H           -0.938663454384     0.595529950663    -1.514873304917     1.007825032230
         H           -3.363639454384     0.646790950663    -1.146447304917     1.007825032230
         H           -0.441347454384     1.226005950663     1.404015695083     1.007825032230
         H           -3.283014454384    -0.904608049337     1.130800695083     1.007825032230
         H           -1.714365454384    -1.696179049337    -1.369446304917     1.007825032230
         H           -3.486618454384    -1.829878049337    -1.184117304917     1.007825032230
         H           -0.298582454384     2.717304950663    -0.524982304917     1.007825032230
         H           -2.848613454384     2.403868950663     0.508680695083     1.007825032230
         H            0.433253545616    -1.959311049337     0.569085695083     1.007825032230
         H           -2.434931454384    -3.794306049337    -0.543215304917     1.007825032230
         H            2.828054545616    -2.641272049337     0.073939695083     1.007825032230
         H            5.124122545616    -1.666735049337    -0.162396304917     1.007825032230
         H            5.318756545616    -0.015928049337    -0.568276304917     1.007825032230

  Basis Set: AUG-CC-PVTZ
    Blend: AUG-CC-PVTZ
  Basis Set: (AUG-CC-PVTZ AUX)
    Blend: AUG-CC-PVTZ-JKFIT
	 Reference Energy          =    -886.3660838844700720 [Eh]
	 Singles Energy            =      -0.0000000000000000 [Eh]
	 Same-Spin Energy          =      -0.9021441848331948 [Eh]
	 Opposite-Spin Energy      =      -2.7153645780984355 [Eh]
	 Correlation Energy        =      -3.6175087629316303 [Eh]
	 Total Energy              =    -889.9835926474016787 [Eh]

	 ================> DF-SCS-MP2 Energies <==================
	-----------------------------------------------------------
	 SCS Same-Spin Scale       =       0.3333333333333333 [-]
	 SCS Opposite-Spin Scale   =       1.2000000000000000 [-]
	 SCS Same-Spin Energy      =      -0.3007147282777316 [Eh]
	 SCS Opposite-Spin Energy  =      -3.2584374937181226 [Eh]
	 SCS Correlation Energy    =      -3.5591522219958542 [Eh]
	 SCS Total Energy          =    -889.9252361064659453 [Eh]
	-----------------------------------------------------------

  Dipole Moment: [D]
     X:     1.8455      Y:    -6.4853      Z:    -1.8323     Total:     6.9873

*** Psi4 exiting successfully. Buy a developer a beer!
