                               Psi4 1.3.2 release

  ==> Input File <==

--------------------------------------------------------------------------
#psi4
#
memory 32 gb

molecule  {
0 1
  O       -1.2481010    -0.6526680     1.0325150
  O       -1.2449750     2.4828510    -0.6861630
  O       -3.2165300     1.5210990     0.7448870
  O       -2.3570290    -3.0668370     0.0949400
  O        1.3605300     2.2470340    -0.0765420
  N        0.8616977     0.0772121     0.2920125
  N        3.0572260     0.7205030    -0.2937270
  N        4.7164630    -0.8366550    -0.5722980
  C       -1.2894840     1.0784300    -0.5920770
  C       -2.7151710     0.6552070    -0.2573930
  C       -0.5254080     0.4815200     0.6000940
  C       -2.5292560    -0.7168860     0.3610560
  C       -2.5283440    -1.8503930    -0.6392900
  C        1.2197750    -1.2614080     0.3112740
  C        1.7555940     1.0674350    -0.0594030
  C        2.5111010    -1.6091400     0.0469950
  C        3.4119830    -0.5506530    -0.2589250
  H       -0.9376060     0.5914040    -1.5148910
  H       -3.3625820     0.6426650    -1.1464650
  H       -0.4022748     1.2176684     1.4029410
  H       -3.2819570    -0.9087340     1.1307830
  H       -1.7133080    -1.7003050    -1.3694640
  H       -3.4855610    -1.8340040    -1.1841350
  H       -0.2975250     2.7131790    -0.5250000
  H       -2.8475560     2.3997430     0.5086630
  H        0.4343110    -1.9634370     0.5690680
  H       -2.4338740    -3.7984320    -0.5432330
  H        2.8291120    -2.6453980     0.0739220
  H        5.1251800    -1.6708610    -0.1624140
  H        5.3198140    -0.0200540    -0.5682940
units angstrom
no_reorient  #important for SAPT in psi4, default
symmetry c1  #important for SAPT in psi4, default
}

set PROPERTIES_ORIGIN ["COM"]
properties('MP2/aug-cc-pvtz', properties = ['dipole'])
--------------------------------------------------------------------------

    Molecular point group: c1
  Charge       = 0
  Multiplicity = 1
  Basis Set: AUG-CC-PVTZ
    Blend: AUG-CC-PVTZ
  Basis Set: (AUG-CC-PVTZ AUX)
    Blend: AUG-CC-PVTZ-JKFIT

    Orbital Energies [Eh]
    ---------------------

    Doubly Occupied:

       1A    -20.582732     2A    -20.582617     3A    -20.557436
       4A    -20.556588     5A    -20.517571     6A    -15.635415
       7A    -15.600496     8A    -15.553196     9A    -11.384172
      10A    -11.358409    11A    -11.340823    12A    -11.330510
      13A    -11.301557    14A    -11.297392    15A    -11.297079
      16A    -11.293061    17A    -11.251802    18A     -1.429300
      19A     -1.396767    20A     -1.379896    21A     -1.372877
      22A     -1.345829    23A     -1.304308    24A     -1.271632
      25A     -1.181947    26A     -1.082981    27A     -1.067963
      28A     -1.022071    29A     -0.935574    30A     -0.911561
      31A     -0.876774    32A     -0.832349    33A     -0.811932
      34A     -0.767454    35A     -0.751096    36A     -0.734444
      37A     -0.720642    38A     -0.703692    39A     -0.698340
      40A     -0.686366    41A     -0.672956    42A     -0.655006
      43A     -0.651206    44A     -0.640186    45A     -0.620698
      46A     -0.615339    47A     -0.606835    48A     -0.589877
      49A     -0.576562    50A     -0.570356    51A     -0.553502
      52A     -0.545399    53A     -0.537392    54A     -0.531346
      55A     -0.493522    56A     -0.477568    57A     -0.474212
      58A     -0.461473    59A     -0.458398    60A     -0.452650
      61A     -0.441217    62A     -0.433476    63A     -0.394455
      64A     -0.352258

  @DF-RHF Final Energy:  -886.37174041597382

   => Energetics <=

    Nuclear Repulsion Energy =           1323.5736734972781505
    One-Electron Energy =               -3844.8257434692145580
    Two-Electron Energy =                1634.8803295559623621
    Total Energy =                       -886.3717404159738180
  Basis Set: (AUG-CC-PVTZ AUX)
    Blend: AUG-CC-PVTZ-RI
    Molecular point group: c1

    Geometry (in Angstrom), charge = 0, multiplicity = 1:

       Center              X                  Y                   Z               Mass
    ------------   -----------------  -----------------  -----------------  -----------------
         O           -1.249312462344    -0.654493278253     1.030441586548    15.994914619570
         O           -1.246186462344     2.481025721747    -0.688236413452    15.994914619570
         O           -3.217741462344     1.519273721747     0.742813586548    15.994914619570
         O           -2.358240462344    -3.068662278253     0.092866586548    15.994914619570
         O            1.359318537656     2.245208721747    -0.078615413452    15.994914619570
         N            0.860486237656     0.075386821747     0.289939086548    14.003074004430
         N            3.056014537656     0.718677721747    -0.295800413452    14.003074004430
         N            4.715251537656    -0.838480278253    -0.574371413452    14.003074004430
         C           -1.290695462344     1.076604721747    -0.594150413452    12.000000000000
         C           -2.716382462344     0.653381721747    -0.259466413452    12.000000000000
         C           -0.526619462344     0.479694721747     0.598020586548    12.000000000000
         C           -2.530467462344    -0.718711278253     0.358982586548    12.000000000000
         C           -2.529555462344    -1.852218278253    -0.641363413452    12.000000000000
         C            1.218563537656    -1.263233278253     0.309200586548    12.000000000000
         C            1.754382537656     1.065609721747    -0.061476413452    12.000000000000
         C            2.509889537656    -1.610965278253     0.044921586548    12.000000000000
         C            3.410771537656    -0.552478278253    -0.260998413452    12.000000000000
         H           -0.938817462344     0.589578721747    -1.516964413452     1.007825032230
         H           -3.363793462344     0.640839721747    -1.148538413452     1.007825032230
         H           -0.403486262344     1.215843121747     1.400867586548     1.007825032230
         H           -3.283168462344    -0.910559278253     1.128709586548     1.007825032230
         H           -1.714519462344    -1.702130278253    -1.371537413452     1.007825032230
         H           -3.486772462344    -1.835829278253    -1.186208413452     1.007825032230
         H           -0.298736462344     2.711353721747    -0.527073413452     1.007825032230
         H           -2.848767462344     2.397917721747     0.506589586548     1.007825032230
         H            0.433099537656    -1.965262278253     0.566994586548     1.007825032230
         H           -2.435085462344    -3.800257278253    -0.545306413452     1.007825032230
         H            2.827900537656    -2.647223278253     0.071848586548     1.007825032230
         H            5.123968537656    -1.672686278253    -0.164487413452     1.007825032230
         H            5.318602537656    -0.021879278253    -0.570367413452     1.007825032230

  Basis Set: AUG-CC-PVTZ
    Blend: AUG-CC-PVTZ
  Basis Set: (AUG-CC-PVTZ AUX)
    Blend: AUG-CC-PVTZ-JKFIT
	 Reference Energy          =    -886.3717404159738180 [Eh]
	 Singles Energy            =      -0.0000000000000000 [Eh]
	 Same-Spin Energy          =      -0.9011115806544597 [Eh]
	 Opposite-Spin Energy      =      -2.7148981126499327 [Eh]
	 Correlation Energy        =      -3.6160096933043926 [Eh]
	 Total Energy              =    -889.9877501092781813 [Eh]

	 ================> DF-SCS-MP2 Energies <==================
	-----------------------------------------------------------
	 SCS Same-Spin Scale       =       0.3333333333333333 [-]
	 SCS Opposite-Spin Scale   =       1.2000000000000000 [-]
	 SCS Same-Spin Energy      =      -0.3003705268848199 [Eh]
	 SCS Opposite-Spin Energy  =      -3.2578777351799193 [Eh]
	 SCS Correlation Energy    =      -3.5582482620647391 [Eh]
	 SCS Total Energy          =    -889.9299886780385123 [Eh]
	-----------------------------------------------------------

  Dipole Moment: [D]
     X:     1.7398      Y:    -6.1018      Z:    -1.8362     Total:     6.6053

*** Psi4 exiting successfully. Buy a developer a beer!
