                               Psi4 1.3.2 release

  ==> Input File <==

--------------------------------------------------------------------------
#psi4
#
memory 32 gb

molecule  {
0 1
  O       -1.2481010    -0.6526680     1.0325150
  O       -1.2449750     2.4828510    -0.6861630
  O       -3.2165300     1.5210990     0.7448870
  O       -2.3570290    -3.0668370     0.0949400
  O        1.3605300     2.2470340    -0.0765420
  N        0.8434040     0.0452230     0.2559430
  N        3.0572260     0.7205030    -0.2937270
  N        4.7164630    -0.8366550    -0.5722980
  C       -1.2894840     1.0784300    -0.5920770
  C       -2.7151710     0.6552070    -0.2573930
  C       -0.5441166     0.4874891     0.5851859
  C       -2.5235355    -0.6956642     0.3485870
  C       -2.5283440    -1.8503930    -0.6392900
  C        1.2197750    -1.2614080     0.3112740
  C        1.7555940     1.0674350    -0.0594030
  C        2.5111010    -1.6091400     0.0469950
  C        3.4119830    -0.5506530    -0.2589250
  H       -0.9376060     0.5914040    -1.5148910
  H       -3.3625820     0.6426650    -1.1464650
  H       -0.4402900     1.2218800     1.4039980
  H       -3.2819570    -0.9087340     1.1307830
  H       -1.7133080    -1.7003050    -1.3694640
  H       -3.4855610    -1.8340040    -1.1841350
  H       -0.2975250     2.7131790    -0.5250000
  H       -2.8475560     2.3997430     0.5086630
  H        0.4343110    -1.9634370     0.5690680
  H       -2.4338740    -3.7984320    -0.5432330
  H        2.8291120    -2.6453980     0.0739220
  H        5.1251800    -1.6708610    -0.1624140
  H        5.3198140    -0.0200540    -0.5682940
units angstrom
no_reorient  #important for SAPT in psi4, default
symmetry c1  #important for SAPT in psi4, default
}

set PROPERTIES_ORIGIN ["COM"]
properties('MP2/aug-cc-pvtz', properties = ['dipole'])
--------------------------------------------------------------------------

    Molecular point group: c1
  Charge       = 0
  Multiplicity = 1
  Basis Set: AUG-CC-PVTZ
    Blend: AUG-CC-PVTZ
  Basis Set: (AUG-CC-PVTZ AUX)
    Blend: AUG-CC-PVTZ-JKFIT

    Orbital Energies [Eh]
    ---------------------

    Doubly Occupied:

       1A    -20.583711     2A    -20.582839     3A    -20.558970
       4A    -20.558378     5A    -20.521317     6A    -15.635880
       7A    -15.599344     8A    -15.552690     9A    -11.387381
      10A    -11.357241    11A    -11.342759    12A    -11.327925
      13A    -11.301952    14A    -11.297659    15A    -11.297240
      16A    -11.293354    17A    -11.247903    18A     -1.431329
      19A     -1.396112    20A     -1.381200    21A     -1.373346
      22A     -1.347741    23A     -1.305153    24A     -1.271939
      25A     -1.181270    26A     -1.081244    27A     -1.072234
      28A     -1.023969    29A     -0.934882    30A     -0.908455
      31A     -0.877855    32A     -0.832782    33A     -0.812610
      34A     -0.765702    35A     -0.752404    36A     -0.736453
      37A     -0.720511    38A     -0.703290    39A     -0.699464
      40A     -0.684969    41A     -0.672468    42A     -0.653667
      43A     -0.651555    44A     -0.639587    45A     -0.621002
      46A     -0.613758    47A     -0.606892    48A     -0.593005
      49A     -0.576602    50A     -0.566758    51A     -0.555997
      52A     -0.546360    53A     -0.539251    54A     -0.530575
      55A     -0.497748    56A     -0.479887    57A     -0.476857
      58A     -0.461190    59A     -0.460200    60A     -0.455194
      61A     -0.441788    62A     -0.431992    63A     -0.395093
      64A     -0.349664

  @DF-RHF Final Energy:  -886.37108334960192

   => Energetics <=

    Nuclear Repulsion Energy =           1324.2211237962108044
    One-Electron Energy =               -3846.0673197971300397
    Two-Electron Energy =                1635.4751126513172039
    Total Energy =                       -886.3710833496018040
  Basis Set: (AUG-CC-PVTZ AUX)
    Blend: AUG-CC-PVTZ-RI
    Molecular point group: c1

    Geometry (in Angstrom), charge = 0, multiplicity = 1:

       Center              X                  Y                   Z               Mass
    ------------   -----------------  -----------------  -----------------  -----------------
         O           -1.247459871930    -0.654010277955     1.033866487401    15.994914619570
         O           -1.244333871930     2.481508722045    -0.684811512599    15.994914619570
         O           -3.215888871930     1.519756722045     0.746238487401    15.994914619570
         O           -2.356387871930    -3.068179277955     0.096291487401    15.994914619570
         O            1.361171128070     2.245691722045    -0.075190512599    15.994914619570
         N            0.844045128070     0.043880722045     0.257294487401    14.003074004430
         N            3.057867128070     0.719160722045    -0.292375512599    14.003074004430
         N            4.717104128070    -0.837997277955    -0.570946512599    14.003074004430
         C           -1.288842871930     1.077087722045    -0.590725512599    12.000000000000
         C           -2.714529871930     0.653864722045    -0.256041512599    12.000000000000
         C           -0.543475471930     0.486146822045     0.586537387401    12.000000000000
         C           -2.522894371930    -0.697006477955     0.349938487401    12.000000000000
         C           -2.527702871930    -1.851735277955    -0.637938512599    12.000000000000
         C            1.220416128070    -1.262750277955     0.312625487401    12.000000000000
         C            1.756235128070     1.066092722045    -0.058051512599    12.000000000000
         C            2.511742128070    -1.610482277955     0.048346487401    12.000000000000
         C            3.412624128070    -0.551995277955    -0.257573512599    12.000000000000
         H           -0.936964871930     0.590061722045    -1.513539512599     1.007825032230
         H           -3.361940871930     0.641322722045    -1.145113512599     1.007825032230
         H           -0.439648871930     1.220537722045     1.405349487401     1.007825032230
         H           -3.281315871930    -0.910076277955     1.132134487401     1.007825032230
         H           -1.712666871930    -1.701647277955    -1.368112512599     1.007825032230
         H           -3.484919871930    -1.835346277955    -1.182783512599     1.007825032230
         H           -0.296883871930     2.711836722045    -0.523648512599     1.007825032230
         H           -2.846914871930     2.398400722045     0.510014487401     1.007825032230
         H            0.434952128070    -1.964779277955     0.570419487401     1.007825032230
         H           -2.433232871930    -3.799774277955    -0.541881512599     1.007825032230
         H            2.829753128070    -2.646740277955     0.075273487401     1.007825032230
         H            5.125821128070    -1.672203277955    -0.161062512599     1.007825032230
         H            5.320455128070    -0.021396277955    -0.566942512599     1.007825032230

  Basis Set: AUG-CC-PVTZ
    Blend: AUG-CC-PVTZ
  Basis Set: (AUG-CC-PVTZ AUX)
    Blend: AUG-CC-PVTZ-JKFIT
	 Reference Energy          =    -886.3710833496019177 [Eh]
	 Singles Energy            =      -0.0000000000000000 [Eh]
	 Same-Spin Energy          =      -0.9016582271803586 [Eh]
	 Opposite-Spin Energy      =      -2.7155167708694927 [Eh]
	 Correlation Energy        =      -3.6171749980498511 [Eh]
	 Total Energy              =    -889.9882583476518221 [Eh]

	 ================> DF-SCS-MP2 Energies <==================
	-----------------------------------------------------------
	 SCS Same-Spin Scale       =       0.3333333333333333 [-]
	 SCS Opposite-Spin Scale   =       1.2000000000000000 [-]
	 SCS Same-Spin Energy      =      -0.3005527423934529 [Eh]
	 SCS Opposite-Spin Energy  =      -3.2586201250433913 [Eh]
	 SCS Correlation Energy    =      -3.5591728674368444 [Eh]
	 SCS Total Energy          =    -889.9302562170387318 [Eh]
	-----------------------------------------------------------

  Dipole Moment: [D]
     X:     1.6372      Y:    -5.9177      Z:    -1.8415     Total:     6.4102

*** Psi4 exiting successfully. Buy a developer a beer!
