                               Psi4 1.3.2 release

  ==> Input File <==

--------------------------------------------------------------------------
#psi4
#
memory 32 gb

molecule  {
0 1
  O       -1.2481010    -0.6526680     1.0325150
  O       -1.2449750     2.4828510    -0.6861630
  O       -3.2165300     1.5210990     0.7448870
  O       -2.3570290    -3.0668370     0.0949400
  O        1.3605300     2.2470340    -0.0765420
  N        0.8434040     0.0452230     0.2559430
  N        3.0572260     0.7205030    -0.2937270
  N        4.7164630    -0.8366550    -0.5722980
  C       -1.2920536     1.1014704    -0.5785923
  C       -2.7151710     0.6552070    -0.2573930
  C       -0.5254080     0.4815200     0.6000940
  C       -2.5292560    -0.7168860     0.3610560
  C       -2.5283440    -1.8503930    -0.6392900
  C        1.2197750    -1.2614080     0.3112740
  C        1.7555940     1.0674350    -0.0594030
  C        2.5111010    -1.6091400     0.0469950
  C        3.4119830    -0.5506530    -0.2589250
  H       -0.9376060     0.5914040    -1.5148910
  H       -3.3625820     0.6426650    -1.1464650
  H       -0.4498922     1.2344379     1.3932217
  H       -3.2819570    -0.9087340     1.1307830
  H       -1.7133080    -1.7003050    -1.3694640
  H       -3.4855610    -1.8340040    -1.1841350
  H       -0.2975250     2.7131790    -0.5250000
  H       -2.8475560     2.3997430     0.5086630
  H        0.4343110    -1.9634370     0.5690680
  H       -2.4338740    -3.7984320    -0.5432330
  H        2.8291120    -2.6453980     0.0739220
  H        5.1251800    -1.6708610    -0.1624140
  H        5.3198140    -0.0200540    -0.5682940
units angstrom
no_reorient  #important for SAPT in psi4, default
symmetry c1  #important for SAPT in psi4, default
}

set PROPERTIES_ORIGIN ["COM"]
properties('MP2/aug-cc-pvtz', properties = ['dipole'])
--------------------------------------------------------------------------

    Molecular point group: c1
  Charge       = 0
  Multiplicity = 1
  Basis Set: AUG-CC-PVTZ
    Blend: AUG-CC-PVTZ
  Basis Set: (AUG-CC-PVTZ AUX)
    Blend: AUG-CC-PVTZ-JKFIT

    Orbital Energies [Eh]
    ---------------------

    Doubly Occupied:

       1A    -20.581997     2A    -20.581882     3A    -20.559441
       4A    -20.557349     5A    -20.522401     6A    -15.637288
       7A    -15.599894     8A    -15.553436     9A    -11.388509
      10A    -11.357927    11A    -11.341060    12A    -11.328577
      13A    -11.300814    14A    -11.297277    15A    -11.296949
      16A    -11.292477    17A    -11.248582    18A     -1.429796
      19A     -1.396578    20A     -1.384748    21A     -1.373402
      22A     -1.349955    23A     -1.306231    24A     -1.273805
      25A     -1.182309    26A     -1.081887    27A     -1.066565
      28A     -1.020811    29A     -0.935217    30A     -0.909427
      31A     -0.877306    32A     -0.831696    33A     -0.811701
      34A     -0.766895    35A     -0.753053    36A     -0.737431
      37A     -0.719979    38A     -0.703618    39A     -0.698310
      40A     -0.685764    41A     -0.672969    42A     -0.654574
      43A     -0.651855    44A     -0.638345    45A     -0.621342
      46A     -0.615776    47A     -0.606576    48A     -0.595123
      49A     -0.576209    50A     -0.569835    51A     -0.555865
      52A     -0.545705    53A     -0.539466    54A     -0.532034
      55A     -0.498439    56A     -0.477489    57A     -0.473235
      58A     -0.462423    59A     -0.460296    60A     -0.449445
      61A     -0.439502    62A     -0.432965    63A     -0.395073
      64A     -0.350030

  @DF-RHF Final Energy:  -886.37279001741308

   => Energetics <=

    Nuclear Repulsion Energy =           1323.8306133300516194
    One-Electron Energy =               -3845.2929752737395575
    Two-Electron Energy =                1635.0895719262748571
    Total Energy =                       -886.3727900174130809
  Basis Set: (AUG-CC-PVTZ AUX)
    Blend: AUG-CC-PVTZ-RI
    Molecular point group: c1

    Geometry (in Angstrom), charge = 0, multiplicity = 1:

       Center              X                  Y                   Z               Mass
    ------------   -----------------  -----------------  -----------------  -----------------
         O           -1.247934374328    -0.653857451765     1.031894008851    15.994914619570
         O           -1.244808374328     2.481661548235    -0.686783991149    15.994914619570
         O           -3.216363374328     1.519909548235     0.744266008851    15.994914619570
         O           -2.356862374328    -3.068026451765     0.094319008851    15.994914619570
         O            1.360696625672     2.245844548235    -0.077162991149    15.994914619570
         N            0.843570625672     0.044033548235     0.255322008851    14.003074004430
         N            3.057392625672     0.719313548235    -0.294347991149    14.003074004430
         N            4.716629625672    -0.837844451765    -0.572918991149    14.003074004430
         C           -1.291886974328     1.100280948235    -0.579213291149    12.000000000000
         C           -2.715004374328     0.654017548235    -0.258013991149    12.000000000000
         C           -0.525241374328     0.480330548235     0.599473008851    12.000000000000
         C           -2.529089374328    -0.718075451765     0.360435008851    12.000000000000
         C           -2.528177374328    -1.851582451765    -0.639910991149    12.000000000000
         C            1.219941625672    -1.262597451765     0.310653008851    12.000000000000
         C            1.755760625672     1.066245548235    -0.060023991149    12.000000000000
         C            2.511267625672    -1.610329451765     0.046374008851    12.000000000000
         C            3.412149625672    -0.551842451765    -0.259545991149    12.000000000000
         H           -0.937439374328     0.590214548235    -1.515511991149     1.007825032230
         H           -3.362415374328     0.641475548235    -1.147085991149     1.007825032230
         H           -0.449725574328     1.233248448235     1.392600708851     1.007825032230
         H           -3.281790374328    -0.909923451765     1.130162008851     1.007825032230
         H           -1.713141374328    -1.701494451765    -1.370084991149     1.007825032230
         H           -3.485394374328    -1.835193451765    -1.184755991149     1.007825032230
         H           -0.297358374328     2.711989548235    -0.525620991149     1.007825032230
         H           -2.847389374328     2.398553548235     0.508042008851     1.007825032230
         H            0.434477625672    -1.964626451765     0.568447008851     1.007825032230
         H           -2.433707374328    -3.799621451765    -0.543853991149     1.007825032230
         H            2.829278625672    -2.646587451765     0.073301008851     1.007825032230
         H            5.125346625672    -1.672050451765    -0.163034991149     1.007825032230
         H            5.319980625672    -0.021243451765    -0.568914991149     1.007825032230

  Basis Set: AUG-CC-PVTZ
    Blend: AUG-CC-PVTZ
  Basis Set: (AUG-CC-PVTZ AUX)
    Blend: AUG-CC-PVTZ-JKFIT
	 Reference Energy          =    -886.3727900174130809 [Eh]
	 Singles Energy            =      -0.0000000000000000 [Eh]
	 Same-Spin Energy          =      -0.9012792905400255 [Eh]
	 Opposite-Spin Energy      =      -2.7146877450626112 [Eh]
	 Correlation Energy        =      -3.6159670356026368 [Eh]
	 Total Energy              =    -889.9887570530156609 [Eh]

	 ================> DF-SCS-MP2 Energies <==================
	-----------------------------------------------------------
	 SCS Same-Spin Scale       =       0.3333333333333333 [-]
	 SCS Opposite-Spin Scale   =       1.2000000000000000 [-]
	 SCS Same-Spin Energy      =      -0.3004264301800085 [Eh]
	 SCS Opposite-Spin Energy  =      -3.2576252940751336 [Eh]
	 SCS Correlation Energy    =      -3.5580517242551419 [Eh]
	 SCS Total Energy          =    -889.9308417416682460 [Eh]
	-----------------------------------------------------------

  Dipole Moment: [D]
     X:     1.7185      Y:    -5.8859      Z:    -1.8158     Total:     6.3949

*** Psi4 exiting successfully. Buy a developer a beer!
