                               Psi4 1.3.2 release

  ==> Input File <==

--------------------------------------------------------------------------
#psi4
#
memory 32 gb

molecule  {
0 1
  O       -1.2481010    -0.6526680     1.0325150
  O       -1.2449750     2.4828510    -0.6861630
  O       -3.2165300     1.5210990     0.7448870
  O       -2.3570290    -3.0668370     0.0949400
  O        1.3605300     2.2470340    -0.0765420
  N        0.8434040     0.0452230     0.2559430
  N        3.0572260     0.7205030    -0.2937270
  N        4.7164630    -0.8366550    -0.5722980
  C       -1.2894840     1.0784300    -0.5920770
  C       -2.7151710     0.6552070    -0.2573930
  C       -0.5254080     0.4815200     0.6000940
  C       -2.5292560    -0.7168860     0.3610560
  C       -2.5283440    -1.8503930    -0.6392900
  C        1.2197750    -1.2614080     0.3112740
  C        1.7555940     1.0674350    -0.0594030
  C        2.5111010    -1.6091400     0.0469950
  C        3.4131721    -0.5311198    -0.2727168
  H       -0.9376060     0.5914040    -1.5148910
  H       -3.3625820     0.6426650    -1.1464650
  H       -0.4402900     1.2218800     1.4039980
  H       -3.2819570    -0.9087340     1.1307830
  H       -1.7133080    -1.7003050    -1.3694640
  H       -3.4855610    -1.8340040    -1.1841350
  H       -0.2975250     2.7131790    -0.5250000
  H       -2.8475560     2.3997430     0.5086630
  H        0.4343110    -1.9634370     0.5690680
  H       -2.4338740    -3.7984320    -0.5432330
  H        2.8291120    -2.6453980     0.0739220
  H        5.1404028    -1.6673180    -0.1707658
  H        5.3198140    -0.0200540    -0.5682940
units angstrom
no_reorient  #important for SAPT in psi4, default
symmetry c1  #important for SAPT in psi4, default
}

set PROPERTIES_ORIGIN ["COM"]
properties('MP2/aug-cc-pvtz', properties = ['dipole'])
--------------------------------------------------------------------------

    Molecular point group: c1
  Charge       = 0
  Multiplicity = 1
  Basis Set: AUG-CC-PVTZ
    Blend: AUG-CC-PVTZ
  Basis Set: (AUG-CC-PVTZ AUX)
    Blend: AUG-CC-PVTZ-JKFIT

    Orbital Energies [Eh]
    ---------------------

    Doubly Occupied:

       1A    -20.581890     2A    -20.581226     3A    -20.557682
       4A    -20.557422     5A    -20.523918     6A    -15.635753
       7A    -15.599164     8A    -15.553906     9A    -11.390381
      10A    -11.357938    11A    -11.341250    12A    -11.325794
      13A    -11.300871    14A    -11.296655    15A    -11.296489
      16A    -11.292795    17A    -11.248791    18A     -1.429234
      19A     -1.397631    20A     -1.380042    21A     -1.372548
      22A     -1.346380    23A     -1.307752    24A     -1.274235
      25A     -1.186111    26A     -1.079279    27A     -1.067508
      28A     -1.020393    29A     -0.934854    30A     -0.907731
      31A     -0.879648    32A     -0.832378    33A     -0.811454
      34A     -0.766167    35A     -0.751882    36A     -0.736124
      37A     -0.721669    38A     -0.702926    39A     -0.698325
      40A     -0.685640    41A     -0.672318    42A     -0.655606
      43A     -0.651148    44A     -0.638577    45A     -0.619311
      46A     -0.614501    47A     -0.605514    48A     -0.594912
      49A     -0.575585    50A     -0.569659    51A     -0.553996
      52A     -0.545824    53A     -0.537468    54A     -0.531644
      55A     -0.498216    56A     -0.477262    57A     -0.474355
      58A     -0.462731    59A     -0.460570    60A     -0.452778
      61A     -0.440212    62A     -0.433608    63A     -0.397637
      64A     -0.348832

  @DF-RHF Final Energy:  -886.37352153885740

   => Energetics <=

    Nuclear Repulsion Energy =           1323.7691318826384759
    One-Electron Energy =               -3845.1971162996815110
    Two-Electron Energy =                1635.0544628781858592
    Total Energy =                       -886.3735215388574034
  Basis Set: (AUG-CC-PVTZ AUX)
    Blend: AUG-CC-PVTZ-RI
    Molecular point group: c1

    Geometry (in Angstrom), charge = 0, multiplicity = 1:

       Center              X                  Y                   Z               Mass
    ------------   -----------------  -----------------  -----------------  -----------------
         O           -1.248222847522    -0.653646942139     1.033230470717    15.994914619570
         O           -1.245096847522     2.481872057861    -0.685447529283    15.994914619570
         O           -3.216651847522     1.520120057861     0.745602470717    15.994914619570
         O           -2.357150847522    -3.067815942139     0.095655470717    15.994914619570
         O            1.360408152478     2.246055057861    -0.075826529283    15.994914619570
         N            0.843282152478     0.044244057861     0.256658470717    14.003074004430
         N            3.057104152478     0.719524057861    -0.293011529283    14.003074004430
         N            4.716341152478    -0.837633942139    -0.571582529283    14.003074004430
         C           -1.289605847522     1.077451057861    -0.591361529283    12.000000000000
         C           -2.715292847522     0.654228057861    -0.256677529283    12.000000000000
         C           -0.525529847522     0.480541057861     0.600809470717    12.000000000000
         C           -2.529377847522    -0.717864942139     0.361771470717    12.000000000000
         C           -2.528465847522    -1.851371942139    -0.638574529283    12.000000000000
         C            1.219653152478    -1.262386942139     0.311989470717    12.000000000000
         C            1.755472152478     1.066456057861    -0.058687529283    12.000000000000
         C            2.510979152478    -1.610118942139     0.047710470717    12.000000000000
         C            3.413050252478    -0.532098742139    -0.272001329283    12.000000000000
         H           -0.937727847522     0.590425057861    -1.514175529283     1.007825032230
         H           -3.362703847522     0.641686057861    -1.145749529283     1.007825032230
         H           -0.440411847522     1.220901057861     1.404713470717     1.007825032230
         H           -3.282078847522    -0.909712942139     1.131498470717     1.007825032230
         H           -1.713429847522    -1.701283942139    -1.368748529283     1.007825032230
         H           -3.485682847522    -1.834982942139    -1.183419529283     1.007825032230
         H           -0.297646847522     2.712200057861    -0.524284529283     1.007825032230
         H           -2.847677847522     2.398764057861     0.509378470717     1.007825032230
         H            0.434189152478    -1.964415942139     0.569783470717     1.007825032230
         H           -2.433995847522    -3.799410942139    -0.542517529283     1.007825032230
         H            2.828990152478    -2.646376942139     0.074637470717     1.007825032230
         H            5.140280952478    -1.668296942139    -0.170050329283     1.007825032230
         H            5.319692152478    -0.021032942139    -0.567578529283     1.007825032230

  Basis Set: AUG-CC-PVTZ
    Blend: AUG-CC-PVTZ
  Basis Set: (AUG-CC-PVTZ AUX)
    Blend: AUG-CC-PVTZ-JKFIT
	 Reference Energy          =    -886.3735215388574034 [Eh]
	 Singles Energy            =      -0.0000000000000000 [Eh]
	 Same-Spin Energy          =      -0.9008791412333172 [Eh]
	 Opposite-Spin Energy      =      -2.7145327586473265 [Eh]
	 Correlation Energy        =      -3.6154118998806437 [Eh]
	 Total Energy              =    -889.9889334387380586 [Eh]

	 ================> DF-SCS-MP2 Energies <==================
	-----------------------------------------------------------
	 SCS Same-Spin Scale       =       0.3333333333333333 [-]
	 SCS Opposite-Spin Scale   =       1.2000000000000000 [-]
	 SCS Same-Spin Energy      =      -0.3002930470777724 [Eh]
	 SCS Opposite-Spin Energy  =      -3.2574393103767916 [Eh]
	 SCS Correlation Energy    =      -3.5577323574545638 [Eh]
	 SCS Total Energy          =    -889.9312538963120005 [Eh]
	-----------------------------------------------------------

  Dipole Moment: [D]
     X:     1.7554      Y:    -5.8693      Z:    -1.8514     Total:     6.3999

*** Psi4 exiting successfully. Buy a developer a beer!
