                               Psi4 1.3.2 release

  ==> Input File <==

--------------------------------------------------------------------------
#psi4
#
memory 32 gb

molecule  {
0 1
  O       -1.2481010    -0.6526680     1.0325150
  O       -1.2449750     2.4828510    -0.6861630
  O       -3.2165300     1.5210990     0.7448870
  O       -2.3570290    -3.0668370     0.0949400
  O        1.3605300     2.2470340    -0.0765420
  N        0.8434040     0.0452230     0.2559430
  N        3.0572260     0.7205030    -0.2937270
  N        4.7164630    -0.8366550    -0.5722980
  C       -1.2894840     1.0784300    -0.5920770
  C       -2.7151710     0.6552070    -0.2573930
  C       -0.5254080     0.4815200     0.6000940
  C       -2.5292560    -0.7168860     0.3610560
  C       -2.5283440    -1.8503930    -0.6392900
  C        1.2197750    -1.2614080     0.3112740
  C        1.7555940     1.0674350    -0.0594030
  C        2.5111010    -1.6091400     0.0469950
  C        3.4119830    -0.5506530    -0.2589250
  H       -0.9376060     0.5914040    -1.5148910
  H       -3.3625820     0.6426650    -1.1464650
  H       -0.4325251     1.2894192     1.4773340
  H       -3.2819570    -0.9087340     1.1307830
  H       -1.7133080    -1.7003050    -1.3694640
  H       -3.4855610    -1.8340040    -1.1841350
  H       -0.2975250     2.7131790    -0.5250000
  H       -2.8475560     2.3997430     0.5086630
  H        0.4343110    -1.9634370     0.5690680
  H       -2.4338740    -3.7984320    -0.5432330
  H        2.8291120    -2.6453980     0.0739220
  H        5.1251800    -1.6708610    -0.1624140
  H        5.3198140    -0.0200540    -0.5682940
units angstrom
no_reorient  #important for SAPT in psi4, default
symmetry c1  #important for SAPT in psi4, default
}

set PROPERTIES_ORIGIN ["COM"]
properties('MP2/aug-cc-pvtz', properties = ['dipole'])
--------------------------------------------------------------------------

    Molecular point group: c1
  Charge       = 0
  Multiplicity = 1
  Basis Set: AUG-CC-PVTZ
    Blend: AUG-CC-PVTZ
  Basis Set: (AUG-CC-PVTZ AUX)
    Blend: AUG-CC-PVTZ-JKFIT

    Orbital Energies [Eh]
    ---------------------

    Doubly Occupied:

       1A    -20.582862     2A    -20.582505     3A    -20.557419
       4A    -20.556967     5A    -20.521795     6A    -15.637788
       7A    -15.599937     8A    -15.553409     9A    -11.388142
      10A    -11.357946    11A    -11.351714    12A    -11.328764
      13A    -11.301528    14A    -11.297513    15A    -11.297322
      16A    -11.293144    17A    -11.248840    18A     -1.429488
      19A     -1.396384    20A     -1.380035    21A     -1.373027
      22A     -1.345991    23A     -1.306126    24A     -1.273952
      25A     -1.182231    26A     -1.081306    27A     -1.068050
      28A     -1.019901    29A     -0.933431    30A     -0.909730
      31A     -0.877377    32A     -0.827250    33A     -0.812104
      34A     -0.766589    35A     -0.752404    36A     -0.731186
      37A     -0.720329    38A     -0.703038    39A     -0.698496
      40A     -0.685177    41A     -0.672368    42A     -0.651769
      43A     -0.649984    44A     -0.637793    45A     -0.620140
      46A     -0.614650    47A     -0.606158    48A     -0.593625
      49A     -0.575942    50A     -0.566819    51A     -0.553398
      52A     -0.545345    53A     -0.537599    54A     -0.528368
      55A     -0.497629    56A     -0.477619    57A     -0.474622
      58A     -0.461620    59A     -0.459805    60A     -0.452958
      61A     -0.439209    62A     -0.432329    63A     -0.394327
      64A     -0.349875

  @DF-RHF Final Energy:  -886.36605025618405

   => Energetics <=

    Nuclear Repulsion Energy =           1323.0743189330582936
    One-Electron Energy =               -3843.8304430750927168
    Two-Electron Energy =                1634.3900738858503701
    Total Energy =                       -886.3660502561840531
  Basis Set: (AUG-CC-PVTZ AUX)
    Blend: AUG-CC-PVTZ-RI
    Molecular point group: c1

    Geometry (in Angstrom), charge = 0, multiplicity = 1:

       Center              X                  Y                   Z               Mass
    ------------   -----------------  -----------------  -----------------  -----------------
         O           -1.248133226971    -0.652948005291     1.032210958698    15.994914619570
         O           -1.245007226971     2.482570994709    -0.686467041302    15.994914619570
         O           -3.216562226971     1.520818994709     0.744582958698    15.994914619570
         O           -2.357061226971    -3.067117005291     0.094635958698    15.994914619570
         O            1.360497773029     2.246753994709    -0.076846041302    15.994914619570
         N            0.843371773029     0.044942994709     0.255638958698    14.003074004430
         N            3.057193773029     0.720222994709    -0.294031041302    14.003074004430
         N            4.716430773029    -0.836935005291    -0.572602041302    14.003074004430
         C           -1.289516226971     1.078149994709    -0.592381041302    12.000000000000
         C           -2.715203226971     0.654926994709    -0.257697041302    12.000000000000
         C           -0.525440226971     0.481239994709     0.599789958698    12.000000000000
         C           -2.529288226971    -0.717166005291     0.360751958698    12.000000000000
         C           -2.528376226971    -1.850673005291    -0.639594041302    12.000000000000
         C            1.219742773029    -1.261688005291     0.310969958698    12.000000000000
         C            1.755561773029     1.067154994709    -0.059707041302    12.000000000000
         C            2.511068773029    -1.609420005291     0.046690958698    12.000000000000
         C            3.411950773029    -0.550933005291    -0.259229041302    12.000000000000
         H           -0.937638226971     0.591123994709    -1.515195041302     1.007825032230
         H           -3.362614226971     0.642384994709    -1.146769041302     1.007825032230
         H           -0.432557326971     1.289139194709     1.477029958698     1.007825032230
         H           -3.281989226971    -0.909014005291     1.130478958698     1.007825032230
         H           -1.713340226971    -1.700585005291    -1.369768041302     1.007825032230
         H           -3.485593226971    -1.834284005291    -1.184439041302     1.007825032230
         H           -0.297557226971     2.712898994709    -0.525304041302     1.007825032230
         H           -2.847588226971     2.399462994709     0.508358958698     1.007825032230
         H            0.434278773029    -1.963717005291     0.568763958698     1.007825032230
         H           -2.433906226971    -3.798712005291    -0.543537041302     1.007825032230
         H            2.829079773029    -2.645678005291     0.073617958698     1.007825032230
         H            5.125147773029    -1.671141005291    -0.162718041302     1.007825032230
         H            5.319781773029    -0.020334005291    -0.568598041302     1.007825032230

  Basis Set: AUG-CC-PVTZ
    Blend: AUG-CC-PVTZ
  Basis Set: (AUG-CC-PVTZ AUX)
    Blend: AUG-CC-PVTZ-JKFIT
	 Reference Energy          =    -886.3660502561840531 [Eh]
	 Singles Energy            =      -0.0000000000000000 [Eh]
	 Same-Spin Energy          =      -0.9017357775865040 [Eh]
	 Opposite-Spin Energy      =      -2.7162363315519178 [Eh]
	 Correlation Energy        =      -3.6179721091384218 [Eh]
	 Total Energy              =    -889.9840223653225166 [Eh]

	 ================> DF-SCS-MP2 Energies <==================
	-----------------------------------------------------------
	 SCS Same-Spin Scale       =       0.3333333333333333 [-]
	 SCS Opposite-Spin Scale   =       1.2000000000000000 [-]
	 SCS Same-Spin Energy      =      -0.3005785925288347 [Eh]
	 SCS Opposite-Spin Energy  =      -3.2594835978623014 [Eh]
	 SCS Correlation Energy    =      -3.5600621903911360 [Eh]
	 SCS Total Energy          =    -889.9261124465751891 [Eh]
	-----------------------------------------------------------

  Dipole Moment: [D]
     X:     1.7042      Y:    -5.9783      Z:    -1.8390     Total:     6.4828

*** Psi4 exiting successfully. Buy a developer a beer!
