                               Psi4 1.4a3.dev225

  ==> Input File <==

--------------------------------------------------------------------------
#psi4
#
memory 32 gb

molecule  {
0 1
  O       -1.3191770     0.6538360    -1.0992360
  O       -1.5735610    -2.4640850     0.5135810
  O       -3.5606630    -1.0699430    -0.4600060
  O       -1.4399290     3.1254620     0.1265180
  O        1.1065530    -2.3833650     0.0076020
  N        0.7686360    -0.1579440    -0.3706350
  N        2.9363770    -0.9938720     0.1460080
  N        4.7058880     0.4431110     0.3611260
  C       -1.3768610    -1.0680440     0.5552780
  C       -2.7379840    -0.3746360     0.4578480
  C       -0.6377490    -0.5042940    -0.6790150
  C       -2.3707440     0.9655450    -0.1585060
  C       -1.8992030     1.9895750     0.8571380
  C        1.2377674     1.1378580    -0.4453051
  C        1.6104480    -1.2470590    -0.0585760
  C        2.5474650     1.3753690    -0.1998620
  C        3.3802090     0.2523040     0.0808410
  H       -0.8441360    -0.7686950     1.4698480
  H       -3.2257400    -0.2778790     1.4400230
  H       -0.6227070    -1.2428120    -1.4883720
  H       -3.1941750     1.3785730    -0.7472070
  H       -1.0952130     1.5703990     1.4802000
  H       -2.7410530     2.2466610     1.5166010
  H       -0.6710550    -2.8260740     0.3542250
  H       -3.3063470    -2.0105220    -0.3629290
  H        0.4929290     1.8778260    -0.6840360
  H       -1.2098800     3.8154810     0.7720340
  H        2.9334840     2.3875570    -0.2389120
  H        5.1589650     1.2712730    -0.0008400
  H        5.2635310    -0.4031270     0.3606700
units angstrom
no_reorient  #important for SAPT in psi4, default
symmetry c1  #important for SAPT in psi4, default
}

set PROPERTIES_ORIGIN ["COM"]
properties('MP2/aug-cc-pvtz', properties = ['dipole'])
--------------------------------------------------------------------------

    Molecular point group: c1
  Charge       = 0
  Multiplicity = 1
  Basis Set: AUG-CC-PVTZ
    Blend: AUG-CC-PVTZ
  Basis Set: (AUG-CC-PVTZ AUX)
    Blend: AUG-CC-PVTZ-JKFIT

    Orbital Energies [Eh]
    ---------------------

    Doubly Occupied:

       1A    -20.586485     2A    -20.580541     3A    -20.558571
       4A    -20.555821     5A    -20.519054     6A    -15.630677
       7A    -15.601012     8A    -15.552374     9A    -11.385300
      10A    -11.359622    11A    -11.338219    12A    -11.324817
      13A    -11.303145    14A    -11.297316    15A    -11.295922
      16A    -11.292795    17A    -11.247838    18A     -1.427869
      19A     -1.392896    20A     -1.382527    21A     -1.374789
      22A     -1.345847    23A     -1.302808    24A     -1.267580
      25A     -1.181268    26A     -1.081821    27A     -1.067370
      28A     -1.016366    29A     -0.935594    30A     -0.905633
      31A     -0.876406    32A     -0.829182    33A     -0.811876
      34A     -0.766320    35A     -0.748716    36A     -0.733996
      37A     -0.722610    38A     -0.707538    39A     -0.702960
      40A     -0.685666    41A     -0.674475    42A     -0.652865
      43A     -0.648455    44A     -0.632318    45A     -0.619700
      46A     -0.617650    47A     -0.608817    48A     -0.590972
      49A     -0.577003    50A     -0.564743    51A     -0.555357
      52A     -0.547619    53A     -0.536046    54A     -0.530782
      55A     -0.493745    56A     -0.480353    57A     -0.472938
      58A     -0.462545    59A     -0.457777    60A     -0.452258
      61A     -0.441624    62A     -0.430183    63A     -0.392134
      64A     -0.350567

  @DF-RHF Final Energy:  -886.37349894664408

   => Energetics <=

    Nuclear Repulsion Energy =           1334.1744091627545004
    One-Electron Energy =               -3866.1196740892833077
    Two-Electron Energy =                1645.5717659798845034
    Total Energy =                       -886.3734989466440766
  Basis Set: (AUG-CC-PVTZ AUX)
    Blend: AUG-CC-PVTZ-RI
    Molecular point group: c1

    Geometry (in Angstrom), charge = 0, multiplicity = 1:

       Center              X                  Y                   Z               Mass
    ------------   -----------------  -----------------  -----------------  -----------------
         O           -1.332256260142     0.681520484344    -1.083402370856    15.994914619570
         O           -1.586640260142    -2.436400515656     0.529414629144    15.994914619570
         O           -3.573742260142    -1.042258515656    -0.444172370856    15.994914619570
         O           -1.453008260142     3.153146484344     0.142351629144    15.994914619570
         O            1.093473739858    -2.355680515656     0.023435629144    15.994914619570
         N            0.755556739858    -0.130259515656    -0.354801370856    14.003074004430
         N            2.923297739858    -0.966187515656     0.161841629144    14.003074004430
         N            4.692808739858     0.470795484344     0.376959629144    14.003074004430
         C           -1.389940260142    -1.040359515656     0.571111629144    12.000000000000
         C           -2.751063260142    -0.346951515656     0.473681629144    12.000000000000
         C           -0.650828260142    -0.476609515656    -0.663181370856    12.000000000000
         C           -2.383823260142     0.993229484344    -0.142672370856    12.000000000000
         C           -1.912282260142     2.017259484344     0.872971629144    12.000000000000
         C            1.224688139858     1.165542484344    -0.429471470856    12.000000000000
         C            1.597368739858    -1.219374515656    -0.042742370856    12.000000000000
         C            2.534385739858     1.403053484344    -0.184028370856    12.000000000000
         C            3.367129739858     0.279988484344     0.096674629144    12.000000000000
         H           -0.857215260142    -0.741010515656     1.485681629144     1.007825032230
         H           -3.238819260142    -0.250194515656     1.455856629144     1.007825032230
         H           -0.635786260142    -1.215127515656    -1.472538370856     1.007825032230
         H           -3.207254260142     1.406257484344    -0.731373370856     1.007825032230
         H           -1.108292260142     1.598083484344     1.496033629144     1.007825032230
         H           -2.754132260142     2.274345484344     1.532434629144     1.007825032230
         H           -0.684134260142    -2.798389515656     0.370058629144     1.007825032230
         H           -3.319426260142    -1.982837515656    -0.347095370856     1.007825032230
         H            0.479849739858     1.905510484344    -0.668202370856     1.007825032230
         H           -1.222959260142     3.843165484344     0.787867629144     1.007825032230
         H            2.920404739858     2.415241484344    -0.223078370856     1.007825032230
         H            5.145885739858     1.298957484344     0.014993629144     1.007825032230
         H            5.250451739858    -0.375442515656     0.376503629144     1.007825032230

  Basis Set: AUG-CC-PVTZ
    Blend: AUG-CC-PVTZ
  Basis Set: (AUG-CC-PVTZ AUX)
    Blend: AUG-CC-PVTZ-JKFIT
	 Reference Energy          =    -886.3734989466440766 [Eh]
	 Singles Energy            =      -0.0000000000000000 [Eh]
	 Same-Spin Energy          =      -0.9016695232813021 [Eh]
	 Opposite-Spin Energy      =      -2.7160494704896410 [Eh]
	 Correlation Energy        =      -3.6177189937709429 [Eh]
	 Total Energy              =    -889.9912179404150265 [Eh]

	 ================> DF-SCS-MP2 Energies <==================
	-----------------------------------------------------------
	 SCS Same-Spin Scale       =       0.3333333333333333 [-]
	 SCS Opposite-Spin Scale   =       1.2000000000000000 [-]
	 SCS Same-Spin Energy      =      -0.3005565077604340 [Eh]
	 SCS Opposite-Spin Energy  =      -3.2592593645875692 [Eh]
	 SCS Correlation Energy    =      -3.5598158723480031 [Eh]
	 SCS Total Energy          =    -889.9333148189921303 [Eh]
	-----------------------------------------------------------

  Dipole Moment: [D]
     X:     2.8357      Y:     5.8401      Z:     1.9548     Total:     6.7801

*** Psi4 exiting successfully. Buy a developer a beer!
