                               Psi4 1.3.2 release

  ==> Input File <==

--------------------------------------------------------------------------
#psi4
#
memory 32 gb

molecule  {
0 1
  O       -1.2481010    -0.6526680     1.0325150
  O       -1.2449750     2.4828510    -0.6861630
  O       -3.2165300     1.5210990     0.7448870
  O       -2.3570290    -3.0668370     0.0949400
  O        1.3605300     2.2470340    -0.0765420
  N        0.8434040     0.0452230     0.2559430
  N        3.0572260     0.7205030    -0.2937270
  N        4.7164630    -0.8366550    -0.5722980
  C       -1.2894840     1.0784300    -0.5920770
  C       -2.7062212     0.6433472    -0.2353233
  C       -0.5485202     0.4720500     0.6098637
  C       -2.5292560    -0.7168860     0.3610560
  C       -2.5283440    -1.8503930    -0.6392900
  C        1.2197750    -1.2614080     0.3112740
  C        1.7555940     1.0674350    -0.0594030
  C        2.5111010    -1.6091400     0.0469950
  C        3.4119830    -0.5506530    -0.2589250
  H       -0.9376060     0.5914040    -1.5148910
  H       -3.3625820     0.6426650    -1.1464650
  H       -0.4402900     1.2218800     1.4039980
  H       -3.2819570    -0.9087340     1.1307830
  H       -1.7133080    -1.7003050    -1.3694640
  H       -3.4855610    -1.8340040    -1.1841350
  H       -0.2975250     2.7131790    -0.5250000
  H       -2.8475560     2.3997430     0.5086630
  H        0.4343110    -1.9634370     0.5690680
  H       -2.4338740    -3.7984320    -0.5432330
  H        2.8291120    -2.6453980     0.0739220
  H        5.1251800    -1.6708610    -0.1624140
  H        5.3198140    -0.0200540    -0.5682940
units angstrom
no_reorient  #important for SAPT in psi4, default
symmetry c1  #important for SAPT in psi4, default
}

set PROPERTIES_ORIGIN ["COM"]
properties('MP2/aug-cc-pvtz', properties = ['dipole'])
--------------------------------------------------------------------------

    Molecular point group: c1
  Charge       = 0
  Multiplicity = 1
  Basis Set: AUG-CC-PVTZ
    Blend: AUG-CC-PVTZ
  Basis Set: (AUG-CC-PVTZ AUX)
    Blend: AUG-CC-PVTZ-JKFIT

    Orbital Energies [Eh]
    ---------------------

    Doubly Occupied:

       1A    -20.584767     2A    -20.583641     3A    -20.558831
       4A    -20.558114     5A    -20.520458     6A    -15.634578
       7A    -15.598832     8A    -15.552208     9A    -11.386828
      10A    -11.356604    11A    -11.342221    12A    -11.327002
      13A    -11.303063    14A    -11.298394    15A    -11.296858
      16A    -11.294257    17A    -11.247163    18A     -1.436272
      19A     -1.396095    20A     -1.381764    21A     -1.375206
      22A     -1.347928    23A     -1.304479    24A     -1.271024
      25A     -1.180573    26A     -1.079797    27A     -1.072865
      28A     -1.022713    29A     -0.934501    30A     -0.908379
      31A     -0.877172    32A     -0.833527    33A     -0.811832
      34A     -0.765604    35A     -0.751364    36A     -0.736817
      37A     -0.720060    38A     -0.704224    39A     -0.701300
      40A     -0.685982    41A     -0.672912    42A     -0.655256
      43A     -0.651788    44A     -0.638087    45A     -0.621358
      46A     -0.614609    47A     -0.608044    48A     -0.591623
      49A     -0.575965    50A     -0.571681    51A     -0.555868
      52A     -0.546318    53A     -0.538724    54A     -0.532087
      55A     -0.497725    56A     -0.479072    57A     -0.476762
      58A     -0.463021    59A     -0.458938    60A     -0.454281
      61A     -0.438638    62A     -0.431800    63A     -0.394097
      64A     -0.348434

  @DF-RHF Final Energy:  -886.37218663297585

   => Energetics <=

    Nuclear Repulsion Energy =           1324.1864349719687652
    One-Electron Energy =               -3845.9964729724374592
    Two-Electron Energy =                1635.4378513674930673
    Total Energy =                       -886.3721866329758541
  Basis Set: (AUG-CC-PVTZ AUX)
    Blend: AUG-CC-PVTZ-RI
    Molecular point group: c1

    Geometry (in Angstrom), charge = 0, multiplicity = 1:

       Center              X                  Y                   Z               Mass
    ------------   -----------------  -----------------  -----------------  -----------------
         O           -1.247401902208    -0.651615036977     1.030943244592    15.994914619570
         O           -1.244275902208     2.483903963023    -0.687734755408    15.994914619570
         O           -3.215830902208     1.522151963023     0.743315244592    15.994914619570
         O           -2.356329902208    -3.065784036977     0.093368244592    15.994914619570
         O            1.361229097792     2.248086963023    -0.078113755408    15.994914619570
         N            0.844103097792     0.046275963023     0.254371244592    14.003074004430
         N            3.057925097792     0.721555963023    -0.295298755408    14.003074004430
         N            4.717162097792    -0.835602036977    -0.573869755408    14.003074004430
         C           -1.288784902208     1.079482963023    -0.593648755408    12.000000000000
         C           -2.705522102208     0.644400163023    -0.236895055408    12.000000000000
         C           -0.547821102208     0.473102963023     0.608291944592    12.000000000000
         C           -2.528556902208    -0.715833036977     0.359484244592    12.000000000000
         C           -2.527644902208    -1.849340036977    -0.640861755408    12.000000000000
         C            1.220474097792    -1.260355036977     0.309702244592    12.000000000000
         C            1.756293097792     1.068487963023    -0.060974755408    12.000000000000
         C            2.511800097792    -1.608087036977     0.045423244592    12.000000000000
         C            3.412682097792    -0.549600036977    -0.260496755408    12.000000000000
         H           -0.936906902208     0.592456963023    -1.516462755408     1.007825032230
         H           -3.361882902208     0.643717963023    -1.148036755408     1.007825032230
         H           -0.439590902208     1.222932963023     1.402426244592     1.007825032230
         H           -3.281257902208    -0.907681036977     1.129211244592     1.007825032230
         H           -1.712608902208    -1.699252036977    -1.371035755408     1.007825032230
         H           -3.484861902208    -1.832951036977    -1.185706755408     1.007825032230
         H           -0.296825902208     2.714231963023    -0.526571755408     1.007825032230
         H           -2.846856902208     2.400795963023     0.507091244592     1.007825032230
         H            0.435010097792    -1.962384036977     0.567496244592     1.007825032230
         H           -2.433174902208    -3.797379036977    -0.544804755408     1.007825032230
         H            2.829811097792    -2.644345036977     0.072350244592     1.007825032230
         H            5.125879097792    -1.669808036977    -0.163985755408     1.007825032230
         H            5.320513097792    -0.019001036977    -0.569865755408     1.007825032230

  Basis Set: AUG-CC-PVTZ
    Blend: AUG-CC-PVTZ
  Basis Set: (AUG-CC-PVTZ AUX)
    Blend: AUG-CC-PVTZ-JKFIT
	 Reference Energy          =    -886.3721866329758541 [Eh]
	 Singles Energy            =      -0.0000000000000000 [Eh]
	 Same-Spin Energy          =      -0.9014424137846104 [Eh]
	 Opposite-Spin Energy      =      -2.7147587793813428 [Eh]
	 Correlation Energy        =      -3.6162011931659532 [Eh]
	 Total Energy              =    -889.9883878261417749 [Eh]

	 ================> DF-SCS-MP2 Energies <==================
	-----------------------------------------------------------
	 SCS Same-Spin Scale       =       0.3333333333333333 [-]
	 SCS Opposite-Spin Scale   =       1.2000000000000000 [-]
	 SCS Same-Spin Energy      =      -0.3004808045948701 [Eh]
	 SCS Opposite-Spin Energy  =      -3.2577105352576115 [Eh]
	 SCS Correlation Energy    =      -3.5581913398524816 [Eh]
	 SCS Total Energy          =    -889.9303779728282962 [Eh]
	-----------------------------------------------------------

  Dipole Moment: [D]
     X:     1.5431      Y:    -5.9941      Z:    -1.7688     Total:     6.4373

*** Psi4 exiting successfully. Buy a developer a beer!
