                               Psi4 1.3.2 release

  ==> Input File <==

--------------------------------------------------------------------------
#psi4
#
memory 32 gb

molecule  {
0 1
  O       -1.2481010    -0.6526680     1.0325150
  O       -1.2449750     2.4828510    -0.6861630
  O       -3.2165300     1.5210990     0.7448870
  O       -2.3570290    -3.0668370     0.0949400
  O        1.4006916     2.2595284    -0.0873455
  N        0.8795165     0.0124643     0.2503970
  N        3.0572260     0.7205030    -0.2937270
  N        4.7164630    -0.8366550    -0.5722980
  C       -1.2894840     1.0784300    -0.5920770
  C       -2.7151710     0.6552070    -0.2573930
  C       -0.5254080     0.4815200     0.6000940
  C       -2.5292560    -0.7168860     0.3610560
  C       -2.5283440    -1.8503930    -0.6392900
  C        1.2197750    -1.2614080     0.3112740
  C        1.7555940     1.0674350    -0.0594030
  C        2.5111010    -1.6091400     0.0469950
  C        3.4119830    -0.5506530    -0.2589250
  H       -0.9376060     0.5914040    -1.5148910
  H       -3.3625820     0.6426650    -1.1464650
  H       -0.4402900     1.2218800     1.4039980
  H       -3.2819570    -0.9087340     1.1307830
  H       -1.7133080    -1.7003050    -1.3694640
  H       -3.4855610    -1.8340040    -1.1841350
  H       -0.2975250     2.7131790    -0.5250000
  H       -2.8475560     2.3997430     0.5086630
  H        0.4343110    -1.9634370     0.5690680
  H       -2.4338740    -3.7984320    -0.5432330
  H        2.8291120    -2.6453980     0.0739220
  H        5.1251800    -1.6708610    -0.1624140
  H        5.3198140    -0.0200540    -0.5682940
units angstrom
no_reorient  #important for SAPT in psi4, default
symmetry c1  #important for SAPT in psi4, default
}

set PROPERTIES_ORIGIN ["COM"]
properties('MP2/aug-cc-pvtz', properties = ['dipole'])
--------------------------------------------------------------------------

    Molecular point group: c1
  Charge       = 0
  Multiplicity = 1
  Basis Set: AUG-CC-PVTZ
    Blend: AUG-CC-PVTZ
  Basis Set: (AUG-CC-PVTZ AUX)
    Blend: AUG-CC-PVTZ-JKFIT

    Orbital Energies [Eh]
    ---------------------

    Doubly Occupied:

       1A    -20.584425     2A    -20.583346     3A    -20.561166
       4A    -20.560239     5A    -20.523985     6A    -15.639363
       7A    -15.595923     8A    -15.548936     9A    -11.387944
      10A    -11.352960    11A    -11.347976    12A    -11.324061
      13A    -11.302645    14A    -11.300595    15A    -11.299012
      16A    -11.295737    17A    -11.243356    18A     -1.430558
      19A     -1.396859    20A     -1.382772    21A     -1.374295
      22A     -1.349268    23A     -1.310195    24A     -1.275259
      25A     -1.178158    26A     -1.079513    27A     -1.069993
      28A     -1.023335    29A     -0.934646    30A     -0.913720
      31A     -0.876525    32A     -0.833028    33A     -0.813388
      34A     -0.765205    35A     -0.755434    36A     -0.738193
      37A     -0.718158    38A     -0.703217    39A     -0.700333
      40A     -0.684245    41A     -0.672614    42A     -0.655803
      43A     -0.650254    44A     -0.639739    45A     -0.622162
      46A     -0.616061    47A     -0.607572    48A     -0.593540
      49A     -0.576952    50A     -0.571019    51A     -0.554931
      52A     -0.546229    53A     -0.538694    54A     -0.532333
      55A     -0.503576    56A     -0.479646    57A     -0.476985
      58A     -0.464517    59A     -0.459368    60A     -0.455702
      61A     -0.442078    62A     -0.430383    63A     -0.392907
      64A     -0.346552

  @DF-RHF Final Energy:  -886.36907827331913

   => Energetics <=

    Nuclear Repulsion Energy =           1322.7239718445782728
    One-Electron Energy =               -3843.0109365362095559
    Two-Electron Energy =                1633.9178864183122641
    Total Energy =                       -886.3690782733192464
  Basis Set: (AUG-CC-PVTZ AUX)
    Blend: AUG-CC-PVTZ-RI
    Molecular point group: c1

    Geometry (in Angstrom), charge = 0, multiplicity = 1:

       Center              X                  Y                   Z               Mass
    ------------   -----------------  -----------------  -----------------  -----------------
         O           -1.252823928868    -0.651603032810     1.033545353130    15.994914619570
         O           -1.249697928868     2.483915967190    -0.685132646870    15.994914619570
         O           -3.221252928868     1.522163967190     0.745917353130    15.994914619570
         O           -2.361751928868    -3.065772032810     0.095970353130    15.994914619570
         O            1.395968671132     2.260593367190    -0.086315146870    15.994914619570
         N            0.874793571132     0.013529267190     0.251427353130    14.003074004430
         N            3.052503071132     0.721567967190    -0.292696646870    14.003074004430
         N            4.711740071132    -0.835590032810    -0.571267646870    14.003074004430
         C           -1.294206928868     1.079494967190    -0.591046646870    12.000000000000
         C           -2.719893928868     0.656271967190    -0.256362646870    12.000000000000
         C           -0.530130928868     0.482584967190     0.601124353130    12.000000000000
         C           -2.533978928868    -0.715821032810     0.362086353130    12.000000000000
         C           -2.533066928868    -1.849328032810    -0.638259646870    12.000000000000
         C            1.215052071132    -1.260343032810     0.312304353130    12.000000000000
         C            1.750871071132     1.068499967190    -0.058372646870    12.000000000000
         C            2.506378071132    -1.608075032810     0.048025353130    12.000000000000
         C            3.407260071132    -0.549588032810    -0.257894646870    12.000000000000
         H           -0.942328928868     0.592468967190    -1.513860646870     1.007825032230
         H           -3.367304928868     0.643729967190    -1.145434646870     1.007825032230
         H           -0.445012928868     1.222944967190     1.405028353130     1.007825032230
         H           -3.286679928868    -0.907669032810     1.131813353130     1.007825032230
         H           -1.718030928868    -1.699240032810    -1.368433646870     1.007825032230
         H           -3.490283928868    -1.832939032810    -1.183104646870     1.007825032230
         H           -0.302247928868     2.714243967190    -0.523969646870     1.007825032230
         H           -2.852278928868     2.400807967190     0.509693353130     1.007825032230
         H            0.429588071132    -1.962372032810     0.570098353130     1.007825032230
         H           -2.438596928868    -3.797367032810    -0.542202646870     1.007825032230
         H            2.824389071132    -2.644333032810     0.074952353130     1.007825032230
         H            5.120457071132    -1.669796032810    -0.161383646870     1.007825032230
         H            5.315091071132    -0.018989032810    -0.567263646870     1.007825032230

  Basis Set: AUG-CC-PVTZ
    Blend: AUG-CC-PVTZ
  Basis Set: (AUG-CC-PVTZ AUX)
    Blend: AUG-CC-PVTZ-JKFIT
	 Reference Energy          =    -886.3690782733191327 [Eh]
	 Singles Energy            =      -0.0000000000000000 [Eh]
	 Same-Spin Energy          =      -0.9015681806024747 [Eh]
	 Opposite-Spin Energy      =      -2.7152527825310599 [Eh]
	 Correlation Energy        =      -3.6168209631335344 [Eh]
	 Total Energy              =    -889.9858992364527239 [Eh]

	 ================> DF-SCS-MP2 Energies <==================
	-----------------------------------------------------------
	 SCS Same-Spin Scale       =       0.3333333333333333 [-]
	 SCS Opposite-Spin Scale   =       1.2000000000000000 [-]
	 SCS Same-Spin Energy      =      -0.3005227268674915 [Eh]
	 SCS Opposite-Spin Energy  =      -3.2583033390372718 [Eh]
	 SCS Correlation Energy    =      -3.5588260659047632 [Eh]
	 SCS Total Energy          =    -889.9279043392239146 [Eh]
	-----------------------------------------------------------

  Dipole Moment: [D]
     X:     1.3040      Y:    -5.8493      Z:    -1.7772     Total:     6.2508

*** Psi4 exiting successfully. Buy a developer a beer!
