                               Psi4 1.3.2 release

  ==> Input File <==

--------------------------------------------------------------------------
#psi4
#
memory 32 gb

molecule  {
0 1
  O       -1.2481010    -0.6526680     1.0325150
  O       -1.2449750     2.4828510    -0.6861630
  O       -3.2165300     1.5210990     0.7448870
  O       -2.3570290    -3.0668370     0.0949400
  O        1.3605300     2.2470340    -0.0765420
  N        0.8527607     0.0611535     0.2739281
  N        3.0572260     0.7205030    -0.2937270
  N        4.7164630    -0.8366550    -0.5722980
  C       -1.2894840     1.0784300    -0.5920770
  C       -2.7151710     0.6552070    -0.2573930
  C       -0.5254080     0.4815200     0.6000940
  C       -2.5292560    -0.7168860     0.3610560
  C       -2.5283440    -1.8503930    -0.6392900
  C        1.2197750    -1.2614080     0.3112740
  C        1.7555940     1.0674350    -0.0594030
  C        2.5111010    -1.6091400     0.0469950
  C        3.4119830    -0.5506530    -0.2589250
  H       -0.9376060     0.5914040    -1.5148910
  H       -3.3625820     0.6426650    -1.1464650
  H       -0.4212665     1.2198867     1.4035919
  H       -3.2819570    -0.9087340     1.1307830
  H       -1.7133080    -1.7003050    -1.3694640
  H       -3.4855610    -1.8340040    -1.1841350
  H       -0.2975250     2.7131790    -0.5250000
  H       -2.8475560     2.3997430     0.5086630
  H        0.4343110    -1.9634370     0.5690680
  H       -2.4338740    -3.7984320    -0.5432330
  H        2.8291120    -2.6453980     0.0739220
  H        5.1251800    -1.6708610    -0.1624140
  H        5.3198140    -0.0200540    -0.5682940
units angstrom
no_reorient  #important for SAPT in psi4, default
symmetry c1  #important for SAPT in psi4, default
}

set PROPERTIES_ORIGIN ["COM"]
properties('MP2/aug-cc-pvtz', properties = ['dipole'])
--------------------------------------------------------------------------

    Molecular point group: c1
  Charge       = 0
  Multiplicity = 1
  Basis Set: AUG-CC-PVTZ
    Blend: AUG-CC-PVTZ
  Basis Set: (AUG-CC-PVTZ AUX)
    Blend: AUG-CC-PVTZ-JKFIT

    Orbital Energies [Eh]
    ---------------------

    Doubly Occupied:

       1A    -20.582441     2A    -20.582191     3A    -20.557616
       4A    -20.556919     5A    -20.519767     6A    -15.636193
       7A    -15.600151     8A    -15.553263     9A    -11.386217
      10A    -11.358112    11A    -11.341205    12A    -11.329540
      13A    -11.301380    14A    -11.297169    15A    -11.296872
      16A    -11.293018    17A    -11.250165    18A     -1.429335
      19A     -1.396555    20A     -1.380008    21A     -1.372856
      22A     -1.346068    23A     -1.305157    24A     -1.272749
      25A     -1.182084    26A     -1.082479    27A     -1.067857
      28A     -1.021725    29A     -0.935471    30A     -0.910639
      31A     -0.877042    32A     -0.832367    33A     -0.811891
      34A     -0.767235    35A     -0.751704    36A     -0.735354
      37A     -0.720451    38A     -0.703327    39A     -0.698404
      40A     -0.686013    41A     -0.672877    42A     -0.654810
      43A     -0.651362    44A     -0.639342    45A     -0.620636
      46A     -0.614954    47A     -0.606769    48A     -0.591900
      49A     -0.576163    50A     -0.570097    51A     -0.553773
      52A     -0.545548    53A     -0.537467    54A     -0.531624
      55A     -0.495812    56A     -0.477545    57A     -0.474350
      58A     -0.461755    59A     -0.459328    60A     -0.452751
      61A     -0.440970    62A     -0.433358    63A     -0.394818
      64A     -0.351112

  @DF-RHF Final Energy:  -886.37311732898331

   => Energetics <=

    Nuclear Repulsion Energy =           1323.6466416462703819
    One-Electron Energy =               -3844.9632945738044327
    Two-Electron Energy =                1634.9435355985508522
    Total Energy =                       -886.3731173289831986
  Basis Set: (AUG-CC-PVTZ AUX)
    Blend: AUG-CC-PVTZ-RI
    Molecular point group: c1

    Geometry (in Angstrom), charge = 0, multiplicity = 1:

       Center              X                  Y                   Z               Mass
    ------------   -----------------  -----------------  -----------------  -----------------
         O           -1.248718902585    -0.653577410843     1.031480649663    15.994914619570
         O           -1.245592902585     2.481941589157    -0.687197350337    15.994914619570
         O           -3.217147902585     1.520189589157     0.743852649663    15.994914619570
         O           -2.357646902585    -3.067746410843     0.093905649663    15.994914619570
         O            1.359912097415     2.246124589157    -0.077576350337    15.994914619570
         N            0.852142797415     0.060244089157     0.272893749663    14.003074004430
         N            3.056608097415     0.719593589157    -0.294761350337    14.003074004430
         N            4.715845097415    -0.837564410843    -0.573332350337    14.003074004430
         C           -1.290101902585     1.077520589157    -0.593111350337    12.000000000000
         C           -2.715788902585     0.654297589157    -0.258427350337    12.000000000000
         C           -0.526025902585     0.480610589157     0.599059649663    12.000000000000
         C           -2.529873902585    -0.717795410843     0.360021649663    12.000000000000
         C           -2.528961902585    -1.851302410843    -0.640324350337    12.000000000000
         C            1.219157097415    -1.262317410843     0.310239649663    12.000000000000
         C            1.754976097415     1.066525589157    -0.060437350337    12.000000000000
         C            2.510483097415    -1.610049410843     0.045960649663    12.000000000000
         C            3.411365097415    -0.551562410843    -0.259959350337    12.000000000000
         H           -0.938223902585     0.590494589157    -1.515925350337     1.007825032230
         H           -3.363199902585     0.641755589157    -1.147499350337     1.007825032230
         H           -0.421884402585     1.218977289157     1.402557549663     1.007825032230
         H           -3.282574902585    -0.909643410843     1.129748649663     1.007825032230
         H           -1.713925902585    -1.701214410843    -1.370498350337     1.007825032230
         H           -3.486178902585    -1.834913410843    -1.185169350337     1.007825032230
         H           -0.298142902585     2.712269589157    -0.526034350337     1.007825032230
         H           -2.848173902585     2.398833589157     0.507628649663     1.007825032230
         H            0.433693097415    -1.964346410843     0.568033649663     1.007825032230
         H           -2.434491902585    -3.799341410843    -0.544267350337     1.007825032230
         H            2.828494097415    -2.646307410843     0.072887649663     1.007825032230
         H            5.124562097415    -1.671770410843    -0.163448350337     1.007825032230
         H            5.319196097415    -0.020963410843    -0.569328350337     1.007825032230

  Basis Set: AUG-CC-PVTZ
    Blend: AUG-CC-PVTZ
  Basis Set: (AUG-CC-PVTZ AUX)
    Blend: AUG-CC-PVTZ-JKFIT
	 Reference Energy          =    -886.3731173289833123 [Eh]
	 Singles Energy            =      -0.0000000000000000 [Eh]
	 Same-Spin Energy          =      -0.9011651104571312 [Eh]
	 Opposite-Spin Energy      =      -2.7148795931665184 [Eh]
	 Correlation Energy        =      -3.6160447036236496 [Eh]
	 Total Energy              =    -889.9891620326069415 [Eh]

	 ================> DF-SCS-MP2 Energies <==================
	-----------------------------------------------------------
	 SCS Same-Spin Scale       =       0.3333333333333333 [-]
	 SCS Opposite-Spin Scale   =       1.2000000000000000 [-]
	 SCS Same-Spin Energy      =      -0.3003883701523771 [Eh]
	 SCS Opposite-Spin Energy  =      -3.2578555117998218 [Eh]
	 SCS Correlation Energy    =      -3.5582438819521989 [Eh]
	 SCS Total Energy          =    -889.9313612109355063 [Eh]
	-----------------------------------------------------------

  Dipole Moment: [D]
     X:     1.7226      Y:    -6.0264      Z:    -1.8288     Total:     6.5292

*** Psi4 exiting successfully. Buy a developer a beer!
