                               Psi4 1.3.2 release

  ==> Input File <==

--------------------------------------------------------------------------
#psi4
#
memory 32 gb

molecule  {
0 1
  O       -1.2481010    -0.6526680     1.0325150
  O       -1.2449750     2.4828510    -0.6861630
  O       -3.2165300     1.5210990     0.7448870
  O       -2.3570290    -3.0668370     0.0949400
  O        1.3605300     2.2470340    -0.0765420
  N        0.8434040     0.0452230     0.2559430
  N        3.0572260     0.7205030    -0.2937270
  N        4.7164630    -0.8366550    -0.5722980
  C       -1.2894840     1.0784300    -0.5920770
  C       -2.7151710     0.6552070    -0.2573930
  C       -0.5254080     0.4815200     0.6000940
  C       -2.5292560    -0.7168860     0.3610560
  C       -2.5283440    -1.8503930    -0.6392900
  C        1.2419428    -1.2550473     0.3055934
  C        1.7733366     1.0506297    -0.0616003
  C        2.5111010    -1.6091400     0.0469950
  C        3.4119830    -0.5506530    -0.2589250
  H       -0.9376060     0.5914040    -1.5148910
  H       -3.3625820     0.6426650    -1.1464650
  H       -0.4402900     1.2218800     1.4039980
  H       -3.2819570    -0.9087340     1.1307830
  H       -1.7133080    -1.7003050    -1.3694640
  H       -3.4855610    -1.8340040    -1.1841350
  H       -0.2975250     2.7131790    -0.5250000
  H       -2.8475560     2.3997430     0.5086630
  H        0.4343110    -1.9634370     0.5690680
  H       -2.4338740    -3.7984320    -0.5432330
  H        2.8291120    -2.6453980     0.0739220
  H        5.1251800    -1.6708610    -0.1624140
  H        5.3198140    -0.0200540    -0.5682940
units angstrom
no_reorient  #important for SAPT in psi4, default
symmetry c1  #important for SAPT in psi4, default
}

set PROPERTIES_ORIGIN ["COM"]
properties('MP2/aug-cc-pvtz', properties = ['dipole'])
--------------------------------------------------------------------------

    Molecular point group: c1
  Charge       = 0
  Multiplicity = 1
  Basis Set: AUG-CC-PVTZ
    Blend: AUG-CC-PVTZ
  Basis Set: (AUG-CC-PVTZ AUX)
    Blend: AUG-CC-PVTZ-JKFIT

    Orbital Energies [Eh]
    ---------------------

    Doubly Occupied:

       1A    -20.581898     2A    -20.581199     3A    -20.556971
       4A    -20.555238     5A    -20.515315     6A    -15.636863
       7A    -15.603014     8A    -15.555606     9A    -11.386616
      10A    -11.361655    11A    -11.341720    12A    -11.327468
      13A    -11.300758    14A    -11.296395    15A    -11.295668
      16A    -11.292189    17A    -11.248550    18A     -1.427868
      19A     -1.389046    20A     -1.379041    21A     -1.371844
      22A     -1.344920    23A     -1.303528    24A     -1.273860
      25A     -1.188878    26A     -1.087064    27A     -1.067045
      28A     -1.021901    29A     -0.936020    30A     -0.906730
      31A     -0.880597    32A     -0.833552    33A     -0.811454
      34A     -0.770300    35A     -0.752070    36A     -0.735027
      37A     -0.720356    38A     -0.702401    39A     -0.697669
      40A     -0.684542    41A     -0.672277    42A     -0.654318
      43A     -0.649280    44A     -0.639246    45A     -0.619966
      46A     -0.612923    47A     -0.606080    48A     -0.591100
      49A     -0.574747    50A     -0.569691    51A     -0.553469
      52A     -0.545378    53A     -0.535843    54A     -0.530214
      55A     -0.495667    56A     -0.476940    57A     -0.473589
      58A     -0.461095    59A     -0.455421    60A     -0.451696
      61A     -0.441591    62A     -0.434616    63A     -0.397140
      64A     -0.353349

  @DF-RHF Final Energy:  -886.37159737553554

   => Energetics <=

    Nuclear Repulsion Energy =           1323.7765474688874292
    One-Electron Energy =               -3845.2593389722555912
    Two-Electron Energy =                1635.1111941278327322
    Total Energy =                       -886.3715973755356572
  Basis Set: (AUG-CC-PVTZ AUX)
    Blend: AUG-CC-PVTZ-RI
    Molecular point group: c1

    Geometry (in Angstrom), charge = 0, multiplicity = 1:

       Center              X                  Y                   Z               Mass
    ------------   -----------------  -----------------  -----------------  -----------------
         O           -1.250071224505    -0.652152388604     1.032903902713    15.994914619570
         O           -1.246945224505     2.483366611396    -0.685774097287    15.994914619570
         O           -3.218500224505     1.521614611396     0.745275902713    15.994914619570
         O           -2.358999224505    -3.066321388604     0.095328902713    15.994914619570
         O            1.358559775495     2.247549611396    -0.076153097287    15.994914619570
         N            0.841433775495     0.045738611396     0.256331902713    14.003074004430
         N            3.055255775495     0.721018611396    -0.293338097287    14.003074004430
         N            4.714492775495    -0.836139388604    -0.571909097287    14.003074004430
         C           -1.291454224505     1.078945611396    -0.591688097287    12.000000000000
         C           -2.717141224505     0.655722611396    -0.257004097287    12.000000000000
         C           -0.527378224505     0.482035611396     0.600482902713    12.000000000000
         C           -2.531226224505    -0.716370388604     0.361444902713    12.000000000000
         C           -2.530314224505    -1.849877388604    -0.638901097287    12.000000000000
         C            1.239972575495    -1.254531688604     0.305982302713    12.000000000000
         C            1.771366375495     1.051145311396    -0.061211397287    12.000000000000
         C            2.509130775495    -1.608624388604     0.047383902713    12.000000000000
         C            3.410012775495    -0.550137388604    -0.258536097287    12.000000000000
         H           -0.939576224505     0.591919611396    -1.514502097287     1.007825032230
         H           -3.364552224505     0.643180611396    -1.146076097287     1.007825032230
         H           -0.442260224505     1.222395611396     1.404386902713     1.007825032230
         H           -3.283927224505    -0.908218388604     1.131171902713     1.007825032230
         H           -1.715278224505    -1.699789388604    -1.369075097287     1.007825032230
         H           -3.487531224505    -1.833488388604    -1.183746097287     1.007825032230
         H           -0.299495224505     2.713694611396    -0.524611097287     1.007825032230
         H           -2.849526224505     2.400258611396     0.509051902713     1.007825032230
         H            0.432340775495    -1.962921388604     0.569456902713     1.007825032230
         H           -2.435844224505    -3.797916388604    -0.542844097287     1.007825032230
         H            2.827141775495    -2.644882388604     0.074310902713     1.007825032230
         H            5.123209775495    -1.670345388604    -0.162025097287     1.007825032230
         H            5.317843775495    -0.019538388604    -0.567905097287     1.007825032230

  Basis Set: AUG-CC-PVTZ
    Blend: AUG-CC-PVTZ
  Basis Set: (AUG-CC-PVTZ AUX)
    Blend: AUG-CC-PVTZ-JKFIT
	 Reference Energy          =    -886.3715973755355435 [Eh]
	 Singles Energy            =      -0.0000000000000000 [Eh]
	 Same-Spin Energy          =      -0.9013832852775840 [Eh]
	 Opposite-Spin Energy      =      -2.7149308587990073 [Eh]
	 Correlation Energy        =      -3.6163141440765916 [Eh]
	 Total Energy              =    -889.9879115196121120 [Eh]

	 ================> DF-SCS-MP2 Energies <==================
	-----------------------------------------------------------
	 SCS Same-Spin Scale       =       0.3333333333333333 [-]
	 SCS Opposite-Spin Scale   =       1.2000000000000000 [-]
	 SCS Same-Spin Energy      =      -0.3004610950925280 [Eh]
	 SCS Opposite-Spin Energy  =      -3.2579170305588088 [Eh]
	 SCS Correlation Energy    =      -3.5583781256513367 [Eh]
	 SCS Total Energy          =    -889.9299755011868456 [Eh]
	-----------------------------------------------------------

  Dipole Moment: [D]
     X:     1.9064      Y:    -6.1593      Z:    -1.8386     Total:     6.7046

*** Psi4 exiting successfully. Buy a developer a beer!
