                               Psi4 1.3.2 release

  ==> Input File <==

--------------------------------------------------------------------------
#psi4
#
memory 32 gb

molecule  {
0 1
  O       -1.2381098    -0.6596584     1.0307023
  O       -1.2449750     2.4828510    -0.6861630
  O       -3.2165300     1.5210990     0.7448870
  O       -2.3570290    -3.0668370     0.0949400
  O        1.3605300     2.2470340    -0.0765420
  N        0.8402891     0.0331261     0.2591312
  N        3.0572260     0.7205030    -0.2937270
  N        4.7164630    -0.8366550    -0.5722980
  C       -1.2894840     1.0784300    -0.5920770
  C       -2.7151710     0.6552070    -0.2573930
  C       -0.5254080     0.4815200     0.6000940
  C       -2.5292560    -0.7168860     0.3610560
  C       -2.5283440    -1.8503930    -0.6392900
  C        1.2197750    -1.2614080     0.3112740
  C        1.7555940     1.0674350    -0.0594030
  C        2.5111010    -1.6091400     0.0469950
  C        3.4119830    -0.5506530    -0.2589250
  H       -0.9376060     0.5914040    -1.5148910
  H       -3.3625820     0.6426650    -1.1464650
  H       -0.4402900     1.2218800     1.4039980
  H       -3.2819570    -0.9087340     1.1307830
  H       -1.7133080    -1.7003050    -1.3694640
  H       -3.4855610    -1.8340040    -1.1841350
  H       -0.2975250     2.7131790    -0.5250000
  H       -2.8475560     2.3997430     0.5086630
  H        0.4343110    -1.9634370     0.5690680
  H       -2.4338740    -3.7984320    -0.5432330
  H        2.8291120    -2.6453980     0.0739220
  H        5.1251800    -1.6708610    -0.1624140
  H        5.3198140    -0.0200540    -0.5682940
units angstrom
no_reorient  #important for SAPT in psi4, default
symmetry c1  #important for SAPT in psi4, default
}

set PROPERTIES_ORIGIN ["COM"]
properties('MP2/aug-cc-pvtz', properties = ['dipole'])
--------------------------------------------------------------------------

    Molecular point group: c1
  Charge       = 0
  Multiplicity = 1
  Basis Set: AUG-CC-PVTZ
    Blend: AUG-CC-PVTZ
  Basis Set: (AUG-CC-PVTZ AUX)
    Blend: AUG-CC-PVTZ-JKFIT

    Orbital Energies [Eh]
    ---------------------

    Doubly Occupied:

       1A    -20.582293     2A    -20.581556     3A    -20.558344
       4A    -20.557859     5A    -20.523667     6A    -15.636841
       7A    -15.599229     8A    -15.553031     9A    -11.389580
      10A    -11.357183    11A    -11.341741    12A    -11.326949
      13A    -11.301478    14A    -11.297742    15A    -11.297312
      16A    -11.293774    17A    -11.246647    18A     -1.428493
      19A     -1.395763    20A     -1.380541    21A     -1.372857
      22A     -1.346882    23A     -1.306502    24A     -1.274154
      25A     -1.181999    26A     -1.081086    27A     -1.068514
      28A     -1.020745    29A     -0.935574    30A     -0.907945
      31A     -0.877398    32A     -0.832700    33A     -0.811777
      34A     -0.766230    35A     -0.752807    36A     -0.736638
      37A     -0.719771    38A     -0.702937    39A     -0.698516
      40A     -0.685095    41A     -0.672467    42A     -0.654548
      43A     -0.651308    44A     -0.638012    45A     -0.620488
      46A     -0.613307    47A     -0.606242    48A     -0.595157
      49A     -0.575766    50A     -0.569450    51A     -0.554481
      52A     -0.545723    53A     -0.537645    54A     -0.531546
      55A     -0.499795    56A     -0.478074    57A     -0.475176
      58A     -0.463188    59A     -0.460515    60A     -0.453463
      61A     -0.440783    62A     -0.432546    63A     -0.395182
      64A     -0.348570

  @DF-RHF Final Energy:  -886.37267393718378

   => Energetics <=

    Nuclear Repulsion Energy =           1323.6203724914541908
    One-Electron Energy =               -3844.8989225333871218
    Two-Electron Energy =                1634.9058761047492681
    Total Energy =                       -886.3726739371838903
  Basis Set: (AUG-CC-PVTZ AUX)
    Blend: AUG-CC-PVTZ-RI
    Molecular point group: c1

    Geometry (in Angstrom), charge = 0, multiplicity = 1:

       Center              X                  Y                   Z               Mass
    ------------   -----------------  -----------------  -----------------  -----------------
         O           -1.238587814753    -0.658501576257     1.030637924301    15.994914619570
         O           -1.245453014753     2.484007823743    -0.686227375699    15.994914619570
         O           -3.217008014753     1.522255823743     0.744822624301    15.994914619570
         O           -2.357507014753    -3.065680176257     0.094875624301    15.994914619570
         O            1.360051985247     2.248190823743    -0.076606375699    15.994914619570
         N            0.839811085247     0.034282923743     0.259066824301    14.003074004430
         N            3.056747985247     0.721659823743    -0.293791375699    14.003074004430
         N            4.715984985247    -0.835498176257    -0.572362375699    14.003074004430
         C           -1.289962014753     1.079586823743    -0.592141375699    12.000000000000
         C           -2.715649014753     0.656363823743    -0.257457375699    12.000000000000
         C           -0.525886014753     0.482676823743     0.600029624301    12.000000000000
         C           -2.529734014753    -0.715729176257     0.360991624301    12.000000000000
         C           -2.528822014753    -1.849236176257    -0.639354375699    12.000000000000
         C            1.219296985247    -1.260251176257     0.311209624301    12.000000000000
         C            1.755115985247     1.068591823743    -0.059467375699    12.000000000000
         C            2.510622985247    -1.607983176257     0.046930624301    12.000000000000
         C            3.411504985247    -0.549496176257    -0.258989375699    12.000000000000
         H           -0.938084014753     0.592560823743    -1.514955375699     1.007825032230
         H           -3.363060014753     0.643821823743    -1.146529375699     1.007825032230
         H           -0.440768014753     1.223036823743     1.403933624301     1.007825032230
         H           -3.282435014753    -0.907577176257     1.130718624301     1.007825032230
         H           -1.713786014753    -1.699148176257    -1.369528375699     1.007825032230
         H           -3.486039014753    -1.832847176257    -1.184199375699     1.007825032230
         H           -0.298003014753     2.714335823743    -0.525064375699     1.007825032230
         H           -2.848034014753     2.400899823743     0.508598624301     1.007825032230
         H            0.433832985247    -1.962280176257     0.569003624301     1.007825032230
         H           -2.434352014753    -3.797275176257    -0.543297375699     1.007825032230
         H            2.828633985247    -2.644241176257     0.073857624301     1.007825032230
         H            5.124701985247    -1.669704176257    -0.162478375699     1.007825032230
         H            5.319335985247    -0.018897176257    -0.568358375699     1.007825032230

  Basis Set: AUG-CC-PVTZ
    Blend: AUG-CC-PVTZ
  Basis Set: (AUG-CC-PVTZ AUX)
    Blend: AUG-CC-PVTZ-JKFIT
	 Reference Energy          =    -886.3726739371837766 [Eh]
	 Singles Energy            =      -0.0000000000000000 [Eh]
	 Same-Spin Energy          =      -0.9014138155641963 [Eh]
	 Opposite-Spin Energy      =      -2.7152335950388382 [Eh]
	 Correlation Energy        =      -3.6166474106030346 [Eh]
	 Total Energy              =    -889.9893213477868130 [Eh]

	 ================> DF-SCS-MP2 Energies <==================
	-----------------------------------------------------------
	 SCS Same-Spin Scale       =       0.3333333333333333 [-]
	 SCS Opposite-Spin Scale   =       1.2000000000000000 [-]
	 SCS Same-Spin Energy      =      -0.3004712718547321 [Eh]
	 SCS Opposite-Spin Energy  =      -3.2582803140466057 [Eh]
	 SCS Correlation Energy    =      -3.5587515859013377 [Eh]
	 SCS Total Energy          =    -889.9314255230850677 [Eh]
	-----------------------------------------------------------

  Dipole Moment: [D]
     X:     1.6379      Y:    -5.8774      Z:    -1.8274     Total:     6.3692

*** Psi4 exiting successfully. Buy a developer a beer!
