                               Psi4 1.4a3.dev225

  ==> Input File <==

--------------------------------------------------------------------------
#psi4
#
memory 32 gb

molecule  {
0 1
  O       -1.3191770     0.6538360    -1.0992360
  O       -1.5735610    -2.4640850     0.5135810
  O       -3.5606630    -1.0699430    -0.4600060
  O       -1.4399290     3.1254620     0.1265180
  O        1.1065530    -2.3833650     0.0076020
  N        0.7686360    -0.1579440    -0.3706350
  N        2.9363770    -0.9938720     0.1460080
  N        4.7058880     0.4431110     0.3611260
  C       -1.3768610    -1.0680440     0.5552780
  C       -2.7379840    -0.3746360     0.4578480
  C       -0.6187550    -0.4996163    -0.6748502
  C       -2.3707440     0.9655450    -0.1585060
  C       -1.8992030     1.9895750     0.8571380
  C        1.2309690     1.1190800    -0.4442230
  C        1.6104480    -1.2470590    -0.0585760
  C        2.5474650     1.3753690    -0.1998620
  C        3.3802090     0.2523040     0.0808410
  H       -0.8441360    -0.7686950     1.4698480
  H       -3.2257400    -0.2778790     1.4400230
  H       -0.6227070    -1.2428120    -1.4883720
  H       -3.1941750     1.3785730    -0.7472070
  H       -1.0952130     1.5703990     1.4802000
  H       -2.7410530     2.2466610     1.5166010
  H       -0.6710550    -2.8260740     0.3542250
  H       -3.3063470    -2.0105220    -0.3629290
  H        0.4929290     1.8778260    -0.6840360
  H       -1.2098800     3.8154810     0.7720340
  H        2.9334840     2.3875570    -0.2389120
  H        5.1589650     1.2712730    -0.0008400
  H        5.2635310    -0.4031270     0.3606700
units angstrom
no_reorient  #important for SAPT in psi4, default
symmetry c1  #important for SAPT in psi4, default
}

set PROPERTIES_ORIGIN ["COM"]
properties('MP2/aug-cc-pvtz', properties = ['dipole'])
--------------------------------------------------------------------------

    Molecular point group: c1
  Charge       = 0
  Multiplicity = 1
  Basis Set: AUG-CC-PVTZ
    Blend: AUG-CC-PVTZ
  Basis Set: (AUG-CC-PVTZ AUX)
    Blend: AUG-CC-PVTZ-JKFIT

    Orbital Energies [Eh]
    ---------------------

    Doubly Occupied:

       1A    -20.586409     2A    -20.579827     3A    -20.558981
       4A    -20.555619     5A    -20.520736     6A    -15.634547
       7A    -15.600421     8A    -15.552692     9A    -11.387152
      10A    -11.358985    11A    -11.338664    12A    -11.326151
      13A    -11.303068    14A    -11.297106    15A    -11.296562
      16A    -11.292800    17A    -11.247582    18A     -1.427526
      19A     -1.394801    20A     -1.382628    21A     -1.374445
      22A     -1.345829    23A     -1.304955    24A     -1.273994
      25A     -1.182604    26A     -1.081005    27A     -1.066776
      28A     -1.015698    29A     -0.937210    30A     -0.908050
      31A     -0.877696    32A     -0.829780    33A     -0.811156
      34A     -0.767931    35A     -0.751224    36A     -0.734437
      37A     -0.722153    38A     -0.707787    39A     -0.702934
      40A     -0.685582    41A     -0.675484    42A     -0.653073
      43A     -0.649304    44A     -0.633243    45A     -0.620119
      46A     -0.615297    47A     -0.607302    48A     -0.594257
      49A     -0.576405    50A     -0.564446    51A     -0.555710
      52A     -0.548138    53A     -0.536061    54A     -0.530441
      55A     -0.496290    56A     -0.480362    57A     -0.473060
      58A     -0.462991    59A     -0.458418    60A     -0.451431
      61A     -0.440926    62A     -0.431587    63A     -0.392607
      64A     -0.349000

  @DF-RHF Final Energy:  -886.37373906077744

   => Energetics <=

    Nuclear Repulsion Energy =           1334.6810385465562376
    One-Electron Energy =               -3867.0706413199764029
    Two-Electron Energy =                1646.0158637126426129
    Total Energy =                       -886.3737390607773250
  Basis Set: (AUG-CC-PVTZ AUX)
    Blend: AUG-CC-PVTZ-RI
    Molecular point group: c1

    Geometry (in Angstrom), charge = 0, multiplicity = 1:

       Center              X                  Y                   Z               Mass
    ------------   -----------------  -----------------  -----------------  -----------------
         O           -1.332858300114     0.682216550484    -1.083661385872    15.994914619570
         O           -1.587242300114    -2.435704449516     0.529155614128    15.994914619570
         O           -3.574344300114    -1.041562449516    -0.444431385872    15.994914619570
         O           -1.453610300114     3.153842550484     0.142092614128    15.994914619570
         O            1.092871699886    -2.354984449516     0.023176614128    15.994914619570
         N            0.754954699886    -0.129563449516    -0.355060385872    14.003074004430
         N            2.922695699886    -0.965491449516     0.161582614128    14.003074004430
         N            4.692206699886     0.471491550484     0.376700614128    14.003074004430
         C           -1.390542300114    -1.039663449516     0.570852614128    12.000000000000
         C           -2.751665300114    -0.346255449516     0.473422614128    12.000000000000
         C           -0.632436300114    -0.471235749516    -0.659275585872    12.000000000000
         C           -2.384425300114     0.993925550484    -0.142931385872    12.000000000000
         C           -1.912884300114     2.017955550484     0.872712614128    12.000000000000
         C            1.217287699886     1.147460550484    -0.428648385872    12.000000000000
         C            1.596766699886    -1.218678449516    -0.043001385872    12.000000000000
         C            2.533783699886     1.403749550484    -0.184287385872    12.000000000000
         C            3.366527699886     0.280684550484     0.096415614128    12.000000000000
         H           -0.857817300114    -0.740314449516     1.485422614128     1.007825032230
         H           -3.239421300114    -0.249498449516     1.455597614128     1.007825032230
         H           -0.636388300114    -1.214431449516    -1.472797385872     1.007825032230
         H           -3.207856300114     1.406953550484    -0.731632385872     1.007825032230
         H           -1.108894300114     1.598779550484     1.495774614128     1.007825032230
         H           -2.754734300114     2.275041550484     1.532175614128     1.007825032230
         H           -0.684736300114    -2.797693449516     0.369799614128     1.007825032230
         H           -3.320028300114    -1.982141449516    -0.347354385872     1.007825032230
         H            0.479247699886     1.906206550484    -0.668461385872     1.007825032230
         H           -1.223561300114     3.843861550484     0.787608614128     1.007825032230
         H            2.919802699886     2.415937550484    -0.223337385872     1.007825032230
         H            5.145283699886     1.299653550484     0.014734614128     1.007825032230
         H            5.249849699886    -0.374746449516     0.376244614128     1.007825032230

  Basis Set: AUG-CC-PVTZ
    Blend: AUG-CC-PVTZ
  Basis Set: (AUG-CC-PVTZ AUX)
    Blend: AUG-CC-PVTZ-JKFIT
	 Reference Energy          =    -886.3737390607774387 [Eh]
	 Singles Energy            =      -0.0000000000000000 [Eh]
	 Same-Spin Energy          =      -0.9018668083899934 [Eh]
	 Opposite-Spin Energy      =      -2.7160235130729546 [Eh]
	 Correlation Energy        =      -3.6178903214629479 [Eh]
	 Total Energy              =    -889.9916293822403759 [Eh]

	 ================> DF-SCS-MP2 Energies <==================
	-----------------------------------------------------------
	 SCS Same-Spin Scale       =       0.3333333333333333 [-]
	 SCS Opposite-Spin Scale   =       1.2000000000000000 [-]
	 SCS Same-Spin Energy      =      -0.3006222694633311 [Eh]
	 SCS Opposite-Spin Energy  =      -3.2592282156875454 [Eh]
	 SCS Correlation Energy    =      -3.5598504851508763 [Eh]
	 SCS Total Energy          =    -889.9335895459282710 [Eh]
	-----------------------------------------------------------

  Dipole Moment: [D]
     X:     2.8532      Y:     5.7973      Z:     1.9600     Total:     6.7521

*** Psi4 exiting successfully. Buy a developer a beer!
