                               Psi4 1.3.2 release

  ==> Input File <==

--------------------------------------------------------------------------
#psi4
#
memory 32 gb

molecule  {
0 1
  O       -1.2481010    -0.6526680     1.0325150
  O       -1.2449750     2.4828510    -0.6861630
  O       -3.2165300     1.5210990     0.7448870
  O       -2.3570290    -3.0668370     0.0949400
  O        1.3605300     2.2470340    -0.0765420
  N        0.8434040     0.0452230     0.2559430
  N        3.0572260     0.7205030    -0.2937270
  N        4.7164630    -0.8366550    -0.5722980
  C       -1.2894840     1.0784300    -0.5920770
  C       -2.7151710     0.6552070    -0.2573930
  C       -0.5254080     0.4815200     0.6000940
  C       -2.5292560    -0.7168860     0.3610560
  C       -2.5283440    -1.8503930    -0.6392900
  C        1.2197750    -1.2614080     0.3112740
  C        1.7555940     1.0674350    -0.0594030
  C        2.5111010    -1.6091400     0.0469950
  C        3.4119830    -0.5506530    -0.2589250
  H       -1.0015152     0.6798593    -1.3472865
  H       -3.3625820     0.6426650    -1.1464650
  H       -0.4402900     1.2218800     1.4039980
  H       -3.2819570    -0.9087340     1.1307830
  H       -1.7133080    -1.7003050    -1.3694640
  H       -3.4855610    -1.8340040    -1.1841350
  H       -0.2975250     2.7131790    -0.5250000
  H       -2.8475560     2.3997430     0.5086630
  H        0.4343110    -1.9634370     0.5690680
  H       -2.4338740    -3.7984320    -0.5432330
  H        2.8291120    -2.6453980     0.0739220
  H        5.1251800    -1.6708610    -0.1624140
  H        5.3198140    -0.0200540    -0.5682940
units angstrom
no_reorient  #important for SAPT in psi4, default
symmetry c1  #important for SAPT in psi4, default
}

set PROPERTIES_ORIGIN ["COM"]
properties('MP2/aug-cc-pvtz', properties = ['dipole'])
--------------------------------------------------------------------------

    Molecular point group: c1
  Charge       = 0
  Multiplicity = 1
  Basis Set: AUG-CC-PVTZ
    Blend: AUG-CC-PVTZ
  Basis Set: (AUG-CC-PVTZ AUX)
    Blend: AUG-CC-PVTZ-JKFIT

    Orbital Energies [Eh]
    ---------------------

    Doubly Occupied:

       1A    -20.582882     2A    -20.581147     3A    -20.556445
       4A    -20.553738     5A    -20.522051     6A    -15.637339
       7A    -15.600054     8A    -15.553562     9A    -11.388417
      10A    -11.358090    11A    -11.339813    12A    -11.328778
      13A    -11.302104    14A    -11.296787    15A    -11.291811
      16A    -11.271691    17A    -11.248858    18A     -1.429241
      19A     -1.396434    20A     -1.379312    21A     -1.372716
      22A     -1.344882    23A     -1.306268    24A     -1.274061
      25A     -1.182468    26A     -1.083277    27A     -1.071653
      28A     -1.028273    29A     -0.935989    30A     -0.910180
      31A     -0.881037    32A     -0.846606    33A     -0.813775
      34A     -0.768553    35A     -0.754205    36A     -0.742286
      37A     -0.723134    38A     -0.705831    39A     -0.702597
      40A     -0.686083    41A     -0.674904    42A     -0.656444
      43A     -0.651747    44A     -0.641594    45A     -0.620530
      46A     -0.614998    47A     -0.608046    48A     -0.593939
      49A     -0.576473    50A     -0.569433    51A     -0.554210
      52A     -0.547093    53A     -0.536853    54A     -0.531811
      55A     -0.497970    56A     -0.477721    57A     -0.476832
      58A     -0.461862    59A     -0.460916    60A     -0.456792
      61A     -0.440628    62A     -0.433440    63A     -0.395214
      64A     -0.350129

  @DF-RHF Final Energy:  -886.34247594644432

   => Energetics <=

    Nuclear Repulsion Energy =           1324.9774125563205871
    One-Electron Energy =               -3847.4757627605667949
    Two-Electron Energy =                1636.1558742578017700
    Total Energy =                       -886.3424759464442104
  Basis Set: (AUG-CC-PVTZ AUX)
    Blend: AUG-CC-PVTZ-RI
    Molecular point group: c1

    Geometry (in Angstrom), charge = 0, multiplicity = 1:

       Center              X                  Y                   Z               Mass
    ------------   -----------------  -----------------  -----------------  -----------------
         O           -1.247836068374    -0.653034722793     1.031820124420    15.994914619570
         O           -1.244710068374     2.482484277207    -0.686857875580    15.994914619570
         O           -3.216265068374     1.520732277207     0.744192124420    15.994914619570
         O           -2.356764068374    -3.067203722793     0.094245124420    15.994914619570
         O            1.360794931626     2.246667277207    -0.077236875580    15.994914619570
         N            0.843668931626     0.044856277207     0.255248124420    14.003074004430
         N            3.057490931626     0.720136277207    -0.294421875580    14.003074004430
         N            4.716727931626    -0.837021722793    -0.572992875580    14.003074004430
         C           -1.289219068374     1.078063277207    -0.592771875580    12.000000000000
         C           -2.714906068374     0.654840277207    -0.258087875580    12.000000000000
         C           -0.525143068374     0.481153277207     0.599399124420    12.000000000000
         C           -2.528991068374    -0.717252722793     0.360361124420    12.000000000000
         C           -2.528079068374    -1.850759722793    -0.639984875580    12.000000000000
         C            1.220039931626    -1.261774722793     0.310579124420    12.000000000000
         C            1.755858931626     1.067068277207    -0.060097875580    12.000000000000
         C            2.511365931626    -1.609506722793     0.046300124420    12.000000000000
         C            3.412247931626    -0.551019722793    -0.259619875580    12.000000000000
         H           -1.001250268374     0.679492577207    -1.347981375580     1.007825032230
         H           -3.362317068374     0.642298277207    -1.147159875580     1.007825032230
         H           -0.440025068374     1.221513277207     1.403303124420     1.007825032230
         H           -3.281692068374    -0.909100722793     1.130088124420     1.007825032230
         H           -1.713043068374    -1.700671722793    -1.370158875580     1.007825032230
         H           -3.485296068374    -1.834370722793    -1.184829875580     1.007825032230
         H           -0.297260068374     2.712812277207    -0.525694875580     1.007825032230
         H           -2.847291068374     2.399376277207     0.507968124420     1.007825032230
         H            0.434575931626    -1.963803722793     0.568373124420     1.007825032230
         H           -2.433609068374    -3.798798722793    -0.543927875580     1.007825032230
         H            2.829376931626    -2.645764722793     0.073227124420     1.007825032230
         H            5.125444931626    -1.671227722793    -0.163108875580     1.007825032230
         H            5.320078931626    -0.020420722793    -0.568988875580     1.007825032230

  Basis Set: AUG-CC-PVTZ
    Blend: AUG-CC-PVTZ
  Basis Set: (AUG-CC-PVTZ AUX)
    Blend: AUG-CC-PVTZ-JKFIT
	 Reference Energy          =    -886.3424759464443241 [Eh]
	 Singles Energy            =      -0.0000000000000000 [Eh]
	 Same-Spin Energy          =      -0.9008620520624326 [Eh]
	 Opposite-Spin Energy      =      -2.7137218652133566 [Eh]
	 Correlation Energy        =      -3.6145839172757892 [Eh]
	 Total Energy              =    -889.9570598637201329 [Eh]

	 ================> DF-SCS-MP2 Energies <==================
	-----------------------------------------------------------
	 SCS Same-Spin Scale       =       0.3333333333333333 [-]
	 SCS Opposite-Spin Scale   =       1.2000000000000000 [-]
	 SCS Same-Spin Energy      =      -0.3002873506874775 [Eh]
	 SCS Opposite-Spin Energy  =      -3.2564662382560279 [Eh]
	 SCS Correlation Energy    =      -3.5567535889435056 [Eh]
	 SCS Total Energy          =    -889.8992295353878035 [Eh]
	-----------------------------------------------------------

  Dipole Moment: [D]
     X:     1.7356      Y:    -6.0467      Z:    -1.8717     Total:     6.5634

*** Psi4 exiting successfully. Buy a developer a beer!
