                               Psi4 1.3.2 release

  ==> Input File <==

--------------------------------------------------------------------------
#psi4
#
memory 32 gb

molecule  {
0 1
  O       -1.2481010    -0.6526680     1.0325150
  O       -1.2449750     2.4828510    -0.6861630
  O       -3.2165300     1.5210990     0.7448870
  O       -2.3570290    -3.0668370     0.0949400
  O        1.3605300     2.2470340    -0.0765420
  N        0.8434040     0.0452230     0.2559430
  N        3.0572260     0.7205030    -0.2937270
  N        4.7164630    -0.8366550    -0.5722980
  C       -1.2894840     1.0784300    -0.5920770
  C       -2.7151710     0.6552070    -0.2573930
  C       -0.5254080     0.4815200     0.6000940
  C       -2.5292560    -0.7168860     0.3610560
  C       -2.5283440    -1.8503930    -0.6392900
  C        1.2197750    -1.2614080     0.3112740
  C        1.7555940     1.0674350    -0.0594030
  C        2.5083497    -1.6205638     0.0488503
  C        3.4119830    -0.5506530    -0.2589250
  H       -0.9376060     0.5914040    -1.5148910
  H       -3.3625820     0.6426650    -1.1464650
  H       -0.4402900     1.2218800     1.4039980
  H       -3.2819570    -0.9087340     1.1307830
  H       -1.7133080    -1.7003050    -1.3694640
  H       -3.4855610    -1.8340040    -1.1841350
  H       -0.2975250     2.7131790    -0.5250000
  H       -2.8475560     2.3997430     0.5086630
  H        0.4405068    -1.9705583     0.5683792
  H       -2.4338740    -3.7984320    -0.5432330
  H        2.8291120    -2.6453980     0.0739220
  H        5.1251800    -1.6708610    -0.1624140
  H        5.3198140    -0.0200540    -0.5682940
units angstrom
no_reorient  #important for SAPT in psi4, default
symmetry c1  #important for SAPT in psi4, default
}

set PROPERTIES_ORIGIN ["COM"]
properties('MP2/aug-cc-pvtz', properties = ['dipole'])
--------------------------------------------------------------------------

    Molecular point group: c1
  Charge       = 0
  Multiplicity = 1
  Basis Set: AUG-CC-PVTZ
    Blend: AUG-CC-PVTZ
  Basis Set: (AUG-CC-PVTZ AUX)
    Blend: AUG-CC-PVTZ-JKFIT

    Orbital Energies [Eh]
    ---------------------

    Doubly Occupied:

       1A    -20.582040     2A    -20.581263     3A    -20.557665
       4A    -20.557191     5A    -20.522380     6A    -15.636749
       7A    -15.600233     8A    -15.553755     9A    -11.388604
      10A    -11.359011    11A    -11.341427    12A    -11.327958
      13A    -11.300975    14A    -11.296703    15A    -11.296505
      16A    -11.292812    17A    -11.248663    18A     -1.429104
      19A     -1.396442    20A     -1.379979    21A     -1.372612
      22A     -1.346212    23A     -1.305745    24A     -1.273671
      25A     -1.182427    26A     -1.081550    27A     -1.067528
      28A     -1.021075    29A     -0.934905    30A     -0.908446
      31A     -0.877516    32A     -0.832426    33A     -0.811566
      34A     -0.766522    35A     -0.752643    36A     -0.736177
      37A     -0.719994    38A     -0.702813    39A     -0.698347
      40A     -0.685799    41A     -0.673151    42A     -0.654522
      43A     -0.652713    44A     -0.638655    45A     -0.619396
      46A     -0.614167    47A     -0.605750    48A     -0.595236
      49A     -0.575503    50A     -0.569442    51A     -0.553907
      52A     -0.545622    53A     -0.537435    54A     -0.531668
      55A     -0.498082    56A     -0.477332    57A     -0.474311
      58A     -0.462132    59A     -0.460205    60A     -0.452705
      61A     -0.440553    62A     -0.433093    63A     -0.395254
      64A     -0.350087

  @DF-RHF Final Energy:  -886.37357334346598

   => Energetics <=

    Nuclear Repulsion Energy =           1323.4648013168157377
    One-Electron Energy =               -3844.6000432652463132
    Two-Electron Energy =                1634.7616686049645978
    Total Energy =                       -886.3735733434659778
  Basis Set: (AUG-CC-PVTZ AUX)
    Blend: AUG-CC-PVTZ-RI
    Molecular point group: c1

    Geometry (in Angstrom), charge = 0, multiplicity = 1:

       Center              X                  Y                   Z               Mass
    ------------   -----------------  -----------------  -----------------  -----------------
         O           -1.247990902664    -0.652074525371     1.032426275704    15.994914619570
         O           -1.244864902664     2.483444474629    -0.686251724296    15.994914619570
         O           -3.216419902664     1.521692474629     0.744798275704    15.994914619570
         O           -2.356918902664    -3.066243525371     0.094851275704    15.994914619570
         O            1.360640097336     2.247627474629    -0.076630724296    15.994914619570
         N            0.843514097336     0.045816474629     0.255854275704    14.003074004430
         N            3.057336097336     0.721096474629    -0.293815724296    14.003074004430
         N            4.716573097336    -0.836061525371    -0.572386724296    14.003074004430
         C           -1.289373902664     1.079023474629    -0.592165724296    12.000000000000
         C           -2.715060902664     0.655800474629    -0.257481724296    12.000000000000
         C           -0.525297902664     0.482113474629     0.600005275704    12.000000000000
         C           -2.529145902664    -0.716292525371     0.360967275704    12.000000000000
         C           -2.528233902664    -1.849799525371    -0.639378724296    12.000000000000
         C            1.219885097336    -1.260814525371     0.311185275704    12.000000000000
         C            1.755704097336     1.068028474629    -0.059491724296    12.000000000000
         C            2.508459797336    -1.619970325371     0.048761575704    12.000000000000
         C            3.412093097336    -0.550059525371    -0.259013724296    12.000000000000
         H           -0.937495902664     0.591997474629    -1.514979724296     1.007825032230
         H           -3.362471902664     0.643258474629    -1.146553724296     1.007825032230
         H           -0.440179902664     1.222473474629     1.403909275704     1.007825032230
         H           -3.281846902664    -0.908140525371     1.130694275704     1.007825032230
         H           -1.713197902664    -1.699711525371    -1.369552724296     1.007825032230
         H           -3.485450902664    -1.833410525371    -1.184223724296     1.007825032230
         H           -0.297414902664     2.713772474629    -0.525088724296     1.007825032230
         H           -2.847445902664     2.400336474629     0.508574275704     1.007825032230
         H            0.440616897336    -1.969964825371     0.568290475704     1.007825032230
         H           -2.433763902664    -3.797838525371    -0.543321724296     1.007825032230
         H            2.829222097336    -2.644804525371     0.073833275704     1.007825032230
         H            5.125290097336    -1.670267525371    -0.162502724296     1.007825032230
         H            5.319924097336    -0.019460525371    -0.568382724296     1.007825032230

  Basis Set: AUG-CC-PVTZ
    Blend: AUG-CC-PVTZ
  Basis Set: (AUG-CC-PVTZ AUX)
    Blend: AUG-CC-PVTZ-JKFIT
	 Reference Energy          =    -886.3735733434659778 [Eh]
	 Singles Energy            =      -0.0000000000000000 [Eh]
	 Same-Spin Energy          =      -0.9010493831280830 [Eh]
	 Opposite-Spin Energy      =      -2.7147910195736391 [Eh]
	 Correlation Energy        =      -3.6158404027017221 [Eh]
	 Total Energy              =    -889.9894137461676564 [Eh]

	 ================> DF-SCS-MP2 Energies <==================
	-----------------------------------------------------------
	 SCS Same-Spin Scale       =       0.3333333333333333 [-]
	 SCS Opposite-Spin Scale   =       1.2000000000000000 [-]
	 SCS Same-Spin Energy      =      -0.3003497943760277 [Eh]
	 SCS Opposite-Spin Energy  =      -3.2577492234883669 [Eh]
	 SCS Correlation Energy    =      -3.5580990178643948 [Eh]
	 SCS Total Energy          =    -889.9316723613303566 [Eh]
	-----------------------------------------------------------

  Dipole Moment: [D]
     X:     1.7466      Y:    -5.9427      Z:    -1.8302     Total:     6.4588

*** Psi4 exiting successfully. Buy a developer a beer!
