                               Psi4 1.3.2 release

  ==> Input File <==

--------------------------------------------------------------------------
#psi4
#
memory 32 gb

molecule  {
0 1
  O       -1.2455442    -0.6287183     1.0248705
  O       -1.2449750     2.4828510    -0.6861630
  O       -3.2165300     1.5210990     0.7448870
  O       -2.3570290    -3.0668370     0.0949400
  O        1.3605300     2.2470340    -0.0765420
  N        0.8434040     0.0452230     0.2559430
  N        3.0572260     0.7205030    -0.2937270
  N        4.7164630    -0.8366550    -0.5722980
  C       -1.2894840     1.0784300    -0.5920770
  C       -2.6917716     0.6625937    -0.2474728
  C       -0.5254080     0.4815200     0.6000940
  C       -2.5292560    -0.7168860     0.3610560
  C       -2.5283440    -1.8503930    -0.6392900
  C        1.2197750    -1.2614080     0.3112740
  C        1.7555940     1.0674350    -0.0594030
  C        2.5111010    -1.6091400     0.0469950
  C        3.4119830    -0.5506530    -0.2589250
  H       -0.9376060     0.5914040    -1.5148910
  H       -3.3625820     0.6426650    -1.1464650
  H       -0.4402900     1.2218800     1.4039980
  H       -3.2819570    -0.9087340     1.1307830
  H       -1.7133080    -1.7003050    -1.3694640
  H       -3.4855610    -1.8340040    -1.1841350
  H       -0.2975250     2.7131790    -0.5250000
  H       -2.8475560     2.3997430     0.5086630
  H        0.4343110    -1.9634370     0.5690680
  H       -2.4338740    -3.7984320    -0.5432330
  H        2.8291120    -2.6453980     0.0739220
  H        5.1251800    -1.6708610    -0.1624140
  H        5.3198140    -0.0200540    -0.5682940
units angstrom
no_reorient  #important for SAPT in psi4, default
symmetry c1  #important for SAPT in psi4, default
}

set PROPERTIES_ORIGIN ["COM"]
properties('MP2/aug-cc-pvtz', properties = ['dipole'])
--------------------------------------------------------------------------

    Molecular point group: c1
  Charge       = 0
  Multiplicity = 1
  Basis Set: AUG-CC-PVTZ
    Blend: AUG-CC-PVTZ
  Basis Set: (AUG-CC-PVTZ AUX)
    Blend: AUG-CC-PVTZ-JKFIT

    Orbital Energies [Eh]
    ---------------------

    Doubly Occupied:

       1A    -20.583162     2A    -20.580351     3A    -20.558251
       4A    -20.556722     5A    -20.521593     6A    -15.636177
       7A    -15.599709     8A    -15.553127     9A    -11.387876
      10A    -11.357678    11A    -11.339596    12A    -11.328569
      13A    -11.302191    14A    -11.298191    15A    -11.294955
      16A    -11.292878    17A    -11.248496    18A     -1.435207
      19A     -1.396965    20A     -1.381220    21A     -1.374609
      22A     -1.346851    23A     -1.305845    24A     -1.273542
      25A     -1.182012    26A     -1.081912    27A     -1.069719
      28A     -1.023545    29A     -0.936389    30A     -0.909678
      31A     -0.877157    32A     -0.832530    33A     -0.811227
      34A     -0.767211    35A     -0.753067    36A     -0.737951
      37A     -0.720339    38A     -0.703546    39A     -0.699603
      40A     -0.686587    41A     -0.672952    42A     -0.655267
      43A     -0.652045    44A     -0.638013    45A     -0.621364
      46A     -0.614670    47A     -0.607665    48A     -0.593438
      49A     -0.575725    50A     -0.571888    51A     -0.553943
      52A     -0.545637    53A     -0.537793    54A     -0.531965
      55A     -0.498661    56A     -0.478326    57A     -0.475977
      58A     -0.462375    59A     -0.458950    60A     -0.452600
      61A     -0.439422    62A     -0.432545    63A     -0.394769
      64A     -0.349677

  @DF-RHF Final Energy:  -886.37313515815458

   => Energetics <=

    Nuclear Repulsion Energy =           1324.9393161004099966
    One-Electron Energy =               -3847.5011041553311770
    Two-Electron Energy =                1636.1886528967665981
    Total Energy =                       -886.3731351581545823
  Basis Set: (AUG-CC-PVTZ AUX)
    Blend: AUG-CC-PVTZ-RI
    Molecular point group: c1

    Geometry (in Angstrom), charge = 0, multiplicity = 1:

       Center              X                  Y                   Z               Mass
    ------------   -----------------  -----------------  -----------------  -----------------
         O           -1.246867589589    -0.630658816000     1.024883797967    15.994914619570
         O           -1.246298389589     2.480910484000    -0.686149702033    15.994914619570
         O           -3.217853389589     1.519158484000     0.744900297967    15.994914619570
         O           -2.358352389589    -3.068777516000     0.094953297967    15.994914619570
         O            1.359206610411     2.245093484000    -0.076528702033    15.994914619570
         N            0.842080610411     0.043282484000     0.255956297967    14.003074004430
         N            3.055902610411     0.718562484000    -0.293713702033    14.003074004430
         N            4.715139610411    -0.838595516000    -0.572284702033    14.003074004430
         C           -1.290807389589     1.076489484000    -0.592063702033    12.000000000000
         C           -2.693094989589     0.660653184000    -0.247459502033    12.000000000000
         C           -0.526731389589     0.479579484000     0.600107297967    12.000000000000
         C           -2.530579389589    -0.718826516000     0.361069297967    12.000000000000
         C           -2.529667389589    -1.852333516000    -0.639276702033    12.000000000000
         C            1.218451610411    -1.263348516000     0.311287297967    12.000000000000
         C            1.754270610411     1.065494484000    -0.059389702033    12.000000000000
         C            2.509777610411    -1.611080516000     0.047008297967    12.000000000000
         C            3.410659610411    -0.552593516000    -0.258911702033    12.000000000000
         H           -0.938929389589     0.589463484000    -1.514877702033     1.007825032230
         H           -3.363905389589     0.640724484000    -1.146451702033     1.007825032230
         H           -0.441613389589     1.219939484000     1.404011297967     1.007825032230
         H           -3.283280389589    -0.910674516000     1.130796297967     1.007825032230
         H           -1.714631389589    -1.702245516000    -1.369450702033     1.007825032230
         H           -3.486884389589    -1.835944516000    -1.184121702033     1.007825032230
         H           -0.298848389589     2.711238484000    -0.524986702033     1.007825032230
         H           -2.848879389589     2.397802484000     0.508676297967     1.007825032230
         H            0.432987610411    -1.965377516000     0.569081297967     1.007825032230
         H           -2.435197389589    -3.800372516000    -0.543219702033     1.007825032230
         H            2.827788610411    -2.647338516000     0.073935297967     1.007825032230
         H            5.123856610411    -1.672801516000    -0.162400702033     1.007825032230
         H            5.318490610411    -0.021994516000    -0.568280702033     1.007825032230

  Basis Set: AUG-CC-PVTZ
    Blend: AUG-CC-PVTZ
  Basis Set: (AUG-CC-PVTZ AUX)
    Blend: AUG-CC-PVTZ-JKFIT
	 Reference Energy          =    -886.3731351581545823 [Eh]
	 Singles Energy            =      -0.0000000000000000 [Eh]
	 Same-Spin Energy          =      -0.9012495819766406 [Eh]
	 Opposite-Spin Energy      =      -2.7143523295579692 [Eh]
	 Correlation Energy        =      -3.6156019115346099 [Eh]
	 Total Energy              =    -889.9887370696891367 [Eh]

	 ================> DF-SCS-MP2 Energies <==================
	-----------------------------------------------------------
	 SCS Same-Spin Scale       =       0.3333333333333333 [-]
	 SCS Opposite-Spin Scale   =       1.2000000000000000 [-]
	 SCS Same-Spin Energy      =      -0.3004165273255469 [Eh]
	 SCS Opposite-Spin Energy  =      -3.2572227954695632 [Eh]
	 SCS Correlation Energy    =      -3.5576393227951102 [Eh]
	 SCS Total Energy          =    -889.9307744809497080 [Eh]
	-----------------------------------------------------------

  Dipole Moment: [D]
     X:     1.6817      Y:    -6.0214      Z:    -1.7776     Total:     6.4996

*** Psi4 exiting successfully. Buy a developer a beer!
