                               Psi4 1.3.2 release

  ==> Input File <==

--------------------------------------------------------------------------
#psi4
#
memory 32 gb

molecule  {
0 1
  O       -1.2481010    -0.6526680     1.0325150
  O       -1.2449750     2.4828510    -0.6861630
  O       -3.2165300     1.5210990     0.7448870
  O       -2.3570290    -3.0668370     0.0949400
  O        1.3605300     2.2470340    -0.0765420
  N        0.8434040     0.0452230     0.2559430
  N        3.0679484     0.7233584    -0.2968264
  N        4.7185513    -0.8249942    -0.5740185
  C       -1.2894840     1.0784300    -0.5920770
  C       -2.7151710     0.6552070    -0.2573930
  C       -0.5254080     0.4815200     0.6000940
  C       -2.5292560    -0.7168860     0.3610560
  C       -2.5283440    -1.8503930    -0.6392900
  C        1.2197750    -1.2614080     0.3112740
  C        1.7555940     1.0674350    -0.0594030
  C        2.5111010    -1.6091400     0.0469950
  C        3.4119830    -0.5506530    -0.2589250
  H       -0.9376060     0.5914040    -1.5148910
  H       -3.3625820     0.6426650    -1.1464650
  H       -0.4402900     1.2218800     1.4039980
  H       -3.2819570    -0.9087340     1.1307830
  H       -1.7133080    -1.7003050    -1.3694640
  H       -3.4855610    -1.8340040    -1.1841350
  H       -0.2975250     2.7131790    -0.5250000
  H       -2.8475560     2.3997430     0.5086630
  H        0.4343110    -1.9634370     0.5690680
  H       -2.4338740    -3.7984320    -0.5432330
  H        2.8291120    -2.6453980     0.0739220
  H        5.1251800    -1.6708610    -0.1624140
  H        5.3198140    -0.0200540    -0.5682940
units angstrom
no_reorient  #important for SAPT in psi4, default
symmetry c1  #important for SAPT in psi4, default
}

set PROPERTIES_ORIGIN ["COM"]
properties('MP2/aug-cc-pvtz', properties = ['dipole'])
--------------------------------------------------------------------------

    Molecular point group: c1
  Charge       = 0
  Multiplicity = 1
  Basis Set: AUG-CC-PVTZ
    Blend: AUG-CC-PVTZ
  Basis Set: (AUG-CC-PVTZ AUX)
    Blend: AUG-CC-PVTZ-JKFIT

    Orbital Energies [Eh]
    ---------------------

    Doubly Occupied:

       1A    -20.582403     2A    -20.581924     3A    -20.557990
       4A    -20.557544     5A    -20.523002     6A    -15.637492
       7A    -15.598712     8A    -15.554126     9A    -11.389257
      10A    -11.356884    11A    -11.341960    12A    -11.328932
      13A    -11.301365    14A    -11.297153    15A    -11.296917
      16A    -11.293187    17A    -11.249104    18A     -1.429609
      19A     -1.396365    20A     -1.380336    21A     -1.373018
      22A     -1.346525    23A     -1.305973    24A     -1.274126
      25A     -1.179685    26A     -1.082227    27A     -1.067966
      28A     -1.021543    29A     -0.935284    30A     -0.910146
      31A     -0.875737    32A     -0.832121    33A     -0.812098
      34A     -0.766835    35A     -0.752521    36A     -0.736483
      37A     -0.719406    38A     -0.703131    39A     -0.698713
      40A     -0.684545    41A     -0.673243    42A     -0.653773
      43A     -0.651832    44A     -0.638445    45A     -0.621288
      46A     -0.614544    47A     -0.607121    48A     -0.593528
      49A     -0.575959    50A     -0.569881    51A     -0.554237
      52A     -0.545810    53A     -0.537714    54A     -0.531878
      55A     -0.498272    56A     -0.477710    57A     -0.474697
      58A     -0.462531    59A     -0.461053    60A     -0.453097
      61A     -0.441141    62A     -0.433384    63A     -0.394386
      64A     -0.350202

  @DF-RHF Final Energy:  -886.37276941898699

   => Energetics <=

    Nuclear Repulsion Energy =           1323.3976209506190571
    One-Electron Energy =               -3844.4446392102818209
    Two-Electron Energy =                1634.6742488406757730
    Total Energy =                       -886.3727694189869908
  Basis Set: (AUG-CC-PVTZ AUX)
    Blend: AUG-CC-PVTZ-RI
    Molecular point group: c1

    Geometry (in Angstrom), charge = 0, multiplicity = 1:

       Center              X                  Y                   Z               Mass
    ------------   -----------------  -----------------  -----------------  -----------------
         O           -1.248839001298    -0.653504203480     1.032792660449    15.994914619570
         O           -1.245713001298     2.482014796520    -0.685885339551    15.994914619570
         O           -3.217268001298     1.520262796520     0.745164660449    15.994914619570
         O           -2.357767001298    -3.067673203480     0.095217660449    15.994914619570
         O            1.359791998702     2.246197796520    -0.076264339551    15.994914619570
         N            0.842665998702     0.044386796520     0.256220660449    14.003074004430
         N            3.067210398702     0.722522196520    -0.296548739551    14.003074004430
         N            4.717813298702    -0.825830403480    -0.573740839551    14.003074004430
         C           -1.290222001298     1.077593796520    -0.591799339551    12.000000000000
         C           -2.715909001298     0.654370796520    -0.257115339551    12.000000000000
         C           -0.526146001298     0.480683796520     0.600371660449    12.000000000000
         C           -2.529994001298    -0.717722203480     0.361333660449    12.000000000000
         C           -2.529082001298    -1.851229203480    -0.639012339551    12.000000000000
         C            1.219036998702    -1.262244203480     0.311551660449    12.000000000000
         C            1.754855998702     1.066598796520    -0.059125339551    12.000000000000
         C            2.510362998702    -1.609976203480     0.047272660449    12.000000000000
         C            3.411244998702    -0.551489203480    -0.258647339551    12.000000000000
         H           -0.938344001298     0.590567796520    -1.514613339551     1.007825032230
         H           -3.363320001298     0.641828796520    -1.146187339551     1.007825032230
         H           -0.441028001298     1.221043796520     1.404275660449     1.007825032230
         H           -3.282695001298    -0.909570203480     1.131060660449     1.007825032230
         H           -1.714046001298    -1.701141203480    -1.369186339551     1.007825032230
         H           -3.486299001298    -1.834840203480    -1.183857339551     1.007825032230
         H           -0.298263001298     2.712342796520    -0.524722339551     1.007825032230
         H           -2.848294001298     2.398906796520     0.508940660449     1.007825032230
         H            0.433572998702    -1.964273203480     0.569345660449     1.007825032230
         H           -2.434612001298    -3.799268203480    -0.542955339551     1.007825032230
         H            2.828373998702    -2.646234203480     0.074199660449     1.007825032230
         H            5.124441998702    -1.671697203480    -0.162136339551     1.007825032230
         H            5.319075998702    -0.020890203480    -0.568016339551     1.007825032230

  Basis Set: AUG-CC-PVTZ
    Blend: AUG-CC-PVTZ
  Basis Set: (AUG-CC-PVTZ AUX)
    Blend: AUG-CC-PVTZ-JKFIT
	 Reference Energy          =    -886.3727694189869908 [Eh]
	 Singles Energy            =      -0.0000000000000000 [Eh]
	 Same-Spin Energy          =      -0.9012081760180649 [Eh]
	 Opposite-Spin Energy      =      -2.7151428647117637 [Eh]
	 Correlation Energy        =      -3.6163510407298287 [Eh]
	 Total Energy              =    -889.9891204597167871 [Eh]

	 ================> DF-SCS-MP2 Energies <==================
	-----------------------------------------------------------
	 SCS Same-Spin Scale       =       0.3333333333333333 [-]
	 SCS Opposite-Spin Scale   =       1.2000000000000000 [-]
	 SCS Same-Spin Energy      =      -0.3004027253393550 [Eh]
	 SCS Opposite-Spin Energy  =      -3.2581714376541164 [Eh]
	 SCS Correlation Energy    =      -3.5585741629934713 [Eh]
	 SCS Total Energy          =    -889.9313435819805136 [Eh]
	-----------------------------------------------------------

  Dipole Moment: [D]
     X:     1.6525      Y:    -5.9424      Z:    -1.8141     Total:     6.4292

*** Psi4 exiting successfully. Buy a developer a beer!
