                               Psi4 1.3.2 release

  ==> Input File <==

--------------------------------------------------------------------------
#psi4
#
memory 32 gb

molecule  {
0 1
  O       -1.2481010    -0.6526680     1.0325150
  O       -1.2449750     2.4828510    -0.6861630
  O       -3.2165300     1.5210990     0.7448870
  O       -2.3570290    -3.0668370     0.0949400
  O        1.3605300     2.2470340    -0.0765420
  N        0.8434040     0.0452230     0.2559430
  N        3.0572260     0.7205030    -0.2937270
  N        4.7164630    -0.8366550    -0.5722980
  C       -1.2894840     1.0784300    -0.5920770
  C       -2.7151710     0.6552070    -0.2573930
  C       -0.5254080     0.4815200     0.6000940
  C       -2.5292560    -0.7168860     0.3610560
  C       -2.5283440    -1.8503930    -0.6392900
  C        1.2197750    -1.2614080     0.3112740
  C        1.7555940     1.0674350    -0.0594030
  C        2.5111010    -1.6091400     0.0469950
  C        3.4119830    -0.5506530    -0.2589250
  H       -0.9376060     0.5914040    -1.5148910
  H       -3.3625820     0.6426650    -1.1464650
  H       -0.4402900     1.2218800     1.4039980
  H       -3.2819570    -0.9087340     1.1307830
  H       -1.7133080    -1.7003050    -1.3694640
  H       -3.4855610    -1.8340040    -1.1841350
  H       -0.2975250     2.7131790    -0.5250000
  H       -2.8475560     2.3997430     0.5086630
  H        0.5067338    -1.8987072     0.5452984
  H       -2.4338740    -3.7984320    -0.5432330
  H        2.8291120    -2.6453980     0.0739220
  H        5.1251800    -1.6708610    -0.1624140
  H        5.3198140    -0.0200540    -0.5682940
units angstrom
no_reorient  #important for SAPT in psi4, default
symmetry c1  #important for SAPT in psi4, default
}

set PROPERTIES_ORIGIN ["COM"]
properties('MP2/aug-cc-pvtz', properties = ['dipole'])
--------------------------------------------------------------------------

    Molecular point group: c1
  Charge       = 0
  Multiplicity = 1
  Basis Set: AUG-CC-PVTZ
    Blend: AUG-CC-PVTZ
  Basis Set: (AUG-CC-PVTZ AUX)
    Blend: AUG-CC-PVTZ-JKFIT

    Orbital Energies [Eh]
    ---------------------

    Doubly Occupied:

       1A    -20.581568     2A    -20.581473     3A    -20.557677
       4A    -20.557191     5A    -20.522002     6A    -15.636731
       7A    -15.600154     8A    -15.553780     9A    -11.388219
      10A    -11.358173    11A    -11.341495    12A    -11.319480
      13A    -11.300855    14A    -11.296683    15A    -11.296582
      16A    -11.292823    17A    -11.249195    18A     -1.429250
      19A     -1.396360    20A     -1.379897    21A     -1.372314
      22A     -1.346223    23A     -1.306508    24A     -1.274479
      25A     -1.182675    26A     -1.084966    27A     -1.067520
      28A     -1.021328    29A     -0.936699    30A     -0.917886
      31A     -0.877454    32A     -0.832907    33A     -0.812170
      34A     -0.767283    35A     -0.757997    36A     -0.736086
      37A     -0.724370    38A     -0.703376    39A     -0.698327
      40A     -0.691154    41A     -0.673243    42A     -0.654994
      43A     -0.651736    44A     -0.638547    45A     -0.625333
      46A     -0.615478    47A     -0.608827    48A     -0.594146
      49A     -0.576821    50A     -0.569897    51A     -0.554273
      52A     -0.545566    53A     -0.537714    54A     -0.531706
      55A     -0.498279    56A     -0.477125    57A     -0.474260
      58A     -0.462550    59A     -0.460113    60A     -0.452760
      61A     -0.441041    62A     -0.433326    63A     -0.395400
      64A     -0.350364

  @DF-RHF Final Energy:  -886.36779692006894

   => Energetics <=

    Nuclear Repulsion Energy =           1324.1899606557722109
    One-Electron Energy =               -3845.9658980883482400
    Two-Electron Energy =                1635.4081405125070887
    Total Energy =                       -886.3677969200689404
  Basis Set: (AUG-CC-PVTZ AUX)
    Blend: AUG-CC-PVTZ-RI
    Molecular point group: c1

    Geometry (in Angstrom), charge = 0, multiplicity = 1:

       Center              X                  Y                   Z               Mass
    ------------   -----------------  -----------------  -----------------  -----------------
         O           -1.248401296620    -0.652936357605     1.032613555505    15.994914619570
         O           -1.245275296620     2.482582642395    -0.686064444495    15.994914619570
         O           -3.216830296620     1.520830642395     0.744985555505    15.994914619570
         O           -2.357329296620    -3.067105357605     0.095038555505    15.994914619570
         O            1.360229703380     2.246765642395    -0.076443444495    15.994914619570
         N            0.843103703380     0.044954642395     0.256041555505    14.003074004430
         N            3.056925703380     0.720234642395    -0.293628444495    14.003074004430
         N            4.716162703380    -0.836923357605    -0.572199444495    14.003074004430
         C           -1.289784296620     1.078161642395    -0.591978444495    12.000000000000
         C           -2.715471296620     0.654938642395    -0.257294444495    12.000000000000
         C           -0.525708296620     0.481251642395     0.600192555505    12.000000000000
         C           -2.529556296620    -0.717154357605     0.361154555505    12.000000000000
         C           -2.528644296620    -1.850661357605    -0.639191444495    12.000000000000
         C            1.219474703380    -1.261676357605     0.311372555505    12.000000000000
         C            1.755293703380     1.067166642395    -0.059304444495    12.000000000000
         C            2.510800703380    -1.609408357605     0.047093555505    12.000000000000
         C            3.411682703380    -0.550921357605    -0.258826444495    12.000000000000
         H           -0.937906296620     0.591135642395    -1.514792444495     1.007825032230
         H           -3.362882296620     0.642396642395    -1.146366444495     1.007825032230
         H           -0.440590296620     1.221611642395     1.404096555505     1.007825032230
         H           -3.282257296620    -0.909002357605     1.130881555505     1.007825032230
         H           -1.713608296620    -1.700573357605    -1.369365444495     1.007825032230
         H           -3.485861296620    -1.834272357605    -1.184036444495     1.007825032230
         H           -0.297825296620     2.712910642395    -0.524901444495     1.007825032230
         H           -2.847856296620     2.399474642395     0.508761555505     1.007825032230
         H            0.506433503380    -1.898975557605     0.545396955505     1.007825032230
         H           -2.434174296620    -3.798700357605    -0.543134444495     1.007825032230
         H            2.828811703380    -2.645666357605     0.074020555505     1.007825032230
         H            5.124879703380    -1.671129357605    -0.162315444495     1.007825032230
         H            5.319513703380    -0.020322357605    -0.568195444495     1.007825032230

  Basis Set: AUG-CC-PVTZ
    Blend: AUG-CC-PVTZ
  Basis Set: (AUG-CC-PVTZ AUX)
    Blend: AUG-CC-PVTZ-JKFIT
	 Reference Energy          =    -886.3677969200689404 [Eh]
	 Singles Energy            =      -0.0000000000000000 [Eh]
	 Same-Spin Energy          =      -0.9007945196231710 [Eh]
	 Opposite-Spin Energy      =      -2.7142392951367471 [Eh]
	 Correlation Energy        =      -3.6150338147599181 [Eh]
	 Total Energy              =    -889.9828307348288945 [Eh]

	 ================> DF-SCS-MP2 Energies <==================
	-----------------------------------------------------------
	 SCS Same-Spin Scale       =       0.3333333333333333 [-]
	 SCS Opposite-Spin Scale   =       1.2000000000000000 [-]
	 SCS Same-Spin Energy      =      -0.3002648398743903 [Eh]
	 SCS Opposite-Spin Energy  =      -3.2570871541640964 [Eh]
	 SCS Correlation Energy    =      -3.5573519940384868 [Eh]
	 SCS Total Energy          =    -889.9251489141074671 [Eh]
	-----------------------------------------------------------

  Dipole Moment: [D]
     X:     1.7749      Y:    -5.9341      Z:    -1.8342     Total:     6.4598

*** Psi4 exiting successfully. Buy a developer a beer!
