                               Psi4 1.3.2 release

  ==> Input File <==

--------------------------------------------------------------------------
#psi4
#
memory 32 gb

molecule  {
0 1
  O       -1.2481010    -0.6526680     1.0325150
  O       -1.2449750     2.4828510    -0.6861630
  O       -3.2165300     1.5210990     0.7448870
  O       -2.3570290    -3.0668370     0.0949400
  O        1.3605300     2.2470340    -0.0765420
  N        0.8434040     0.0452230     0.2559430
  N        3.0572260     0.7205030    -0.2937270
  N        4.7207118    -0.8132555    -0.5750525
  C       -1.2894840     1.0784300    -0.5920770
  C       -2.7151710     0.6552070    -0.2573930
  C       -0.5254080     0.4815200     0.6000940
  C       -2.5292560    -0.7168860     0.3610560
  C       -2.5283440    -1.8503930    -0.6392900
  C        1.2197750    -1.2614080     0.3112740
  C        1.7555940     1.0674350    -0.0594030
  C        2.4930163    -1.5924628     0.0504336
  C        3.4119830    -0.5506530    -0.2589250
  H       -0.9376060     0.5914040    -1.5148910
  H       -3.3625820     0.6426650    -1.1464650
  H       -0.4402900     1.2218800     1.4039980
  H       -3.2819570    -0.9087340     1.1307830
  H       -1.7133080    -1.7003050    -1.3694640
  H       -3.4855610    -1.8340040    -1.1841350
  H       -0.2975250     2.7131790    -0.5250000
  H       -2.8475560     2.3997430     0.5086630
  H        0.4343110    -1.9634370     0.5690680
  H       -2.4338740    -3.7984320    -0.5432330
  H        2.8291120    -2.6453980     0.0739220
  H        5.1251800    -1.6708610    -0.1624140
  H        5.3198140    -0.0200540    -0.5682940
units angstrom
no_reorient  #important for SAPT in psi4, default
symmetry c1  #important for SAPT in psi4, default
}

set PROPERTIES_ORIGIN ["COM"]
properties('MP2/aug-cc-pvtz', properties = ['dipole'])
--------------------------------------------------------------------------

    Molecular point group: c1
  Charge       = 0
  Multiplicity = 1
  Basis Set: AUG-CC-PVTZ
    Blend: AUG-CC-PVTZ
  Basis Set: (AUG-CC-PVTZ AUX)
    Blend: AUG-CC-PVTZ-JKFIT

    Orbital Energies [Eh]
    ---------------------

    Doubly Occupied:

       1A    -20.582051     2A    -20.581125     3A    -20.557422
       4A    -20.556767     5A    -20.521288     6A    -15.634940
       7A    -15.601175     8A    -15.552808     9A    -11.387390
      10A    -11.358564    11A    -11.340736    12A    -11.324982
      13A    -11.300937    14A    -11.296570    15A    -11.296075
      16A    -11.292552    17A    -11.249221    18A     -1.428827
      19A     -1.395908    20A     -1.379746    21A     -1.372520
      22A     -1.345891    23A     -1.306834    24A     -1.274118
      25A     -1.181915    26A     -1.085721    27A     -1.067340
      28A     -1.021099    29A     -0.935332    30A     -0.908826
      31A     -0.877188    32A     -0.832076    33A     -0.811786
      34A     -0.769369    35A     -0.751552    36A     -0.735607
      37A     -0.720534    38A     -0.703039    39A     -0.698103
      40A     -0.684536    41A     -0.672952    42A     -0.653371
      43A     -0.648773    44A     -0.637039    45A     -0.624242
      46A     -0.614723    47A     -0.608399    48A     -0.591017
      49A     -0.575742    50A     -0.569657    51A     -0.553851
      52A     -0.545287    53A     -0.537020    54A     -0.531581
      55A     -0.498768    56A     -0.477243    57A     -0.474162
      58A     -0.461672    59A     -0.459325    60A     -0.452407
      61A     -0.440829    62A     -0.432462    63A     -0.394770
      64A     -0.352066

  @DF-RHF Final Energy:  -886.37216955105180

   => Energetics <=

    Nuclear Repulsion Energy =           1324.2930730277780640
    One-Electron Energy =               -3846.2708188683477601
    Two-Electron Energy =                1635.6055762895180123
    Total Energy =                       -886.3721695510516838
  Basis Set: (AUG-CC-PVTZ AUX)
    Blend: AUG-CC-PVTZ-RI
    Molecular point group: c1

    Geometry (in Angstrom), charge = 0, multiplicity = 1:

       Center              X                  Y                   Z               Mass
    ------------   -----------------  -----------------  -----------------  -----------------
         O           -1.247453030967    -0.654839206514     1.032503934289    15.994914619570
         O           -1.244327030967     2.480679793486    -0.686174065711    15.994914619570
         O           -3.215882030967     1.518927793486     0.744875934289    15.994914619570
         O           -2.356381030967    -3.069008206514     0.094928934289    15.994914619570
         O            1.361177969033     2.244862793486    -0.076553065711    15.994914619570
         N            0.844051969033     0.043051793486     0.255931934289    14.003074004430
         N            3.057873969033     0.718331793486    -0.293738065711    14.003074004430
         N            4.721359769033    -0.815426706514    -0.575063565711    14.003074004430
         C           -1.288836030967     1.076258793486    -0.592088065711    12.000000000000
         C           -2.714523030967     0.653035793486    -0.257404065711    12.000000000000
         C           -0.524760030967     0.479348793486     0.600082934289    12.000000000000
         C           -2.528608030967    -0.719057206514     0.361044934289    12.000000000000
         C           -2.527696030967    -1.852564206514    -0.639301065711    12.000000000000
         C            1.220422969033    -1.263579206514     0.311262934289    12.000000000000
         C            1.756241969033     1.065263793486    -0.059414065711    12.000000000000
         C            2.493664269033    -1.594634006514     0.050422534289    12.000000000000
         C            3.412630969033    -0.552824206514    -0.258936065711    12.000000000000
         H           -0.936958030967     0.589232793486    -1.514902065711     1.007825032230
         H           -3.361934030967     0.640493793486    -1.146476065711     1.007825032230
         H           -0.439642030967     1.219708793486     1.403986934289     1.007825032230
         H           -3.281309030967    -0.910905206514     1.130771934289     1.007825032230
         H           -1.712660030967    -1.702476206514    -1.369475065711     1.007825032230
         H           -3.484913030967    -1.836175206514    -1.184146065711     1.007825032230
         H           -0.296877030967     2.711007793486    -0.525011065711     1.007825032230
         H           -2.846908030967     2.397571793486     0.508651934289     1.007825032230
         H            0.434958969033    -1.965608206514     0.569056934289     1.007825032230
         H           -2.433226030967    -3.800603206514    -0.543244065711     1.007825032230
         H            2.829759969033    -2.647569206514     0.073910934289     1.007825032230
         H            5.125827969033    -1.673032206514    -0.162425065711     1.007825032230
         H            5.320461969033    -0.022225206514    -0.568305065711     1.007825032230

  Basis Set: AUG-CC-PVTZ
    Blend: AUG-CC-PVTZ
  Basis Set: (AUG-CC-PVTZ AUX)
    Blend: AUG-CC-PVTZ-JKFIT
	 Reference Energy          =    -886.3721695510517975 [Eh]
	 Singles Energy            =      -0.0000000000000000 [Eh]
	 Same-Spin Energy          =      -0.9011353371765911 [Eh]
	 Opposite-Spin Energy      =      -2.7147503613958457 [Eh]
	 Correlation Energy        =      -3.6158856985724368 [Eh]
	 Total Energy              =    -889.9880552496242672 [Eh]

	 ================> DF-SCS-MP2 Energies <==================
	-----------------------------------------------------------
	 SCS Same-Spin Scale       =       0.3333333333333333 [-]
	 SCS Opposite-Spin Scale   =       1.2000000000000000 [-]
	 SCS Same-Spin Energy      =      -0.3003784457255304 [Eh]
	 SCS Opposite-Spin Energy  =      -3.2577004336750148 [Eh]
	 SCS Correlation Energy    =      -3.5580788794005453 [Eh]
	 SCS Total Energy          =    -889.9302484304523659 [Eh]
	-----------------------------------------------------------

  Dipole Moment: [D]
     X:     1.7618      Y:    -5.9876      Z:    -1.8320     Total:     6.5047

*** Psi4 exiting successfully. Buy a developer a beer!
