                               Psi4 1.3.2 release

  ==> Input File <==

--------------------------------------------------------------------------
#psi4
#
memory 32 gb

molecule  {
0 1
  O       -1.2481010    -0.6526680     1.0325150
  O       -1.2449750     2.4828510    -0.6861630
  O       -3.2165300     1.5210990     0.7448870
  O       -2.3570290    -3.0668370     0.0949400
  O        1.3605300     2.2470340    -0.0765420
  N        0.8434040     0.0452230     0.2559430
  N        3.0572260     0.7205030    -0.2937270
  N        4.7164630    -0.8366550    -0.5722980
  C       -1.2894840     1.0784300    -0.5920770
  C       -2.7151710     0.6552070    -0.2573930
  C       -0.5254080     0.4815200     0.6000940
  C       -2.5292560    -0.7168860     0.3610560
  C       -2.5283440    -1.8503930    -0.6392900
  C        1.2170970    -1.2728693     0.3130012
  C        1.7555940     1.0674350    -0.0594030
  C        2.5111010    -1.6091400     0.0469950
  C        3.4119830    -0.5506530    -0.2589250
  H       -0.9376060     0.5914040    -1.5148910
  H       -3.3625820     0.6426650    -1.1464650
  H       -0.4402900     1.2218800     1.4039980
  H       -3.2819570    -0.9087340     1.1307830
  H       -1.7133080    -1.7003050    -1.3694640
  H       -3.4855610    -1.8340040    -1.1841350
  H       -0.2975250     2.7131790    -0.5250000
  H       -2.8475560     2.3997430     0.5086630
  H        0.4343110    -1.9634370     0.5690680
  H       -2.4338740    -3.7984320    -0.5432330
  H        2.8203053    -2.6479981     0.0762056
  H        5.1251800    -1.6708610    -0.1624140
  H        5.3198140    -0.0200540    -0.5682940
units angstrom
no_reorient  #important for SAPT in psi4, default
symmetry c1  #important for SAPT in psi4, default
}

set PROPERTIES_ORIGIN ["COM"]
properties('MP2/aug-cc-pvtz', properties = ['dipole'])
--------------------------------------------------------------------------

    Molecular point group: c1
  Charge       = 0
  Multiplicity = 1
  Basis Set: AUG-CC-PVTZ
    Blend: AUG-CC-PVTZ
  Basis Set: (AUG-CC-PVTZ AUX)
    Blend: AUG-CC-PVTZ-JKFIT

    Orbital Energies [Eh]
    ---------------------

    Doubly Occupied:

       1A    -20.582207     2A    -20.581275     3A    -20.557508
       4A    -20.556889     5A    -20.521760     6A    -15.636070
       7A    -15.600381     8A    -15.553752     9A    -11.388124
      10A    -11.358738    11A    -11.340804    12A    -11.328842
      13A    -11.301067    14A    -11.296691    15A    -11.296152
      16A    -11.292647    17A    -11.249601    18A     -1.428733
      19A     -1.395837    20A     -1.379824    21A     -1.372655
      22A     -1.345984    23A     -1.305301    24A     -1.272132
      25A     -1.182320    26A     -1.082321    27A     -1.067457
      28A     -1.020822    29A     -0.934986    30A     -0.909480
      31A     -0.877086    32A     -0.831894    33A     -0.811633
      34A     -0.766548    35A     -0.751821    36A     -0.735638
      37A     -0.720840    38A     -0.702921    39A     -0.698186
      40A     -0.686570    41A     -0.672562    42A     -0.654109
      43A     -0.651243    44A     -0.637967    45A     -0.621871
      46A     -0.614732    47A     -0.607303    48A     -0.592399
      49A     -0.575843    50A     -0.569629    51A     -0.553815
      52A     -0.545398    53A     -0.537287    54A     -0.531678
      55A     -0.496986    56A     -0.477301    57A     -0.474102
      58A     -0.461929    59A     -0.459984    60A     -0.452517
      61A     -0.440604    62A     -0.433274    63A     -0.395142
      64A     -0.350601

  @DF-RHF Final Energy:  -886.37299855120159

   => Energetics <=

    Nuclear Repulsion Energy =           1323.4698330436915512
    One-Electron Energy =               -3844.6221134353804700
    Two-Electron Energy =                1634.7792818404871014
    Total Energy =                       -886.3729985512015901
  Basis Set: (AUG-CC-PVTZ AUX)
    Blend: AUG-CC-PVTZ-RI
    Molecular point group: c1

    Geometry (in Angstrom), charge = 0, multiplicity = 1:

       Center              X                  Y                   Z               Mass
    ------------   -----------------  -----------------  -----------------  -----------------
         O           -1.247932321244    -0.652091418926     1.032420275926    15.994914619570
         O           -1.244806321244     2.483427581074    -0.686257724074    15.994914619570
         O           -3.216361321244     1.521675581074     0.744792275926    15.994914619570
         O           -2.356860321244    -3.066260418926     0.094845275926    15.994914619570
         O            1.360698678756     2.247610581074    -0.076636724074    15.994914619570
         N            0.843572678756     0.045799581074     0.255848275926    14.003074004430
         N            3.057394678756     0.721079581074    -0.293821724074    14.003074004430
         N            4.716631678756    -0.836078418926    -0.572392724074    14.003074004430
         C           -1.289315321244     1.079006581074    -0.592171724074    12.000000000000
         C           -2.715002321244     0.655783581074    -0.257487724074    12.000000000000
         C           -0.525239321244     0.482096581074     0.599999275926    12.000000000000
         C           -2.529087321244    -0.716309418926     0.360961275926    12.000000000000
         C           -2.528175321244    -1.849816418926    -0.639384724074    12.000000000000
         C            1.217265678756    -1.272292718926     0.312906475926    12.000000000000
         C            1.755762678756     1.068011581074    -0.059497724074    12.000000000000
         C            2.511269678756    -1.608563418926     0.046900275926    12.000000000000
         C            3.412151678756    -0.550076418926    -0.259019724074    12.000000000000
         H           -0.937437321244     0.591980581074    -1.514985724074     1.007825032230
         H           -3.362413321244     0.643241581074    -1.146559724074     1.007825032230
         H           -0.440121321244     1.222456581074     1.403903275926     1.007825032230
         H           -3.281788321244    -0.908157418926     1.130688275926     1.007825032230
         H           -1.713139321244    -1.699728418926    -1.369558724074     1.007825032230
         H           -3.485392321244    -1.833427418926    -1.184229724074     1.007825032230
         H           -0.297356321244     2.713755581074    -0.525094724074     1.007825032230
         H           -2.847387321244     2.400319581074     0.508568275926     1.007825032230
         H            0.434479678756    -1.962860418926     0.568973275926     1.007825032230
         H           -2.433705321244    -3.797855418926    -0.543327724074     1.007825032230
         H            2.820473978756    -2.647421518926     0.076110875926     1.007825032230
         H            5.125348678756    -1.670284418926    -0.162508724074     1.007825032230
         H            5.319982678756    -0.019477418926    -0.568388724074     1.007825032230

  Basis Set: AUG-CC-PVTZ
    Blend: AUG-CC-PVTZ
  Basis Set: (AUG-CC-PVTZ AUX)
    Blend: AUG-CC-PVTZ-JKFIT
	 Reference Energy          =    -886.3729985512015901 [Eh]
	 Singles Energy            =      -0.0000000000000000 [Eh]
	 Same-Spin Energy          =      -0.9012254323494401 [Eh]
	 Opposite-Spin Energy      =      -2.7151179262129008 [Eh]
	 Correlation Energy        =      -3.6163433585623408 [Eh]
	 Total Energy              =    -889.9893419097638798 [Eh]

	 ================> DF-SCS-MP2 Energies <==================
	-----------------------------------------------------------
	 SCS Same-Spin Scale       =       0.3333333333333333 [-]
	 SCS Opposite-Spin Scale   =       1.2000000000000000 [-]
	 SCS Same-Spin Energy      =      -0.3004084774498134 [Eh]
	 SCS Opposite-Spin Energy  =      -3.2581415114554808 [Eh]
	 SCS Correlation Energy    =      -3.5585499889052943 [Eh]
	 SCS Total Energy          =    -889.9315485401068599 [Eh]
	-----------------------------------------------------------

  Dipole Moment: [D]
     X:     1.7485      Y:    -5.9743      Z:    -1.8256     Total:     6.4871

*** Psi4 exiting successfully. Buy a developer a beer!
