                               Psi4 1.3.2 release

  ==> Input File <==

--------------------------------------------------------------------------
#psi4
#
memory 32 gb

molecule  {
0 1
  O       -1.2481010    -0.6526680     1.0325150
  O       -1.1969923     2.4797852    -0.6963864
  O       -3.2165300     1.5210990     0.7448870
  O       -2.3570290    -3.0668370     0.0949400
  O        1.3605300     2.2470340    -0.0765420
  N        0.8434040     0.0452230     0.2559430
  N        3.0572260     0.7205030    -0.2937270
  N        4.7164630    -0.8366550    -0.5722980
  C       -1.2894840     1.0784300    -0.5920770
  C       -2.6992077     0.6044518    -0.2578042
  C       -0.5254080     0.4815200     0.6000940
  C       -2.5292560    -0.7168860     0.3610560
  C       -2.5283440    -1.8503930    -0.6392900
  C        1.2197750    -1.2614080     0.3112740
  C        1.7555940     1.0674350    -0.0594030
  C        2.5111010    -1.6091400     0.0469950
  C        3.4119830    -0.5506530    -0.2589250
  H       -0.9376060     0.5914040    -1.5148910
  H       -3.3625820     0.6426650    -1.1464650
  H       -0.4402900     1.2218800     1.4039980
  H       -3.2819570    -0.9087340     1.1307830
  H       -1.7133080    -1.7003050    -1.3694640
  H       -3.4855610    -1.8340040    -1.1841350
  H       -0.2975250     2.7131790    -0.5250000
  H       -2.8475560     2.3997430     0.5086630
  H        0.4343110    -1.9634370     0.5690680
  H       -2.4338740    -3.7984320    -0.5432330
  H        2.8291120    -2.6453980     0.0739220
  H        5.1251800    -1.6708610    -0.1624140
  H        5.3198140    -0.0200540    -0.5682940
units angstrom
no_reorient  #important for SAPT in psi4, default
symmetry c1  #important for SAPT in psi4, default
}

set PROPERTIES_ORIGIN ["COM"]
properties('MP2/aug-cc-pvtz', properties = ['dipole'])
--------------------------------------------------------------------------

    Molecular point group: c1
  Charge       = 0
  Multiplicity = 1
  Basis Set: AUG-CC-PVTZ
    Blend: AUG-CC-PVTZ
  Basis Set: (AUG-CC-PVTZ AUX)
    Blend: AUG-CC-PVTZ-JKFIT

    Orbital Energies [Eh]
    ---------------------

    Doubly Occupied:

       1A    -20.583726     2A    -20.582752     3A    -20.555688
       4A    -20.553944     5A    -20.519835     6A    -15.636343
       7A    -15.599368     8A    -15.552571     9A    -11.387028
      10A    -11.357233    11A    -11.341663    12A    -11.328202
      13A    -11.303276    14A    -11.299052    15A    -11.298314
      16A    -11.295684    17A    -11.248154    18A     -1.430811
      19A     -1.395915    20A     -1.379476    21A     -1.374443
      22A     -1.341039    23A     -1.305222    24A     -1.273404
      25A     -1.181650    26A     -1.082086    27A     -1.078313
      28A     -1.023973    29A     -0.936656    30A     -0.909603
      31A     -0.879656    32A     -0.836789    33A     -0.811379
      34A     -0.766692    35A     -0.753807    36A     -0.739203
      37A     -0.720436    38A     -0.705762    39A     -0.697015
      40A     -0.685450    41A     -0.671931    42A     -0.654773
      43A     -0.651875    44A     -0.638400    45A     -0.622376
      46A     -0.615335    47A     -0.606541    48A     -0.593339
      49A     -0.574132    50A     -0.570584    51A     -0.554876
      52A     -0.545166    53A     -0.535517    54A     -0.532126
      55A     -0.499132    56A     -0.481589    57A     -0.477758
      58A     -0.462832    59A     -0.459347    60A     -0.452846
      61A     -0.441674    62A     -0.432597    63A     -0.394537
      64A     -0.349221

  @DF-RHF Final Energy:  -886.37035886985666

   => Energetics <=

    Nuclear Repulsion Energy =           1324.5421651652868604
    One-Electron Energy =               -3846.6848142501330585
    Two-Electron Energy =                1635.7722902149896527
    Total Energy =                       -886.3703588698565454
  Basis Set: (AUG-CC-PVTZ AUX)
    Blend: AUG-CC-PVTZ-RI
    Molecular point group: c1

    Geometry (in Angstrom), charge = 0, multiplicity = 1:

       Center              X                  Y                   Z               Mass
    ------------   -----------------  -----------------  -----------------  -----------------
         O           -1.252046307137    -0.649960713805     1.033208001493    15.994914619570
         O           -1.200937607137     2.482492486195    -0.695693398507    15.994914619570
         O           -3.220475307137     1.523806286195     0.745580001493    15.994914619570
         O           -2.360974307137    -3.064129713805     0.095633001493    15.994914619570
         O            1.356584692863     2.249741286195    -0.075848998507    15.994914619570
         N            0.839458692863     0.047930286195     0.256636001493    14.003074004430
         N            3.053280692863     0.723210286195    -0.293033998507    14.003074004430
         N            4.712517692863    -0.833947713805    -0.571604998507    14.003074004430
         C           -1.293429307137     1.081137286195    -0.591383998507    12.000000000000
         C           -2.703153007137     0.607159086195    -0.257111198507    12.000000000000
         C           -0.529353307137     0.484227286195     0.600787001493    12.000000000000
         C           -2.533201307137    -0.714178713805     0.361749001493    12.000000000000
         C           -2.532289307137    -1.847685713805    -0.638596998507    12.000000000000
         C            1.215829692863    -1.258700713805     0.311967001493    12.000000000000
         C            1.751648692863     1.070142286195    -0.058709998507    12.000000000000
         C            2.507155692863    -1.606432713805     0.047688001493    12.000000000000
         C            3.408037692863    -0.547945713805    -0.258231998507    12.000000000000
         H           -0.941551307137     0.594111286195    -1.514197998507     1.007825032230
         H           -3.366527307137     0.645372286195    -1.145771998507     1.007825032230
         H           -0.444235307137     1.224587286195     1.404691001493     1.007825032230
         H           -3.285902307137    -0.906026713805     1.131476001493     1.007825032230
         H           -1.717253307137    -1.697597713805    -1.368770998507     1.007825032230
         H           -3.489506307137    -1.831296713805    -1.183441998507     1.007825032230
         H           -0.301470307137     2.715886286195    -0.524306998507     1.007825032230
         H           -2.851501307137     2.402450286195     0.509356001493     1.007825032230
         H            0.430365692863    -1.960729713805     0.569761001493     1.007825032230
         H           -2.437819307137    -3.795724713805    -0.542539998507     1.007825032230
         H            2.825166692863    -2.642690713805     0.074615001493     1.007825032230
         H            5.121234692863    -1.668153713805    -0.161720998507     1.007825032230
         H            5.315868692863    -0.017346713805    -0.567600998507     1.007825032230

  Basis Set: AUG-CC-PVTZ
    Blend: AUG-CC-PVTZ
  Basis Set: (AUG-CC-PVTZ AUX)
    Blend: AUG-CC-PVTZ-JKFIT
	 Reference Energy          =    -886.3703588698566591 [Eh]
	 Singles Energy            =      -0.0000000000000000 [Eh]
	 Same-Spin Energy          =      -0.9007784053520222 [Eh]
	 Opposite-Spin Energy      =      -2.7142685768905088 [Eh]
	 Correlation Energy        =      -3.6150469822425313 [Eh]
	 Total Energy              =    -889.9854058520992339 [Eh]

	 ================> DF-SCS-MP2 Energies <==================
	-----------------------------------------------------------
	 SCS Same-Spin Scale       =       0.3333333333333333 [-]
	 SCS Opposite-Spin Scale   =       1.2000000000000000 [-]
	 SCS Same-Spin Energy      =      -0.3002594684506741 [Eh]
	 SCS Opposite-Spin Energy  =      -3.2571222922686105 [Eh]
	 SCS Correlation Energy    =      -3.5573817607192844 [Eh]
	 SCS Total Energy          =    -889.9277406305759541 [Eh]
	-----------------------------------------------------------

  Dipole Moment: [D]
     X:     1.5835      Y:    -6.0705      Z:    -1.8525     Total:     6.5414

*** Psi4 exiting successfully. Buy a developer a beer!
