                               Psi4 1.3.2 release

  ==> Input File <==

--------------------------------------------------------------------------
#psi4
#
memory 32 gb

molecule  {
0 1
  O       -1.2481010    -0.6526680     1.0325150
  O       -1.2449750     2.4828510    -0.6861630
  O       -3.2165300     1.5210990     0.7448870
  O       -2.3570290    -3.0668370     0.0949400
  O        1.3605300     2.2470340    -0.0765420
  N        0.8468860     0.0376604     0.2803454
  N        3.0572260     0.7205030    -0.2937270
  N        4.7164630    -0.8366550    -0.5722980
  C       -1.3106842     1.0824843    -0.5761579
  C       -2.7151710     0.6552070    -0.2573930
  C       -0.5254080     0.4815200     0.6000940
  C       -2.5292560    -0.7168860     0.3610560
  C       -2.5283440    -1.8503930    -0.6392900
  C        1.2197750    -1.2614080     0.3112740
  C        1.7555940     1.0674350    -0.0594030
  C        2.5111010    -1.6091400     0.0469950
  C        3.4119830    -0.5506530    -0.2589250
  H       -0.9376060     0.5914040    -1.5148910
  H       -3.3625820     0.6426650    -1.1464650
  H       -0.4402900     1.2218800     1.4039980
  H       -3.2819570    -0.9087340     1.1307830
  H       -1.7133080    -1.7003050    -1.3694640
  H       -3.4855610    -1.8340040    -1.1841350
  H       -0.2975250     2.7131790    -0.5250000
  H       -2.8475560     2.3997430     0.5086630
  H        0.4343110    -1.9634370     0.5690680
  H       -2.4338740    -3.7984320    -0.5432330
  H        2.8291120    -2.6453980     0.0739220
  H        5.1251800    -1.6708610    -0.1624140
  H        5.3198140    -0.0200540    -0.5682940
units angstrom
no_reorient  #important for SAPT in psi4, default
symmetry c1  #important for SAPT in psi4, default
}

set PROPERTIES_ORIGIN ["COM"]
properties('MP2/aug-cc-pvtz', properties = ['dipole'])
--------------------------------------------------------------------------

    Molecular point group: c1
  Charge       = 0
  Multiplicity = 1
  Basis Set: AUG-CC-PVTZ
    Blend: AUG-CC-PVTZ
  Basis Set: (AUG-CC-PVTZ AUX)
    Blend: AUG-CC-PVTZ-JKFIT

    Orbital Energies [Eh]
    ---------------------

    Doubly Occupied:

       1A    -20.582289     2A    -20.581352     3A    -20.558070
       4A    -20.557628     5A    -20.523475     6A    -15.637695
       7A    -15.599544     8A    -15.553330     9A    -11.389641
      10A    -11.357567    11A    -11.341751    12A    -11.327747
      13A    -11.301279    14A    -11.298327    15A    -11.297479
      16A    -11.292910    17A    -11.247388    18A     -1.429941
      19A     -1.396467    20A     -1.381322    21A     -1.373121
      22A     -1.347003    23A     -1.306803    24A     -1.274570
      25A     -1.182287    26A     -1.081518    27A     -1.069893
      28A     -1.022259    29A     -0.936840    30A     -0.908789
      31A     -0.877627    32A     -0.832327    33A     -0.812190
      34A     -0.766479    35A     -0.753919    36A     -0.736429
      37A     -0.720059    38A     -0.703478    39A     -0.698247
      40A     -0.685389    41A     -0.672887    42A     -0.654700
      43A     -0.651847    44A     -0.638235    45A     -0.620688
      46A     -0.614109    47A     -0.606459    48A     -0.595241
      49A     -0.577269    50A     -0.570027    51A     -0.553707
      52A     -0.545209    53A     -0.537519    54A     -0.531850
      55A     -0.499689    56A     -0.478965    57A     -0.475726
      58A     -0.463104    59A     -0.460616    60A     -0.451756
      61A     -0.440800    62A     -0.432512    63A     -0.395324
      64A     -0.349160

  @DF-RHF Final Energy:  -886.37229967076541

   => Energetics <=

    Nuclear Repulsion Energy =           1323.7572146833038005
    One-Electron Energy =               -3845.1353769624010965
    Two-Electron Energy =                1635.0058626083321087
    Total Energy =                       -886.3722996707654147
  Basis Set: (AUG-CC-PVTZ AUX)
    Blend: AUG-CC-PVTZ-RI
    Molecular point group: c1

    Geometry (in Angstrom), charge = 0, multiplicity = 1:

       Center              X                  Y                   Z               Mass
    ------------   -----------------  -----------------  -----------------  -----------------
         O           -1.247255061310    -0.652432484072     1.030323442093    15.994914619570
         O           -1.244129061310     2.483086515928    -0.688354557907    15.994914619570
         O           -3.215684061310     1.521334515928     0.742695442093    15.994914619570
         O           -2.356183061310    -3.066601484072     0.092748442093    15.994914619570
         O            1.361375938690     2.247269515928    -0.078733557907    15.994914619570
         N            0.847731938690     0.037895915928     0.278153842093    14.003074004430
         N            3.058071938690     0.720738515928    -0.295918557907    14.003074004430
         N            4.717308938690    -0.836419484072    -0.574489557907    14.003074004430
         C           -1.309838261310     1.082719815928    -0.578349457907    12.000000000000
         C           -2.714325061310     0.655442515928    -0.259584557907    12.000000000000
         C           -0.524562061310     0.481755515928     0.597902442093    12.000000000000
         C           -2.528410061310    -0.716650484072     0.358864442093    12.000000000000
         C           -2.527498061310    -1.850157484072    -0.641481557907    12.000000000000
         C            1.220620938690    -1.261172484072     0.309082442093    12.000000000000
         C            1.756439938690     1.067670515928    -0.061594557907    12.000000000000
         C            2.511946938690    -1.608904484072     0.044803442093    12.000000000000
         C            3.412828938690    -0.550417484072    -0.261116557907    12.000000000000
         H           -0.936760061310     0.591639515928    -1.517082557907     1.007825032230
         H           -3.361736061310     0.642900515928    -1.148656557907     1.007825032230
         H           -0.439444061310     1.222115515928     1.401806442093     1.007825032230
         H           -3.281111061310    -0.908498484072     1.128591442093     1.007825032230
         H           -1.712462061310    -1.700069484072    -1.371655557907     1.007825032230
         H           -3.484715061310    -1.833768484072    -1.186326557907     1.007825032230
         H           -0.296679061310     2.713414515928    -0.527191557907     1.007825032230
         H           -2.846710061310     2.399978515928     0.506471442093     1.007825032230
         H            0.435156938690    -1.963201484072     0.566876442093     1.007825032230
         H           -2.433028061310    -3.798196484072    -0.545424557907     1.007825032230
         H            2.829957938690    -2.645162484072     0.071730442093     1.007825032230
         H            5.126025938690    -1.670625484072    -0.164605557907     1.007825032230
         H            5.320659938690    -0.019818484072    -0.570485557907     1.007825032230

  Basis Set: AUG-CC-PVTZ
    Blend: AUG-CC-PVTZ
  Basis Set: (AUG-CC-PVTZ AUX)
    Blend: AUG-CC-PVTZ-JKFIT
	 Reference Energy          =    -886.3722996707654147 [Eh]
	 Singles Energy            =      -0.0000000000000000 [Eh]
	 Same-Spin Energy          =      -0.9013489475386335 [Eh]
	 Opposite-Spin Energy      =      -2.7148879046636658 [Eh]
	 Correlation Energy        =      -3.6162368522022992 [Eh]
	 Total Energy              =    -889.9885365229677063 [Eh]

	 ================> DF-SCS-MP2 Energies <==================
	-----------------------------------------------------------
	 SCS Same-Spin Scale       =       0.3333333333333333 [-]
	 SCS Opposite-Spin Scale   =       1.2000000000000000 [-]
	 SCS Same-Spin Energy      =      -0.3004496491795445 [Eh]
	 SCS Opposite-Spin Energy  =      -3.2578654855963989 [Eh]
	 SCS Correlation Energy    =      -3.5583151347759432 [Eh]
	 SCS Total Energy          =    -889.9306148055413814 [Eh]
	-----------------------------------------------------------

  Dipole Moment: [D]
     X:     1.6731      Y:    -5.9034      Z:    -1.8158     Total:     6.3990

*** Psi4 exiting successfully. Buy a developer a beer!
