                               Psi4 1.4a3.dev225

  ==> Input File <==

--------------------------------------------------------------------------
#psi4
#
memory 32 gb

molecule  {
0 1
  O       -1.3191770     0.6538360    -1.0992360
  O       -1.5735610    -2.4640850     0.5135810
  O       -3.5606630    -1.0699430    -0.4600060
  O       -1.4399290     3.1254620     0.1265180
  O        1.1065530    -2.3833650     0.0076020
  N        0.7686360    -0.1579440    -0.3706350
  N        2.9363770    -0.9938720     0.1460080
  N        4.7058880     0.4431110     0.3611260
  C       -1.3768610    -1.0680440     0.5552780
  C       -2.7379840    -0.3746360     0.4578480
  C       -0.6377490    -0.5042940    -0.6790150
  C       -2.3707440     0.9655450    -0.1585060
  C       -1.8992030     1.9895750     0.8571380
  C        1.2309690     1.1190800    -0.4442230
  C        1.5985197    -1.2316265    -0.0629978
  C        2.5474650     1.3753690    -0.1998620
  C        3.3802090     0.2523040     0.0808410
  H       -0.8441360    -0.7686950     1.4698480
  H       -3.2257400    -0.2778790     1.4400230
  H       -0.6227070    -1.2428120    -1.4883720
  H       -3.1941750     1.3785730    -0.7472070
  H       -1.0952130     1.5703990     1.4802000
  H       -2.7410530     2.2466610     1.5166010
  H       -0.6710550    -2.8260740     0.3542250
  H       -3.3063470    -2.0105220    -0.3629290
  H        0.4929290     1.8778260    -0.6840360
  H       -1.2098800     3.8154810     0.7720340
  H        2.9334840     2.3875570    -0.2389120
  H        5.1589650     1.2712730    -0.0008400
  H        5.2635310    -0.4031270     0.3606700
units angstrom
no_reorient  #important for SAPT in psi4, default
symmetry c1  #important for SAPT in psi4, default
}

set PROPERTIES_ORIGIN ["COM"]
properties('MP2/aug-cc-pvtz', properties = ['dipole'])
--------------------------------------------------------------------------

    Molecular point group: c1
  Charge       = 0
  Multiplicity = 1
  Basis Set: AUG-CC-PVTZ
    Blend: AUG-CC-PVTZ
  Basis Set: (AUG-CC-PVTZ AUX)
    Blend: AUG-CC-PVTZ-JKFIT

    Orbital Energies [Eh]
    ---------------------

    Doubly Occupied:

       1A    -20.587170     2A    -20.582199     3A    -20.559053
       4A    -20.556662     5A    -20.517291     6A    -15.635303
       7A    -15.599360     8A    -15.552651     9A    -11.385131
      10A    -11.357141    11A    -11.340682    12A    -11.325938
      13A    -11.304025    14A    -11.298428    15A    -11.297433
      16A    -11.293857    17A    -11.248319    18A     -1.430078
      19A     -1.391814    20A     -1.382999    21A     -1.375661
      22A     -1.346467    23A     -1.302041    24A     -1.273460
      25A     -1.179457    26A     -1.080549    27A     -1.068578
      28A     -1.018608    29A     -0.937185    30A     -0.910998
      31A     -0.875807    32A     -0.830328    33A     -0.812943
      34A     -0.766995    35A     -0.751685    36A     -0.735691
      37A     -0.721776    38A     -0.708523    39A     -0.703638
      40A     -0.684940    41A     -0.675721    42A     -0.654160
      43A     -0.647818    44A     -0.634232    45A     -0.620673
      46A     -0.615201    47A     -0.608128    48A     -0.591031
      49A     -0.577420    50A     -0.565363    51A     -0.556030
      52A     -0.548539    53A     -0.536605    54A     -0.530783
      55A     -0.493626    56A     -0.481143    57A     -0.474091
      58A     -0.463582    59A     -0.455738    60A     -0.453306
      61A     -0.442413    62A     -0.431624    63A     -0.391583
      64A     -0.349387

  @DF-RHF Final Energy:  -886.37314776109008

   => Energetics <=

    Nuclear Repulsion Energy =           1334.8355164245363085
    One-Electron Energy =               -3867.3591977074433998
    Two-Electron Energy =                1646.1505335218171240
    Total Energy =                       -886.3731477610899674
  Basis Set: (AUG-CC-PVTZ AUX)
    Blend: AUG-CC-PVTZ-RI
    Molecular point group: c1

    Geometry (in Angstrom), charge = 0, multiplicity = 1:

       Center              X                  Y                   Z               Mass
    ------------   -----------------  -----------------  -----------------  -----------------
         O           -1.331331810181     0.681685636097    -1.083237505422    15.994914619570
         O           -1.585715810181    -2.436235363903     0.529579494578    15.994914619570
         O           -3.572817810181    -1.042093363903    -0.444007505422    15.994914619570
         O           -1.452083810181     3.153311636097     0.142516494578    15.994914619570
         O            1.094398189819    -2.355515363903     0.023600494578    15.994914619570
         N            0.756481189819    -0.130094363903    -0.354636505422    14.003074004430
         N            2.924222189819    -0.966022363903     0.162006494578    14.003074004430
         N            4.693733189819     0.470960636097     0.377124494578    14.003074004430
         C           -1.389015810181    -1.040194363903     0.571276494578    12.000000000000
         C           -2.750138810181    -0.346786363903     0.473846494578    12.000000000000
         C           -0.649903810181    -0.476444363903    -0.663016505422    12.000000000000
         C           -2.382898810181     0.993394636097    -0.142507505422    12.000000000000
         C           -1.911357810181     2.017424636097     0.873136494578    12.000000000000
         C            1.218814189819     1.146929636097    -0.428224505422    12.000000000000
         C            1.586364889819    -1.203776863903    -0.046999305422    12.000000000000
         C            2.535310189819     1.403218636097    -0.183863505422    12.000000000000
         C            3.368054189819     0.280153636097     0.096839494578    12.000000000000
         H           -0.856290810181    -0.740845363903     1.485846494578     1.007825032230
         H           -3.237894810181    -0.250029363903     1.456021494578     1.007825032230
         H           -0.634861810181    -1.214962363903    -1.472373505422     1.007825032230
         H           -3.206329810181     1.406422636097    -0.731208505422     1.007825032230
         H           -1.107367810181     1.598248636097     1.496198494578     1.007825032230
         H           -2.753207810181     2.274510636097     1.532599494578     1.007825032230
         H           -0.683209810181    -2.798224363903     0.370223494578     1.007825032230
         H           -3.318501810181    -1.982672363903    -0.346930505422     1.007825032230
         H            0.480774189819     1.905675636097    -0.668037505422     1.007825032230
         H           -1.222034810181     3.843330636097     0.788032494578     1.007825032230
         H            2.921329189819     2.415406636097    -0.222913505422     1.007825032230
         H            5.146810189819     1.299122636097     0.015158494578     1.007825032230
         H            5.251376189819    -0.375277363903     0.376668494578     1.007825032230

  Basis Set: AUG-CC-PVTZ
    Blend: AUG-CC-PVTZ
  Basis Set: (AUG-CC-PVTZ AUX)
    Blend: AUG-CC-PVTZ-JKFIT
	 Reference Energy          =    -886.3731477610900811 [Eh]
	 Singles Energy            =      -0.0000000000000000 [Eh]
	 Same-Spin Energy          =      -0.9019683446989906 [Eh]
	 Opposite-Spin Energy      =      -2.7163179862774300 [Eh]
	 Correlation Energy        =      -3.6182863309764208 [Eh]
	 Total Energy              =    -889.9914340920664699 [Eh]

	 ================> DF-SCS-MP2 Energies <==================
	-----------------------------------------------------------
	 SCS Same-Spin Scale       =       0.3333333333333333 [-]
	 SCS Opposite-Spin Scale   =       1.2000000000000000 [-]
	 SCS Same-Spin Energy      =      -0.3006561148996635 [Eh]
	 SCS Opposite-Spin Energy  =      -3.2595815835329160 [Eh]
	 SCS Correlation Energy    =      -3.5602376984325796 [Eh]
	 SCS Total Energy          =    -889.9333854595226967 [Eh]
	-----------------------------------------------------------

  Dipole Moment: [D]
     X:     2.7032      Y:     5.9111      Z:     1.9293     Total:     6.7801

*** Psi4 exiting successfully. Buy a developer a beer!
