                               Psi4 1.3.2 release

  ==> Input File <==

--------------------------------------------------------------------------
#psi4
#
memory 32 gb

molecule  {
0 1
  O       -1.2481010    -0.6526680     1.0325150
  O       -1.2449750     2.4828510    -0.6861630
  O       -3.2165300     1.5210990     0.7448870
  O       -2.3570290    -3.0668370     0.0949400
  O        1.3012051     2.2256030    -0.0603017
  N        0.7913325     0.0966833     0.2635396
  N        3.0572260     0.7205030    -0.2937270
  N        4.7164630    -0.8366550    -0.5722980
  C       -1.2894840     1.0784300    -0.5920770
  C       -2.7151710     0.6552070    -0.2573930
  C       -0.5254080     0.4815200     0.6000940
  C       -2.5292560    -0.7168860     0.3610560
  C       -2.5283440    -1.8503930    -0.6392900
  C        1.2197750    -1.2614080     0.3112740
  C        1.7555940     1.0674350    -0.0594030
  C        2.5111010    -1.6091400     0.0469950
  C        3.4119830    -0.5506530    -0.2589250
  H       -0.9376060     0.5914040    -1.5148910
  H       -3.3625820     0.6426650    -1.1464650
  H       -0.4402900     1.2218800     1.4039980
  H       -3.2819570    -0.9087340     1.1307830
  H       -1.7133080    -1.7003050    -1.3694640
  H       -3.4855610    -1.8340040    -1.1841350
  H       -0.2975250     2.7131790    -0.5250000
  H       -2.8475560     2.3997430     0.5086630
  H        0.4343110    -1.9634370     0.5690680
  H       -2.4338740    -3.7984320    -0.5432330
  H        2.8291120    -2.6453980     0.0739220
  H        5.1251800    -1.6708610    -0.1624140
  H        5.3198140    -0.0200540    -0.5682940
units angstrom
no_reorient  #important for SAPT in psi4, default
symmetry c1  #important for SAPT in psi4, default
}

set PROPERTIES_ORIGIN ["COM"]
properties('MP2/aug-cc-pvtz', properties = ['dipole'])
--------------------------------------------------------------------------

    Molecular point group: c1
  Charge       = 0
  Multiplicity = 1
  Basis Set: AUG-CC-PVTZ
    Blend: AUG-CC-PVTZ
  Basis Set: (AUG-CC-PVTZ AUX)
    Blend: AUG-CC-PVTZ-JKFIT

    Orbital Energies [Eh]
    ---------------------

    Doubly Occupied:

       1A    -20.580646     2A    -20.577795     3A    -20.554163
       4A    -20.551512     5A    -20.518789     6A    -15.632547
       7A    -15.605562     8A    -15.559951     9A    -11.389550
      10A    -11.364927    11A    -11.334598    12A    -11.331775
      13A    -11.299072    14A    -11.293947    15A    -11.290759
      16A    -11.288856    17A    -11.255969    18A     -1.428607
      19A     -1.396549    20A     -1.376574    21A     -1.370426
      22A     -1.341963    23A     -1.305360    24A     -1.268389
      25A     -1.188998    26A     -1.085794    27A     -1.064467
      28A     -1.018055    29A     -0.937870    30A     -0.904546
      31A     -0.876632    32A     -0.832023    33A     -0.810033
      34A     -0.769828    35A     -0.748553    36A     -0.733385
      37A     -0.723937    38A     -0.702419    39A     -0.695381
      40A     -0.687981    41A     -0.671664    42A     -0.654977
      43A     -0.652288    44A     -0.637764    45A     -0.620491
      46A     -0.614165    47A     -0.604755    48A     -0.589044
      49A     -0.573281    50A     -0.568347    51A     -0.551686
      52A     -0.545330    53A     -0.535396    54A     -0.529818
      55A     -0.490405    56A     -0.474807    57A     -0.470255
      58A     -0.462069    59A     -0.458092    60A     -0.448645
      61A     -0.439797    62A     -0.434165    63A     -0.397460
      64A     -0.353700

  @DF-RHF Final Energy:  -886.36396939730503

   => Energetics <=

    Nuclear Repulsion Energy =           1325.3767161624766686
    One-Electron Energy =               -3848.5282000370689275
    Two-Electron Energy =                1636.7875144772874592
    Total Energy =                       -886.3639693973050271
  Basis Set: (AUG-CC-PVTZ AUX)
    Blend: AUG-CC-PVTZ-RI
    Molecular point group: c1

    Geometry (in Angstrom), charge = 0, multiplicity = 1:

       Center              X                  Y                   Z               Mass
    ------------   -----------------  -----------------  -----------------  -----------------
         O           -1.241197875843    -0.654222238642     1.031008796979    15.994914619570
         O           -1.238071875843     2.481296761358    -0.687669203021    15.994914619570
         O           -3.209626875843     1.519544761358     0.743380796979    15.994914619570
         O           -2.350125875843    -3.068391238642     0.093433796979    15.994914619570
         O            1.308108224157     2.224048761358    -0.061807903021    15.994914619570
         N            0.798235624157     0.095129061358     0.262033396979    14.003074004430
         N            3.064129124157     0.718948761358    -0.295233203021    14.003074004430
         N            4.723366124157    -0.838209238642    -0.573804203021    14.003074004430
         C           -1.282580875843     1.076875761358    -0.593583203021    12.000000000000
         C           -2.708267875843     0.653652761358    -0.258899203021    12.000000000000
         C           -0.518504875843     0.479965761358     0.598587796979    12.000000000000
         C           -2.522352875843    -0.718440238642     0.359549796979    12.000000000000
         C           -2.521440875843    -1.851947238642    -0.640796203021    12.000000000000
         C            1.226678124157    -1.262962238642     0.309767796979    12.000000000000
         C            1.762497124157     1.065880761358    -0.060909203021    12.000000000000
         C            2.518004124157    -1.610694238642     0.045488796979    12.000000000000
         C            3.418886124157    -0.552207238642    -0.260431203021    12.000000000000
         H           -0.930702875843     0.589849761358    -1.516397203021     1.007825032230
         H           -3.355678875843     0.641110761358    -1.147971203021     1.007825032230
         H           -0.433386875843     1.220325761358     1.402491796979     1.007825032230
         H           -3.275053875843    -0.910288238642     1.129276796979     1.007825032230
         H           -1.706404875843    -1.701859238642    -1.370970203021     1.007825032230
         H           -3.478657875843    -1.835558238642    -1.185641203021     1.007825032230
         H           -0.290621875843     2.711624761358    -0.526506203021     1.007825032230
         H           -2.840652875843     2.398188761358     0.507156796979     1.007825032230
         H            0.441214124157    -1.964991238642     0.567561796979     1.007825032230
         H           -2.426970875843    -3.799986238642    -0.544739203021     1.007825032230
         H            2.836015124157    -2.646952238642     0.072415796979     1.007825032230
         H            5.132083124157    -1.672415238642    -0.163920203021     1.007825032230
         H            5.326717124157    -0.021608238642    -0.569800203021     1.007825032230

  Basis Set: AUG-CC-PVTZ
    Blend: AUG-CC-PVTZ
  Basis Set: (AUG-CC-PVTZ AUX)
    Blend: AUG-CC-PVTZ-JKFIT
	 Reference Energy          =    -886.3639693973050271 [Eh]
	 Singles Energy            =      -0.0000000000000000 [Eh]
	 Same-Spin Energy          =      -0.9015016178650657 [Eh]
	 Opposite-Spin Energy      =      -2.7157948534001077 [Eh]
	 Correlation Energy        =      -3.6172964712651732 [Eh]
	 Total Energy              =    -889.9812658685701763 [Eh]

	 ================> DF-SCS-MP2 Energies <==================
	-----------------------------------------------------------
	 SCS Same-Spin Scale       =       0.3333333333333333 [-]
	 SCS Opposite-Spin Scale   =       1.2000000000000000 [-]
	 SCS Same-Spin Energy      =      -0.3005005392883552 [Eh]
	 SCS Opposite-Spin Energy  =      -3.2589538240801290 [Eh]
	 SCS Correlation Energy    =      -3.5594543633684843 [Eh]
	 SCS Total Energy          =    -889.9234237606734723 [Eh]
	-----------------------------------------------------------

  Dipole Moment: [D]
     X:     2.3007      Y:    -6.0954      Z:    -1.8904     Total:     6.7838

*** Psi4 exiting successfully. Buy a developer a beer!
