                               Psi4 1.3.2 release

  ==> Input File <==

--------------------------------------------------------------------------
#psi4
#
memory 32 gb

molecule  {
0 1
  O       -1.2481010    -0.6526680     1.0325150
  O       -1.2449750     2.4828510    -0.6861630
  O       -3.2165300     1.5210990     0.7448870
  O       -2.3570290    -3.0668370     0.0949400
  O        1.3605300     2.2470340    -0.0765420
  N        0.8434040     0.0452230     0.2559430
  N        3.0572260     0.7205030    -0.2937270
  N        4.7164630    -0.8366550    -0.5722980
  C       -1.2894840     1.0784300    -0.5920770
  C       -2.7151710     0.6552070    -0.2573930
  C       -0.5254080     0.4815200     0.6000940
  C       -2.5047366    -0.8978447     0.4426203
  C       -2.5283440    -1.8503930    -0.6392900
  C        1.2197750    -1.2614080     0.3112740
  C        1.7555940     1.0674350    -0.0594030
  C        2.5111010    -1.6091400     0.0469950
  C        3.4119830    -0.5506530    -0.2589250
  H       -0.9376060     0.5914040    -1.5148910
  H       -3.3625820     0.6426650    -1.1464650
  H       -0.4402900     1.2218800     1.4039980
  H       -3.2819570    -0.9087340     1.1307830
  H       -1.7133080    -1.7003050    -1.3694640
  H       -3.4855610    -1.8340040    -1.1841350
  H       -0.2975250     2.7131790    -0.5250000
  H       -2.8475560     2.3997430     0.5086630
  H        0.4343110    -1.9634370     0.5690680
  H       -2.4338740    -3.7984320    -0.5432330
  H        2.8291120    -2.6453980     0.0739220
  H        5.1251800    -1.6708610    -0.1624140
  H        5.3198140    -0.0200540    -0.5682940
units angstrom
no_reorient  #important for SAPT in psi4, default
symmetry c1  #important for SAPT in psi4, default
}

set PROPERTIES_ORIGIN ["COM"]
properties('MP2/aug-cc-pvtz', properties = ['dipole'])
--------------------------------------------------------------------------

    Molecular point group: c1
  Charge       = 0
  Multiplicity = 1
  Basis Set: AUG-CC-PVTZ
    Blend: AUG-CC-PVTZ
  Basis Set: (AUG-CC-PVTZ AUX)
    Blend: AUG-CC-PVTZ-JKFIT

    Orbital Energies [Eh]
    ---------------------

    Doubly Occupied:

       1A    -20.581611     2A    -20.579947     3A    -20.555321
       4A    -20.554419     5A    -20.522283     6A    -15.637704
       7A    -15.600223     8A    -15.553826     9A    -11.388852
      10A    -11.358305    11A    -11.345110    12A    -11.329201
      13A    -11.299113    14A    -11.298115    15A    -11.293321
      16A    -11.292585    17A    -11.249132    18A     -1.431799
      19A     -1.397931    20A     -1.379623    21A     -1.374185
      22A     -1.342020    23A     -1.306736    24A     -1.274974
      25A     -1.182907    26A     -1.083954    27A     -1.055060
      28A     -1.024924    29A     -0.935993    30A     -0.911484
      31A     -0.873065    32A     -0.825704    33A     -0.815527
      34A     -0.768918    35A     -0.752008    36A     -0.738210
      37A     -0.721032    38A     -0.707045    39A     -0.696228
      40A     -0.689006    41A     -0.672374    42A     -0.656026
      43A     -0.652507    44A     -0.636360    45A     -0.621383
      46A     -0.619945    47A     -0.611102    48A     -0.593832
      49A     -0.577827    50A     -0.574146    51A     -0.554541
      52A     -0.539342    53A     -0.535829    54A     -0.533888
      55A     -0.497099    56A     -0.478398    57A     -0.471877
      58A     -0.460475    59A     -0.454339    60A     -0.441955
      61A     -0.434415    62A     -0.416297    63A     -0.395305
      64A     -0.350372

  @DF-RHF Final Energy:  -886.33977512521642

   => Energetics <=

    Nuclear Repulsion Energy =           1322.2660754843104769
    One-Electron Energy =               -3842.1976234374046726
    Two-Electron Energy =                1633.5917728278777759
    Total Energy =                       -886.3397751252164198
  Basis Set: (AUG-CC-PVTZ AUX)
    Blend: AUG-CC-PVTZ-RI
    Molecular point group: c1

    Geometry (in Angstrom), charge = 0, multiplicity = 1:

       Center              X                  Y                   Z               Mass
    ------------   -----------------  -----------------  -----------------  -----------------
         O           -1.249311442517    -0.643734901641     1.028488557868    15.994914619570
         O           -1.246185442517     2.491784098359    -0.690189442132    15.994914619570
         O           -3.217740442517     1.530032098359     0.740860557868    15.994914619570
         O           -2.358239442517    -3.057903901641     0.090913557868    15.994914619570
         O            1.359319557483     2.255967098359    -0.080568442132    15.994914619570
         N            0.842193557483     0.054156098359     0.251916557868    14.003074004430
         N            3.056015557483     0.729436098359    -0.297753442132    14.003074004430
         N            4.715252557483    -0.827721901641    -0.576324442132    14.003074004430
         C           -1.290694442517     1.087363098359    -0.596103442132    12.000000000000
         C           -2.716381442517     0.664140098359    -0.261419442132    12.000000000000
         C           -0.526618442517     0.490453098359     0.596067557868    12.000000000000
         C           -2.505947042517    -0.888911601641     0.438593857868    12.000000000000
         C           -2.529554442517    -1.841459901641    -0.643316442132    12.000000000000
         C            1.218564557483    -1.252474901641     0.307247557868    12.000000000000
         C            1.754383557483     1.076368098359    -0.063429442132    12.000000000000
         C            2.509890557483    -1.600206901641     0.042968557868    12.000000000000
         C            3.410772557483    -0.541719901641    -0.262951442132    12.000000000000
         H           -0.938816442517     0.600337098359    -1.518917442132     1.007825032230
         H           -3.363792442517     0.651598098359    -1.150491442132     1.007825032230
         H           -0.441500442517     1.230813098359     1.399971557868     1.007825032230
         H           -3.283167442517    -0.899800901641     1.126756557868     1.007825032230
         H           -1.714518442517    -1.691371901641    -1.373490442132     1.007825032230
         H           -3.486771442517    -1.825070901641    -1.188161442132     1.007825032230
         H           -0.298735442517     2.722112098359    -0.529026442132     1.007825032230
         H           -2.848766442517     2.408676098359     0.504636557868     1.007825032230
         H            0.433100557483    -1.954503901641     0.565041557868     1.007825032230
         H           -2.435084442517    -3.789498901641    -0.547259442132     1.007825032230
         H            2.827901557483    -2.636464901641     0.069895557868     1.007825032230
         H            5.123969557483    -1.661927901641    -0.166440442132     1.007825032230
         H            5.318603557483    -0.011120901641    -0.572320442132     1.007825032230

  Basis Set: AUG-CC-PVTZ
    Blend: AUG-CC-PVTZ
  Basis Set: (AUG-CC-PVTZ AUX)
    Blend: AUG-CC-PVTZ-JKFIT
	 Reference Energy          =    -886.3397751252164198 [Eh]
	 Singles Energy            =      -0.0000000000000000 [Eh]
	 Same-Spin Energy          =      -0.9020991489870185 [Eh]
	 Opposite-Spin Energy      =      -2.7165736181589275 [Eh]
	 Correlation Energy        =      -3.6186727671459460 [Eh]
	 Total Energy              =    -889.9584478923624147 [Eh]

	 ================> DF-SCS-MP2 Energies <==================
	-----------------------------------------------------------
	 SCS Same-Spin Scale       =       0.3333333333333333 [-]
	 SCS Opposite-Spin Scale   =       1.2000000000000000 [-]
	 SCS Same-Spin Energy      =      -0.3006997163290062 [Eh]
	 SCS Opposite-Spin Energy  =      -3.2598883417907127 [Eh]
	 SCS Correlation Energy    =      -3.5605880581197189 [Eh]
	 SCS Total Energy          =    -889.9003631833361396 [Eh]
	-----------------------------------------------------------

  Dipole Moment: [D]
     X:     1.7809      Y:    -6.0963      Z:    -1.7557     Total:     6.5893

*** Psi4 exiting successfully. Buy a developer a beer!
