                               Psi4 1.4a3.dev225

  ==> Input File <==

--------------------------------------------------------------------------
#psi4
#
memory 32 gb

molecule  {
0 1
  O       -1.3191770     0.6538360    -1.0992360
  O       -1.5735610    -2.4640850     0.5135810
  O       -3.5606630    -1.0699430    -0.4600060
  O       -1.4399290     3.1254620     0.1265180
  O        1.1065530    -2.3833650     0.0076020
  N        0.7686360    -0.1579440    -0.3706350
  N        2.9363770    -0.9938720     0.1460080
  N        4.7058880     0.4431110     0.3611260
  C       -1.3768610    -1.0680440     0.5552780
  C       -2.7379840    -0.3746360     0.4578480
  C       -0.6377490    -0.5042940    -0.6790150
  C       -2.3707440     0.9655450    -0.1585060
  C       -1.8992030     1.9895750     0.8571380
  C        1.2309690     1.1190800    -0.4442230
  C        1.6104480    -1.2470590    -0.0585760
  C        2.5474650     1.3753690    -0.1998620
  C        3.4094072     0.2129264     0.0906832
  H       -0.8441360    -0.7686950     1.4698480
  H       -3.2257400    -0.2778790     1.4400230
  H       -0.6227070    -1.2428120    -1.4883720
  H       -3.1941750     1.3785730    -0.7472070
  H       -1.0952130     1.5703990     1.4802000
  H       -2.7410530     2.2466610     1.5166010
  H       -0.6710550    -2.8260740     0.3542250
  H       -3.3063470    -2.0105220    -0.3629290
  H        0.4929290     1.8778260    -0.6840360
  H       -1.2098800     3.8154810     0.7720340
  H        2.9334840     2.3875570    -0.2389120
  H        5.1589650     1.2712730    -0.0008400
  H        5.2635310    -0.4031270     0.3606700
units angstrom
no_reorient  #important for SAPT in psi4, default
symmetry c1  #important for SAPT in psi4, default
}

set PROPERTIES_ORIGIN ["COM"]
properties('MP2/aug-cc-pvtz', properties = ['dipole'])
--------------------------------------------------------------------------

    Molecular point group: c1
  Charge       = 0
  Multiplicity = 1
  Basis Set: AUG-CC-PVTZ
    Blend: AUG-CC-PVTZ
  Basis Set: (AUG-CC-PVTZ AUX)
    Blend: AUG-CC-PVTZ-JKFIT

    Orbital Energies [Eh]
    ---------------------

    Doubly Occupied:

       1A    -20.585197     2A    -20.579799     3A    -20.558835
       4A    -20.555579     5A    -20.522111     6A    -15.628753
       7A    -15.603378     8A    -15.550857     9A    -11.388862
      10A    -11.358603    11A    -11.337864    12A    -11.318536
      13A    -11.302171    14A    -11.296657    15A    -11.295785
      16A    -11.292452    17A    -11.246929    18A     -1.427823
      19A     -1.394820    20A     -1.381953    21A     -1.374424
      22A     -1.345891    23A     -1.309086    24A     -1.274292
      25A     -1.190676    26A     -1.071403    27A     -1.066804
      28A     -1.013976    29A     -0.934912    30A     -0.900473
      31A     -0.881389    32A     -0.829493    33A     -0.810941
      34A     -0.767565    35A     -0.748144    36A     -0.734385
      37A     -0.727855    38A     -0.707514    39A     -0.703285
      40A     -0.687749    41A     -0.674294    42A     -0.653001
      43A     -0.646570    44A     -0.632874    45A     -0.618752
      46A     -0.613049    47A     -0.604559    48A     -0.594282
      49A     -0.576092    50A     -0.565738    51A     -0.555926
      52A     -0.547425    53A     -0.537011    54A     -0.531849
      55A     -0.494589    56A     -0.479456    57A     -0.472661
      58A     -0.462855    59A     -0.457117    60A     -0.451671
      61A     -0.441010    62A     -0.427860    63A     -0.396319
      64A     -0.344313

  @DF-RHF Final Energy:  -886.37273541362981

   => Energetics <=

    Nuclear Repulsion Energy =           1334.3675383626680286
    One-Electron Energy =               -3866.5075643252225746
    Two-Electron Energy =                1645.7672905489243931
    Total Energy =                       -886.3727354136299255
  Basis Set: (AUG-CC-PVTZ AUX)
    Blend: AUG-CC-PVTZ-RI
    Molecular point group: c1

    Geometry (in Angstrom), charge = 0, multiplicity = 1:

       Center              X                  Y                   Z               Mass
    ------------   -----------------  -----------------  -----------------  -----------------
         O           -1.333362033943     0.684391355461    -1.083941652668    15.994914619570
         O           -1.587746033943    -2.433529644539     0.528875347332    15.994914619570
         O           -3.574848033943    -1.039387644539    -0.444711652668    15.994914619570
         O           -1.454114033943     3.156017355461     0.141812347332    15.994914619570
         O            1.092367966057    -2.352809644539     0.022896347332    15.994914619570
         N            0.754450966057    -0.127388644539    -0.355340652668    14.003074004430
         N            2.922191966057    -0.963316644539     0.161302347332    14.003074004430
         N            4.691702966057     0.473666355461     0.376420347332    14.003074004430
         C           -1.391046033943    -1.037488644539     0.570572347332    12.000000000000
         C           -2.752169033943    -0.344080644539     0.473142347332    12.000000000000
         C           -0.651934033943    -0.473738644539    -0.663720652668    12.000000000000
         C           -2.384929033943     0.996100355461    -0.143211652668    12.000000000000
         C           -1.913388033943     2.020130355461     0.872432347332    12.000000000000
         C            1.216783966057     1.149635355461    -0.428928652668    12.000000000000
         C            1.596262966057    -1.216503644539    -0.043281652668    12.000000000000
         C            2.533279966057     1.405924355461    -0.184567652668    12.000000000000
         C            3.395222166057     0.243481755461     0.105977547332    12.000000000000
         H           -0.858321033943    -0.738139644539     1.485142347332     1.007825032230
         H           -3.239925033943    -0.247323644539     1.455317347332     1.007825032230
         H           -0.636892033943    -1.212256644539    -1.473077652668     1.007825032230
         H           -3.208360033943     1.409128355461    -0.731912652668     1.007825032230
         H           -1.109398033943     1.600954355461     1.495494347332     1.007825032230
         H           -2.755238033943     2.277216355461     1.531895347332     1.007825032230
         H           -0.685240033943    -2.795518644539     0.369519347332     1.007825032230
         H           -3.320532033943    -1.979966644539    -0.347634652668     1.007825032230
         H            0.478743966057     1.908381355461    -0.668741652668     1.007825032230
         H           -1.224065033943     3.846036355461     0.787328347332     1.007825032230
         H            2.919298966057     2.418112355461    -0.223617652668     1.007825032230
         H            5.144779966057     1.301828355461     0.014454347332     1.007825032230
         H            5.249345966057    -0.372571644539     0.375964347332     1.007825032230

  Basis Set: AUG-CC-PVTZ
    Blend: AUG-CC-PVTZ
  Basis Set: (AUG-CC-PVTZ AUX)
    Blend: AUG-CC-PVTZ-JKFIT
	 Reference Energy          =    -886.3727354136298118 [Eh]
	 Singles Energy            =      -0.0000000000000000 [Eh]
	 Same-Spin Energy          =      -0.9011403289811599 [Eh]
	 Opposite-Spin Energy      =      -2.7151800102389894 [Eh]
	 Correlation Energy        =      -3.6163203392201493 [Eh]
	 Total Energy              =    -889.9890557528499357 [Eh]

	 ================> DF-SCS-MP2 Energies <==================
	-----------------------------------------------------------
	 SCS Same-Spin Scale       =       0.3333333333333333 [-]
	 SCS Opposite-Spin Scale   =       1.2000000000000000 [-]
	 SCS Same-Spin Energy      =      -0.3003801096603866 [Eh]
	 SCS Opposite-Spin Energy  =      -3.2582160122867871 [Eh]
	 SCS Correlation Energy    =      -3.5585961219471738 [Eh]
	 SCS Total Energy          =    -889.9313315355769873 [Eh]
	-----------------------------------------------------------

  Dipole Moment: [D]
     X:     3.0446      Y:     5.6655      Z:     2.0104     Total:     6.7387

*** Psi4 exiting successfully. Buy a developer a beer!
