                               Psi4 1.4a3.dev225

  ==> Input File <==

--------------------------------------------------------------------------
#psi4
#
memory 32 gb

molecule  {
0 1
  O       -1.3191770     0.6538360    -1.0992360
  O       -1.5735610    -2.4640850     0.5135810
  O       -3.5606630    -1.0699430    -0.4600060
  O       -1.4399290     3.1254620     0.1265180
  O        1.1065530    -2.3833650     0.0076020
  N        0.7686360    -0.1579440    -0.3706350
  N        2.9363770    -0.9938720     0.1460080
  N        4.7058880     0.4431110     0.3611260
  C       -1.3768610    -1.0680440     0.5552780
  C       -2.7379840    -0.3746360     0.4578480
  C       -0.6377490    -0.5042940    -0.6790150
  C       -2.3828231     0.9214643    -0.1382331
  C       -1.8992030     1.9895750     0.8571380
  C        1.2309690     1.1190800    -0.4442230
  C        1.6104480    -1.2470590    -0.0585760
  C        2.5474650     1.3753690    -0.1998620
  C        3.3802090     0.2523040     0.0808410
  H       -0.8441360    -0.7686950     1.4698480
  H       -3.2257400    -0.2778790     1.4400230
  H       -0.6227070    -1.2428120    -1.4883720
  H       -3.1941750     1.3785730    -0.7472070
  H       -1.0952130     1.5703990     1.4802000
  H       -2.7410530     2.2466610     1.5166010
  H       -0.6710550    -2.8260740     0.3542250
  H       -3.3063470    -2.0105220    -0.3629290
  H        0.4929290     1.8778260    -0.6840360
  H       -1.2098800     3.8154810     0.7720340
  H        2.9334840     2.3875570    -0.2389120
  H        5.1589650     1.2712730    -0.0008400
  H        5.2635310    -0.4031270     0.3606700
units angstrom
no_reorient  #important for SAPT in psi4, default
symmetry c1  #important for SAPT in psi4, default
}

set PROPERTIES_ORIGIN ["COM"]
properties('MP2/aug-cc-pvtz', properties = ['dipole'])
--------------------------------------------------------------------------

    Molecular point group: c1
  Charge       = 0
  Multiplicity = 1
  Basis Set: AUG-CC-PVTZ
    Blend: AUG-CC-PVTZ
  Basis Set: (AUG-CC-PVTZ AUX)
    Blend: AUG-CC-PVTZ-JKFIT

    Orbital Energies [Eh]
    ---------------------

    Doubly Occupied:

       1A    -20.587405     2A    -20.581098     3A    -20.559892
       4A    -20.557260     5A    -20.519625     6A    -15.632757
       7A    -15.599549     8A    -15.551610     9A    -11.385802
      10A    -11.357921    11A    -11.338806    12A    -11.324894
      13A    -11.304840    14A    -11.299069    15A    -11.298033
      16A    -11.292396    17A    -11.246366    18A     -1.428222
      19A     -1.393691    20A     -1.383274    21A     -1.375326
      22A     -1.347729    23A     -1.303453    24A     -1.270946
      25A     -1.180994    26A     -1.078839    27A     -1.074698
      28A     -1.015331    29A     -0.936621    30A     -0.906254
      31A     -0.878373    32A     -0.832619    33A     -0.810289
      34A     -0.766051    35A     -0.750517    36A     -0.734307
      37A     -0.722367    38A     -0.707545    39A     -0.704218
      40A     -0.684449    41A     -0.676070    42A     -0.652594
      43A     -0.648628    44A     -0.634461    45A     -0.619467
      46A     -0.614077    47A     -0.607121    48A     -0.593226
      49A     -0.577168    50A     -0.561829    51A     -0.557130
      52A     -0.550984    53A     -0.536292    54A     -0.529123
      55A     -0.495821    56A     -0.481899    57A     -0.477845
      58A     -0.462011    59A     -0.458065    60A     -0.453495
      61A     -0.442598    62A     -0.429835    63A     -0.392153
      64A     -0.348101

  @DF-RHF Final Energy:  -886.37061473680058

   => Energetics <=

    Nuclear Repulsion Energy =           1334.9228427819527951
    One-Electron Energy =               -3867.5400596461358873
    Two-Electron Energy =                1646.2466021273826300
    Total Energy =                       -886.3706147368006896
  Basis Set: (AUG-CC-PVTZ AUX)
    Blend: AUG-CC-PVTZ-RI
    Molecular point group: c1

    Geometry (in Angstrom), charge = 0, multiplicity = 1:

       Center              X                  Y                   Z               Mass
    ------------   -----------------  -----------------  -----------------  -----------------
         O           -1.331324365887     0.684623525604    -1.084456567747    15.994914619570
         O           -1.585708365887    -2.433297474396     0.528360432253    15.994914619570
         O           -3.572810365887    -1.039155474396    -0.445226567747    15.994914619570
         O           -1.452076365887     3.156249525604     0.141297432253    15.994914619570
         O            1.094405634113    -2.352577474396     0.022381432253    15.994914619570
         N            0.756488634113    -0.127156474396    -0.355855567747    14.003074004430
         N            2.924229634113    -0.963084474396     0.160787432253    14.003074004430
         N            4.693740634113     0.473898525604     0.375905432253    14.003074004430
         C           -1.389008365887    -1.037256474396     0.570057432253    12.000000000000
         C           -2.750131365887    -0.343848474396     0.472627432253    12.000000000000
         C           -0.649896365887    -0.473506474396    -0.664235567747    12.000000000000
         C           -2.394970465887     0.952251825604    -0.123453667747    12.000000000000
         C           -1.911350365887     2.020362525604     0.871917432253    12.000000000000
         C            1.218821634113     1.149867525604    -0.429443567747    12.000000000000
         C            1.598300634113    -1.216271474396    -0.043796567747    12.000000000000
         C            2.535317634113     1.406156525604    -0.185082567747    12.000000000000
         C            3.368061634113     0.283091525604     0.095620432253    12.000000000000
         H           -0.856283365887    -0.737907474396     1.484627432253     1.007825032230
         H           -3.237887365887    -0.247091474396     1.454802432253     1.007825032230
         H           -0.634854365887    -1.212024474396    -1.473592567747     1.007825032230
         H           -3.206322365887     1.409360525604    -0.732427567747     1.007825032230
         H           -1.107360365887     1.601186525604     1.494979432253     1.007825032230
         H           -2.753200365887     2.277448525604     1.531380432253     1.007825032230
         H           -0.683202365887    -2.795286474396     0.369004432253     1.007825032230
         H           -3.318494365887    -1.979734474396    -0.348149567747     1.007825032230
         H            0.480781634113     1.908613525604    -0.669256567747     1.007825032230
         H           -1.222027365887     3.846268525604     0.786813432253     1.007825032230
         H            2.921336634113     2.418344525604    -0.224132567747     1.007825032230
         H            5.146817634113     1.302060525604     0.013939432253     1.007825032230
         H            5.251383634113    -0.372339474396     0.375449432253     1.007825032230

  Basis Set: AUG-CC-PVTZ
    Blend: AUG-CC-PVTZ
  Basis Set: (AUG-CC-PVTZ AUX)
    Blend: AUG-CC-PVTZ-JKFIT
	 Reference Energy          =    -886.3706147368005759 [Eh]
	 Singles Energy            =      -0.0000000000000000 [Eh]
	 Same-Spin Energy          =      -0.9022441312256342 [Eh]
	 Opposite-Spin Energy      =      -2.7166275541614766 [Eh]
	 Correlation Energy        =      -3.6188716853871110 [Eh]
	 Total Energy              =    -889.9894864221877242 [Eh]

	 ================> DF-SCS-MP2 Energies <==================
	-----------------------------------------------------------
	 SCS Same-Spin Scale       =       0.3333333333333333 [-]
	 SCS Opposite-Spin Scale   =       1.2000000000000000 [-]
	 SCS Same-Spin Energy      =      -0.3007480437418780 [Eh]
	 SCS Opposite-Spin Energy  =      -3.2599530649937720 [Eh]
	 SCS Correlation Energy    =      -3.5607011087356502 [Eh]
	 SCS Total Energy          =    -889.9313158455362327 [Eh]
	-----------------------------------------------------------

  Dipole Moment: [D]
     X:     2.7157      Y:     5.7592      Z:     1.9699     Total:     6.6651

*** Psi4 exiting successfully. Buy a developer a beer!
