                               Psi4 1.3.2 release

  ==> Input File <==

--------------------------------------------------------------------------
#psi4
#
memory 32 gb

molecule  {
0 1
  O       -1.2580372    -0.6455912     1.0342948
  O       -1.2449750     2.4828510    -0.6861630
  O       -3.2165300     1.5210990     0.7448870
  O       -2.3570290    -3.0668370     0.0949400
  O        1.3605300     2.2470340    -0.0765420
  N        0.8464146     0.0573531     0.2527810
  N        3.0572260     0.7205030    -0.2937270
  N        4.7164630    -0.8366550    -0.5722980
  C       -1.2894840     1.0784300    -0.5920770
  C       -2.7151710     0.6552070    -0.2573930
  C       -0.5254080     0.4815200     0.6000940
  C       -2.5292560    -0.7168860     0.3610560
  C       -2.5283440    -1.8503930    -0.6392900
  C        1.2197750    -1.2614080     0.3112740
  C        1.7555940     1.0674350    -0.0594030
  C        2.5111010    -1.6091400     0.0469950
  C        3.4119830    -0.5506530    -0.2589250
  H       -0.9376060     0.5914040    -1.5148910
  H       -3.3625820     0.6426650    -1.1464650
  H       -0.4402900     1.2218800     1.4039980
  H       -3.2819570    -0.9087340     1.1307830
  H       -1.7133080    -1.7003050    -1.3694640
  H       -3.4855610    -1.8340040    -1.1841350
  H       -0.2975250     2.7131790    -0.5250000
  H       -2.8475560     2.3997430     0.5086630
  H        0.4343110    -1.9634370     0.5690680
  H       -2.4338740    -3.7984320    -0.5432330
  H        2.8291120    -2.6453980     0.0739220
  H        5.1251800    -1.6708610    -0.1624140
  H        5.3198140    -0.0200540    -0.5682940
units angstrom
no_reorient  #important for SAPT in psi4, default
symmetry c1  #important for SAPT in psi4, default
}

set PROPERTIES_ORIGIN ["COM"]
properties('MP2/aug-cc-pvtz', properties = ['dipole'])
--------------------------------------------------------------------------

    Molecular point group: c1
  Charge       = 0
  Multiplicity = 1
  Basis Set: AUG-CC-PVTZ
    Blend: AUG-CC-PVTZ
  Basis Set: (AUG-CC-PVTZ AUX)
    Blend: AUG-CC-PVTZ-JKFIT

    Orbital Energies [Eh]
    ---------------------

    Doubly Occupied:

       1A    -20.582212     2A    -20.581677     3A    -20.557237
       4A    -20.556628     5A    -20.520291     6A    -15.637015
       7A    -15.600483     8A    -15.553669     9A    -11.386909
      10A    -11.358538    11A    -11.341430    12A    -11.330086
      13A    -11.300907    14A    -11.296131    15A    -11.296001
      16A    -11.292163    17A    -11.250486    18A     -1.430330
      19A     -1.397078    20A     -1.379708    21A     -1.372780
      22A     -1.345730    23A     -1.305666    24A     -1.273446
      25A     -1.182514    26A     -1.082870    27A     -1.066977
      28A     -1.022047    29A     -0.935413    30A     -0.910960
      31A     -0.877173    32A     -0.831936    33A     -0.811933
      34A     -0.767740    35A     -0.751995    36A     -0.735784
      37A     -0.720716    38A     -0.703008    39A     -0.698423
      40A     -0.686185    41A     -0.673226    42A     -0.654542
      43A     -0.651769    44A     -0.638944    45A     -0.620864
      46A     -0.615615    47A     -0.607168    48A     -0.592442
      49A     -0.575753    50A     -0.570021    51A     -0.553590
      52A     -0.545684    53A     -0.537349    54A     -0.532069
      55A     -0.496406    56A     -0.477080    57A     -0.473590
      58A     -0.461242    59A     -0.459516    60A     -0.452201
      61A     -0.440638    62A     -0.433652    63A     -0.395237
      64A     -0.351446

  @DF-RHF Final Energy:  -886.37364525858470

   => Energetics <=

    Nuclear Repulsion Energy =           1323.8059239798949420
    One-Electron Energy =               -3845.2744990816922837
    Two-Electron Energy =                1635.0949298432126398
    Total Energy =                       -886.3736452585847019
  Basis Set: (AUG-CC-PVTZ AUX)
    Blend: AUG-CC-PVTZ-RI
    Molecular point group: c1

    Geometry (in Angstrom), charge = 0, multiplicity = 1:

       Center              X                  Y                   Z               Mass
    ------------   -----------------  -----------------  -----------------  -----------------
         O           -1.257556863835    -0.646755601049     1.034359846200    15.994914619570
         O           -1.244494663835     2.481686598951    -0.686097953800    15.994914619570
         O           -3.216049663835     1.519934598951     0.744952046200    15.994914619570
         O           -2.356548663835    -3.068001401049     0.095005046200    15.994914619570
         O            1.361010336165     2.245869598951    -0.076476953800    15.994914619570
         N            0.846894936165     0.056188698951     0.252846046200    14.003074004430
         N            3.057706336165     0.719338598951    -0.293661953800    14.003074004430
         N            4.716943336165    -0.837819401049    -0.572232953800    14.003074004430
         C           -1.289003663835     1.077265598951    -0.592011953800    12.000000000000
         C           -2.714690663835     0.654042598951    -0.257327953800    12.000000000000
         C           -0.524927663835     0.480355598951     0.600159046200    12.000000000000
         C           -2.528775663835    -0.718050401049     0.361121046200    12.000000000000
         C           -2.527863663835    -1.851557401049    -0.639224953800    12.000000000000
         C            1.220255336165    -1.262572401049     0.311339046200    12.000000000000
         C            1.756074336165     1.066270598951    -0.059337953800    12.000000000000
         C            2.511581336165    -1.610304401049     0.047060046200    12.000000000000
         C            3.412463336165    -0.551817401049    -0.258859953800    12.000000000000
         H           -0.937125663835     0.590239598951    -1.514825953800     1.007825032230
         H           -3.362101663835     0.641500598951    -1.146399953800     1.007825032230
         H           -0.439809663835     1.220715598951     1.404063046200     1.007825032230
         H           -3.281476663835    -0.909898401049     1.130848046200     1.007825032230
         H           -1.712827663835    -1.701469401049    -1.369398953800     1.007825032230
         H           -3.485080663835    -1.835168401049    -1.184069953800     1.007825032230
         H           -0.297044663835     2.712014598951    -0.524934953800     1.007825032230
         H           -2.847075663835     2.398578598951     0.508728046200     1.007825032230
         H            0.434791336165    -1.964601401049     0.569133046200     1.007825032230
         H           -2.433393663835    -3.799596401049    -0.543167953800     1.007825032230
         H            2.829592336165    -2.646562401049     0.073987046200     1.007825032230
         H            5.125660336165    -1.672025401049    -0.162348953800     1.007825032230
         H            5.320294336165    -0.021218401049    -0.568228953800     1.007825032230

  Basis Set: AUG-CC-PVTZ
    Blend: AUG-CC-PVTZ
  Basis Set: (AUG-CC-PVTZ AUX)
    Blend: AUG-CC-PVTZ-JKFIT
	 Reference Energy          =    -886.3736452585847019 [Eh]
	 Singles Energy            =      -0.0000000000000000 [Eh]
	 Same-Spin Energy          =      -0.9010912805379592 [Eh]
	 Opposite-Spin Energy      =      -2.7146954598360038 [Eh]
	 Correlation Energy        =      -3.6157867403739630 [Eh]
	 Total Energy              =    -889.9894319989587075 [Eh]

	 ================> DF-SCS-MP2 Energies <==================
	-----------------------------------------------------------
	 SCS Same-Spin Scale       =       0.3333333333333333 [-]
	 SCS Opposite-Spin Scale   =       1.2000000000000000 [-]
	 SCS Same-Spin Energy      =      -0.3003637601793197 [Eh]
	 SCS Opposite-Spin Energy  =      -3.2576345518032044 [Eh]
	 SCS Correlation Energy    =      -3.5579983119825243 [Eh]
	 SCS Total Energy          =    -889.9316435705671893 [Eh]
	-----------------------------------------------------------

  Dipole Moment: [D]
     X:     1.7809      Y:    -6.0240      Z:    -1.8177     Total:     6.5395

*** Psi4 exiting successfully. Buy a developer a beer!
