                               Psi4 1.3.2 release

  ==> Input File <==

--------------------------------------------------------------------------
#psi4
#
memory 32 gb

molecule  {
0 1
  O       -1.2481010    -0.6526680     1.0325150
  O       -1.2449750     2.4828510    -0.6861630
  O       -3.2165300     1.5210990     0.7448870
  O       -2.3570290    -3.0668370     0.0949400
  O        1.3605300     2.2470340    -0.0765420
  N        0.8434040     0.0452230     0.2559430
  N        3.0572260     0.7205030    -0.2937270
  N        4.7164630    -0.8366550    -0.5722980
  C       -1.2894840     1.0784300    -0.5920770
  C       -2.7133215     0.6863859    -0.2143170
  C       -0.5254080     0.4815200     0.6000940
  C       -2.5292560    -0.7168860     0.3610560
  C       -2.5283440    -1.8503930    -0.6392900
  C        1.2197750    -1.2614080     0.3112740
  C        1.7555940     1.0674350    -0.0594030
  C        2.5111010    -1.6091400     0.0469950
  C        3.4119830    -0.5506530    -0.2589250
  H       -0.9040332     0.6096974    -1.5109435
  H       -3.3625820     0.6426650    -1.1464650
  H       -0.4402900     1.2218800     1.4039980
  H       -3.2819570    -0.9087340     1.1307830
  H       -1.7133080    -1.7003050    -1.3694640
  H       -3.4855610    -1.8340040    -1.1841350
  H       -0.2975250     2.7131790    -0.5250000
  H       -2.8475560     2.3997430     0.5086630
  H        0.4343110    -1.9634370     0.5690680
  H       -2.4338740    -3.7984320    -0.5432330
  H        2.8291120    -2.6453980     0.0739220
  H        5.1251800    -1.6708610    -0.1624140
  H        5.3198140    -0.0200540    -0.5682940
units angstrom
no_reorient  #important for SAPT in psi4, default
symmetry c1  #important for SAPT in psi4, default
}

set PROPERTIES_ORIGIN ["COM"]
properties('MP2/aug-cc-pvtz', properties = ['dipole'])
--------------------------------------------------------------------------

    Molecular point group: c1
  Charge       = 0
  Multiplicity = 1
  Basis Set: AUG-CC-PVTZ
    Blend: AUG-CC-PVTZ
  Basis Set: (AUG-CC-PVTZ AUX)
    Blend: AUG-CC-PVTZ-JKFIT

    Orbital Energies [Eh]
    ---------------------

    Doubly Occupied:

       1A    -20.581932     2A    -20.580340     3A    -20.563472
       4A    -20.556609     5A    -20.521901     6A    -15.636636
       7A    -15.599722     8A    -15.553210     9A    -11.388115
      10A    -11.357699    11A    -11.340381    12A    -11.328254
      13A    -11.300784    14A    -11.295748    15A    -11.295382
      16A    -11.294667    17A    -11.248333    18A     -1.430928
      19A     -1.398091    20A     -1.388995    21A     -1.373174
      22A     -1.354931    23A     -1.305903    24A     -1.273594
      25A     -1.182093    26A     -1.081724    27A     -1.062967
      28A     -1.020929    29A     -0.934605    30A     -0.909251
      31A     -0.877229    32A     -0.832457    33A     -0.809279
      34A     -0.766901    35A     -0.751682    36A     -0.737607
      37A     -0.719714    38A     -0.708606    39A     -0.700712
      40A     -0.685633    41A     -0.674667    42A     -0.653945
      43A     -0.652103    44A     -0.638069    45A     -0.620926
      46A     -0.613609    47A     -0.608165    48A     -0.593266
      49A     -0.578409    50A     -0.570540    51A     -0.558242
      52A     -0.549060    53A     -0.538181    54A     -0.531625
      55A     -0.497976    56A     -0.476378    57A     -0.471443
      58A     -0.461704    59A     -0.458534    60A     -0.451734
      61A     -0.436447    62A     -0.432801    63A     -0.394722
      64A     -0.349632

  @DF-RHF Final Energy:  -886.37071023691612

   => Energetics <=

    Nuclear Repulsion Energy =           1324.1999913130093773
    One-Electron Energy =               -3846.0166643274633316
    Two-Electron Energy =                1635.4459627775379431
    Total Energy =                       -886.3707102369160111
  Basis Set: (AUG-CC-PVTZ AUX)
    Blend: AUG-CC-PVTZ-RI
    Molecular point group: c1

    Geometry (in Angstrom), charge = 0, multiplicity = 1:

       Center              X                  Y                   Z               Mass
    ------------   -----------------  -----------------  -----------------  -----------------
         O           -1.248331526925    -0.654282990811     1.030372179771    15.994914619570
         O           -1.245205526925     2.481236009189    -0.688305820229    15.994914619570
         O           -3.216760526925     1.519484009189     0.742744179771    15.994914619570
         O           -2.357259526925    -3.068451990811     0.092797179771    15.994914619570
         O            1.360299473075     2.245419009189    -0.078684820229    15.994914619570
         N            0.843173473075     0.043608009189     0.253800179771    14.003074004430
         N            3.056995473075     0.718888009189    -0.295869820229    14.003074004430
         N            4.716232473075    -0.838269990811    -0.574440820229    14.003074004430
         C           -1.289714526925     1.076815009189    -0.594219820229    12.000000000000
         C           -2.713552026925     0.684770909189    -0.216459820229    12.000000000000
         C           -0.525638526925     0.479905009189     0.597951179771    12.000000000000
         C           -2.529486526925    -0.718500990811     0.358913179771    12.000000000000
         C           -2.528574526925    -1.852007990811    -0.641432820229    12.000000000000
         C            1.219544473075    -1.263022990811     0.309131179771    12.000000000000
         C            1.755363473075     1.065820009189    -0.061545820229    12.000000000000
         C            2.510870473075    -1.610754990811     0.044852179771    12.000000000000
         C            3.411752473075    -0.552267990811    -0.261067820229    12.000000000000
         H           -0.904263726925     0.608082409189    -1.513086320229     1.007825032230
         H           -3.362812526925     0.641050009189    -1.148607820229     1.007825032230
         H           -0.440520526925     1.220265009189     1.401855179771     1.007825032230
         H           -3.282187526925    -0.910348990811     1.128640179771     1.007825032230
         H           -1.713538526925    -1.701919990811    -1.371606820229     1.007825032230
         H           -3.485791526925    -1.835618990811    -1.186277820229     1.007825032230
         H           -0.297755526925     2.711564009189    -0.527142820229     1.007825032230
         H           -2.847786526925     2.398128009189     0.506520179771     1.007825032230
         H            0.434080473075    -1.965051990811     0.566925179771     1.007825032230
         H           -2.434104526925    -3.800046990811    -0.545375820229     1.007825032230
         H            2.828881473075    -2.647012990811     0.071779179771     1.007825032230
         H            5.124949473075    -1.672475990811    -0.164556820229     1.007825032230
         H            5.319583473075    -0.021668990811    -0.570436820229     1.007825032230

  Basis Set: AUG-CC-PVTZ
    Blend: AUG-CC-PVTZ
  Basis Set: (AUG-CC-PVTZ AUX)
    Blend: AUG-CC-PVTZ-JKFIT
	 Reference Energy          =    -886.3707102369161248 [Eh]
	 Singles Energy            =      -0.0000000000000000 [Eh]
	 Same-Spin Energy          =      -0.9013608164971084 [Eh]
	 Opposite-Spin Energy      =      -2.7144566173372446 [Eh]
	 Correlation Energy        =      -3.6158174338343532 [Eh]
	 Total Energy              =    -889.9865276707504336 [Eh]

	 ================> DF-SCS-MP2 Energies <==================
	-----------------------------------------------------------
	 SCS Same-Spin Scale       =       0.3333333333333333 [-]
	 SCS Opposite-Spin Scale   =       1.2000000000000000 [-]
	 SCS Same-Spin Energy      =      -0.3004536054990361 [Eh]
	 SCS Opposite-Spin Energy  =      -3.2573479408046935 [Eh]
	 SCS Correlation Energy    =      -3.5578015463037298 [Eh]
	 SCS Total Energy          =    -889.9285117832198466 [Eh]
	-----------------------------------------------------------

  Dipole Moment: [D]
     X:     1.6791      Y:    -5.8362      Z:    -1.6932     Total:     6.3046

*** Psi4 exiting successfully. Buy a developer a beer!
