                               Psi4 1.3.2 release

  ==> Input File <==

--------------------------------------------------------------------------
#psi4
#
memory 32 gb

molecule  {
0 1
  O       -1.2481010    -0.6526680     1.0325150
  O       -1.2449750     2.4828510    -0.6861630
  O       -3.2165300     1.5210990     0.7448870
  O       -2.3570290    -3.0668370     0.0949400
  O        1.3605300     2.2470340    -0.0765420
  N        0.8434040     0.0452230     0.2559430
  N        3.0572260     0.7205030    -0.2937270
  N        4.7164630    -0.8366550    -0.5722980
  C       -1.2894840     1.0784300    -0.5920770
  C       -2.7151710     0.6552070    -0.2573930
  C       -0.5254080     0.4815200     0.6000940
  C       -2.5292560    -0.7168860     0.3610560
  C       -2.5283440    -1.8503930    -0.6392900
  C        1.2197750    -1.2614080     0.3112740
  C        1.7555940     1.0674350    -0.0594030
  C        2.5111010    -1.6091400     0.0469950
  C        3.4119830    -0.5506530    -0.2589250
  H       -0.9376060     0.5914040    -1.5148910
  H       -3.3625820     0.6426650    -1.1464650
  H       -0.4402900     1.2218800     1.4039980
  H       -3.2819570    -0.9087340     1.1307830
  H       -1.8608900    -1.7274821    -1.2372484
  H       -3.4855610    -1.8340040    -1.1841350
  H       -0.2975250     2.7131790    -0.5250000
  H       -2.8475560     2.3997430     0.5086630
  H        0.4343110    -1.9634370     0.5690680
  H       -2.4338740    -3.7984320    -0.5432330
  H        2.8291120    -2.6453980     0.0739220
  H        5.1251800    -1.6708610    -0.1624140
  H        5.3198140    -0.0200540    -0.5682940
units angstrom
no_reorient  #important for SAPT in psi4, default
symmetry c1  #important for SAPT in psi4, default
}

set PROPERTIES_ORIGIN ["COM"]
properties('MP2/aug-cc-pvtz', properties = ['dipole'])
--------------------------------------------------------------------------

    Molecular point group: c1
  Charge       = 0
  Multiplicity = 1
  Basis Set: AUG-CC-PVTZ
    Blend: AUG-CC-PVTZ
  Basis Set: (AUG-CC-PVTZ AUX)
    Blend: AUG-CC-PVTZ-JKFIT

    Orbital Energies [Eh]
    ---------------------

    Doubly Occupied:

       1A    -20.581733     2A    -20.578809     3A    -20.557772
       4A    -20.557682     5A    -20.522331     6A    -15.637305
       7A    -15.600126     8A    -15.553680     9A    -11.388602
      10A    -11.358184    11A    -11.341880    12A    -11.328917
      13A    -11.297382    14A    -11.295119    15A    -11.292842
      16A    -11.275635    17A    -11.248943    18A     -1.429599
      19A     -1.396648    20A     -1.379980    21A     -1.371553
      22A     -1.346456    23A     -1.306391    24A     -1.274126
      25A     -1.182565    26A     -1.082531    27A     -1.072303
      28A     -1.024163    29A     -0.948201    30A     -0.912326
      31A     -0.881508    32A     -0.834486    33A     -0.816854
      34A     -0.769041    35A     -0.754138    36A     -0.738857
      37A     -0.722853    38A     -0.701881    39A     -0.697977
      40A     -0.690256    41A     -0.679078    42A     -0.658875
      43A     -0.652010    44A     -0.638820    45A     -0.622807
      46A     -0.614204    47A     -0.607576    48A     -0.594083
      49A     -0.575816    50A     -0.570841    51A     -0.554773
      52A     -0.545798    53A     -0.537846    54A     -0.533561
      55A     -0.498817    56A     -0.482604    57A     -0.474281
      58A     -0.462627    59A     -0.460736    60A     -0.454232
      61A     -0.440755    62A     -0.433301    63A     -0.395502
      64A     -0.350357

  @DF-RHF Final Energy:  -886.34369339051034

   => Energetics <=

    Nuclear Repulsion Energy =           1324.6219103454948254
    One-Electron Energy =               -3846.7493373586376038
    Two-Electron Energy =                1635.7837336226320986
    Total Energy =                       -886.3436933905104524
  Basis Set: (AUG-CC-PVTZ AUX)
    Blend: AUG-CC-PVTZ-RI
    Molecular point group: c1

    Geometry (in Angstrom), charge = 0, multiplicity = 1:

       Center              X                  Y                   Z               Mass
    ------------   -----------------  -----------------  -----------------  -----------------
         O           -1.247489163539    -0.652555314447     1.031966845702    15.994914619570
         O           -1.244363163539     2.482963685553    -0.686711154298    15.994914619570
         O           -3.215918163539     1.521211685553     0.744338845702    15.994914619570
         O           -2.356417163539    -3.066724314447     0.094391845702    15.994914619570
         O            1.361141836461     2.247146685553    -0.077090154298    15.994914619570
         N            0.844015836461     0.045335685553     0.255394845702    14.003074004430
         N            3.057837836461     0.720615685553    -0.294275154298    14.003074004430
         N            4.717074836461    -0.836542314447    -0.572846154298    14.003074004430
         C           -1.288872163539     1.078542685553    -0.592625154298    12.000000000000
         C           -2.714559163539     0.655319685553    -0.257941154298    12.000000000000
         C           -0.524796163539     0.481632685553     0.599545845702    12.000000000000
         C           -2.528644163539    -0.716773314447     0.360507845702    12.000000000000
         C           -2.527732163539    -1.850280314447    -0.639838154298    12.000000000000
         C            1.220386836461    -1.261295314447     0.310725845702    12.000000000000
         C            1.756205836461     1.067547685553    -0.059951154298    12.000000000000
         C            2.511712836461    -1.609027314447     0.046446845702    12.000000000000
         C            3.412594836461    -0.550540314447    -0.259473154298    12.000000000000
         H           -0.936994163539     0.591516685553    -1.515439154298     1.007825032230
         H           -3.361970163539     0.642777685553    -1.147013154298     1.007825032230
         H           -0.439678163539     1.221992685553     1.403449845702     1.007825032230
         H           -3.281345163539    -0.908621314447     1.130234845702     1.007825032230
         H           -1.860278163539    -1.727369414447    -1.237796554298     1.007825032230
         H           -3.484949163539    -1.833891314447    -1.184683154298     1.007825032230
         H           -0.296913163539     2.713291685553    -0.525548154298     1.007825032230
         H           -2.846944163539     2.399855685553     0.508114845702     1.007825032230
         H            0.434922836461    -1.963324314447     0.568519845702     1.007825032230
         H           -2.433262163539    -3.798319314447    -0.543781154298     1.007825032230
         H            2.829723836461    -2.645285314447     0.073373845702     1.007825032230
         H            5.125791836461    -1.670748314447    -0.162962154298     1.007825032230
         H            5.320425836461    -0.019941314447    -0.568842154298     1.007825032230

  Basis Set: AUG-CC-PVTZ
    Blend: AUG-CC-PVTZ
  Basis Set: (AUG-CC-PVTZ AUX)
    Blend: AUG-CC-PVTZ-JKFIT
	 Reference Energy          =    -886.3436933905103388 [Eh]
	 Singles Energy            =      -0.0000000000000000 [Eh]
	 Same-Spin Energy          =      -0.9010363201408008 [Eh]
	 Opposite-Spin Energy      =      -2.7139598094677400 [Eh]
	 Correlation Energy        =      -3.6149961296085409 [Eh]
	 Total Energy              =    -889.9586895201189236 [Eh]

	 ================> DF-SCS-MP2 Energies <==================
	-----------------------------------------------------------
	 SCS Same-Spin Scale       =       0.3333333333333333 [-]
	 SCS Opposite-Spin Scale   =       1.2000000000000000 [-]
	 SCS Same-Spin Energy      =      -0.3003454400469336 [Eh]
	 SCS Opposite-Spin Energy  =      -3.2567517713612877 [Eh]
	 SCS Correlation Energy    =      -3.5570972114082213 [Eh]
	 SCS Total Energy          =    -889.9007906019185157 [Eh]
	-----------------------------------------------------------

  Dipole Moment: [D]
     X:     1.7777      Y:    -5.8867      Z:    -1.9003     Total:     6.4361

*** Psi4 exiting successfully. Buy a developer a beer!
