                               Psi4 1.4a3.dev225

  ==> Input File <==

--------------------------------------------------------------------------
#psi4
#
memory 32 gb

molecule  {
0 1
  O       -1.3191770     0.6538360    -1.0992360
  O       -1.5735610    -2.4640850     0.5135810
  O       -3.5606630    -1.0699430    -0.4600060
  O       -1.4399290     3.1254620     0.1265180
  O        1.1065530    -2.3833650     0.0076020
  N        0.7686360    -0.1579440    -0.3706350
  N        2.9363770    -0.9938720     0.1460080
  N        4.7058880     0.4431110     0.3611260
  C       -1.3768610    -1.0680440     0.5552780
  C       -2.7379840    -0.3746360     0.4578480
  C       -0.6377490    -0.5042940    -0.6790150
  C       -2.3707440     0.9655450    -0.1585060
  C       -1.8992030     1.9895750     0.8571380
  C        1.2309690     1.1190800    -0.4442230
  C        1.6104480    -1.2470590    -0.0585760
  C        2.5474650     1.3753690    -0.1998620
  C        3.3802090     0.2523040     0.0808410
  H       -0.8441360    -0.7686950     1.4698480
  H       -3.2257400    -0.2778790     1.4400230
  H       -0.6227070    -1.2428120    -1.4883720
  H       -3.1565153     1.3596831    -0.7202827
  H       -1.0952130     1.5703990     1.4802000
  H       -2.7410530     2.2466610     1.5166010
  H       -0.6710550    -2.8260740     0.3542250
  H       -3.3063470    -2.0105220    -0.3629290
  H        0.4929290     1.8778260    -0.6840360
  H       -1.2098800     3.8154810     0.7720340
  H        2.9334840     2.3875570    -0.2389120
  H        5.1589650     1.2712730    -0.0008400
  H        5.2635310    -0.4031270     0.3606700
units angstrom
no_reorient  #important for SAPT in psi4, default
symmetry c1  #important for SAPT in psi4, default
}

set PROPERTIES_ORIGIN ["COM"]
properties('MP2/aug-cc-pvtz', properties = ['dipole'])
--------------------------------------------------------------------------

    Molecular point group: c1
  Charge       = 0
  Multiplicity = 1
  Basis Set: AUG-CC-PVTZ
    Blend: AUG-CC-PVTZ
  Basis Set: (AUG-CC-PVTZ AUX)
    Blend: AUG-CC-PVTZ-JKFIT

    Orbital Energies [Eh]
    ---------------------

    Doubly Occupied:

       1A    -20.586797     2A    -20.580919     3A    -20.559200
       4A    -20.556493     5A    -20.519592     6A    -15.632808
       7A    -15.599579     8A    -15.551646     9A    -11.385829
      10A    -11.357958    11A    -11.339330    12A    -11.325002
      13A    -11.303263    14A    -11.296744    15A    -11.293353
      16A    -11.292159    17A    -11.246445    18A     -1.429070
      19A     -1.394013    20A     -1.383040    21A     -1.375409
      22A     -1.346519    23A     -1.303542    24A     -1.271220
      25A     -1.181100    26A     -1.079381    27A     -1.069160
      28A     -1.018006    29A     -0.936386    30A     -0.906893
      31A     -0.877298    32A     -0.830900    33A     -0.815237
      34A     -0.766593    35A     -0.750225    36A     -0.736136
      37A     -0.721933    38A     -0.709665    39A     -0.703611
      40A     -0.685068    41A     -0.675030    42A     -0.653326
      43A     -0.648951    44A     -0.633398    45A     -0.620171
      46A     -0.615227    47A     -0.608568    48A     -0.593294
      49A     -0.577373    50A     -0.568621    51A     -0.555718
      52A     -0.548286    53A     -0.536686    54A     -0.531468
      55A     -0.495957    56A     -0.480816    57A     -0.474794
      58A     -0.463480    59A     -0.457856    60A     -0.452970
      61A     -0.441973    62A     -0.430240    63A     -0.392148
      64A     -0.348110

  @DF-RHF Final Energy:  -886.37348801948724

   => Energetics <=

    Nuclear Repulsion Energy =           1334.9170626598745457
    One-Electron Energy =               -3867.5371330819430113
    Two-Electron Energy =                1646.2465824025809980
    Total Energy =                       -886.3734880194872403
  Basis Set: (AUG-CC-PVTZ AUX)
    Blend: AUG-CC-PVTZ-RI
    Molecular point group: c1

    Geometry (in Angstrom), charge = 0, multiplicity = 1:

       Center              X                  Y                   Z               Mass
    ------------   -----------------  -----------------  -----------------  -----------------
         O           -1.332076790745     0.682525783687    -1.083567416407    15.994914619570
         O           -1.586460790745    -2.435395216313     0.529249583593    15.994914619570
         O           -3.573562790745    -1.041253216313    -0.444337416407    15.994914619570
         O           -1.452828790745     3.154151783687     0.142186583593    15.994914619570
         O            1.093653209255    -2.354675216313     0.023270583593    15.994914619570
         N            0.755736209255    -0.129254216313    -0.354966416407    14.003074004430
         N            2.923477209255    -0.965182216313     0.161676583593    14.003074004430
         N            4.692988209255     0.471800783687     0.376794583593    14.003074004430
         C           -1.389760790745    -1.039354216313     0.570946583593    12.000000000000
         C           -2.750883790745    -0.345946216313     0.473516583593    12.000000000000
         C           -0.650648790745    -0.475604216313    -0.663346416407    12.000000000000
         C           -2.383643790745     0.994234783687    -0.142837416407    12.000000000000
         C           -1.912102790745     2.018264783687     0.872806583593    12.000000000000
         C            1.218069209255     1.147769783687    -0.428554416407    12.000000000000
         C            1.597548209255    -1.218369216313    -0.042907416407    12.000000000000
         C            2.534565209255     1.404058783687    -0.184193416407    12.000000000000
         C            3.367309209255     0.280993783687     0.096509583593    12.000000000000
         H           -0.857035790745    -0.740005216313     1.485516583593     1.007825032230
         H           -3.238639790745    -0.249189216313     1.455691583593     1.007825032230
         H           -0.635606790745    -1.214122216313    -1.472703416407     1.007825032230
         H           -3.169415090745     1.388372883687    -0.704614116407     1.007825032230
         H           -1.108112790745     1.599088783687     1.495868583593     1.007825032230
         H           -2.753952790745     2.275350783687     1.532269583593     1.007825032230
         H           -0.683954790745    -2.797384216313     0.369893583593     1.007825032230
         H           -3.319246790745    -1.981832216313    -0.347260416407     1.007825032230
         H            0.480029209255     1.906515783687    -0.668367416407     1.007825032230
         H           -1.222779790745     3.844170783687     0.787702583593     1.007825032230
         H            2.920584209255     2.416246783687    -0.223243416407     1.007825032230
         H            5.146065209255     1.299962783687     0.014828583593     1.007825032230
         H            5.250631209255    -0.374437216313     0.376338583593     1.007825032230

  Basis Set: AUG-CC-PVTZ
    Blend: AUG-CC-PVTZ
  Basis Set: (AUG-CC-PVTZ AUX)
    Blend: AUG-CC-PVTZ-JKFIT
	 Reference Energy          =    -886.3734880194872403 [Eh]
	 Singles Energy            =      -0.0000000000000000 [Eh]
	 Same-Spin Energy          =      -0.9016941805401713 [Eh]
	 Opposite-Spin Energy      =      -2.7154819389520268 [Eh]
	 Correlation Energy        =      -3.6171761194921981 [Eh]
	 Total Energy              =    -889.9906641389794686 [Eh]

	 ================> DF-SCS-MP2 Energies <==================
	-----------------------------------------------------------
	 SCS Same-Spin Scale       =       0.3333333333333333 [-]
	 SCS Opposite-Spin Scale   =       1.2000000000000000 [-]
	 SCS Same-Spin Energy      =      -0.3005647268467238 [Eh]
	 SCS Opposite-Spin Energy  =      -3.2585783267424322 [Eh]
	 SCS Correlation Energy    =      -3.5591430535891559 [Eh]
	 SCS Total Energy          =    -889.9326310730764362 [Eh]
	-----------------------------------------------------------

  Dipole Moment: [D]
     X:     2.7215      Y:     5.8079      Z:     1.9491     Total:     6.7036

*** Psi4 exiting successfully. Buy a developer a beer!
