                               Psi4 1.3.2 release

  ==> Input File <==

--------------------------------------------------------------------------
#psi4
#
memory 32 gb

molecule  {
0 1
  O       -1.2481010    -0.6526680     1.0325150
  O       -1.2449750     2.4828510    -0.6861630
  O       -3.2165300     1.5210990     0.7448870
  O       -2.3570290    -3.0668370     0.0949400
  O        1.3605300     2.2470340    -0.0765420
  N        0.8434040     0.0452230     0.2559430
  N        3.0572260     0.7205030    -0.2937270
  N        4.7164630    -0.8366550    -0.5722980
  C       -1.2894840     1.0784300    -0.5920770
  C       -2.7151710     0.6552070    -0.2573930
  C       -0.5254080     0.4815200     0.6000940
  C       -2.5292560    -0.7168860     0.3610560
  C       -2.5283440    -1.8503930    -0.6392900
  C        1.2197750    -1.2614080     0.3112740
  C        1.7613718     1.0903810    -0.0624965
  C        2.5111010    -1.6091400     0.0469950
  C        3.4336496    -0.5445315    -0.2638231
  H       -0.9376060     0.5914040    -1.5148910
  H       -3.3625820     0.6426650    -1.1464650
  H       -0.4402900     1.2218800     1.4039980
  H       -3.2819570    -0.9087340     1.1307830
  H       -1.7133080    -1.7003050    -1.3694640
  H       -3.4855610    -1.8340040    -1.1841350
  H       -0.2975250     2.7131790    -0.5250000
  H       -2.8475560     2.3997430     0.5086630
  H        0.4343110    -1.9634370     0.5690680
  H       -2.4338740    -3.7984320    -0.5432330
  H        2.8291120    -2.6453980     0.0739220
  H        5.1251800    -1.6708610    -0.1624140
  H        5.3198140    -0.0200540    -0.5682940
units angstrom
no_reorient  #important for SAPT in psi4, default
symmetry c1  #important for SAPT in psi4, default
}

set PROPERTIES_ORIGIN ["COM"]
properties('MP2/aug-cc-pvtz', properties = ['dipole'])
--------------------------------------------------------------------------

    Molecular point group: c1
  Charge       = 0
  Multiplicity = 1
  Basis Set: AUG-CC-PVTZ
    Blend: AUG-CC-PVTZ
  Basis Set: (AUG-CC-PVTZ AUX)
    Blend: AUG-CC-PVTZ-JKFIT

    Orbital Energies [Eh]
    ---------------------

    Doubly Occupied:

       1A    -20.581165     2A    -20.579804     3A    -20.557804
       4A    -20.557192     5A    -20.527102     6A    -15.631347
       7A    -15.602747     8A    -15.550136     9A    -11.389367
      10A    -11.358418    11A    -11.339198    12A    -11.324539
      13A    -11.300073    14A    -11.295734    15A    -11.295608
      16A    -11.292101    17A    -11.246114    18A     -1.428619
      19A     -1.403377    20A     -1.379633    21A     -1.371956
      22A     -1.346356    23A     -1.309326    24A     -1.273935
      25A     -1.183728    26A     -1.076573    27A     -1.066573
      28A     -1.018288    29A     -0.933423    30A     -0.902226
      31A     -0.878076    32A     -0.831241    33A     -0.810663
      34A     -0.766347    35A     -0.749847    36A     -0.735417
      37A     -0.724215    38A     -0.702669    39A     -0.697700
      40A     -0.686726    41A     -0.672405    42A     -0.656492
      43A     -0.651028    44A     -0.635998    45A     -0.618526
      46A     -0.614622    47A     -0.606013    48A     -0.595661
      49A     -0.574844    50A     -0.569151    51A     -0.553564
      52A     -0.546201    53A     -0.539506    54A     -0.532584
      55A     -0.499885    56A     -0.476584    57A     -0.473837
      58A     -0.465233    59A     -0.459420    60A     -0.452324
      61A     -0.439328    62A     -0.427623    63A     -0.394962
      64A     -0.346368

  @DF-RHF Final Energy:  -886.37346989015430

   => Energetics <=

    Nuclear Repulsion Energy =           1323.2251708662720375
    One-Electron Energy =               -3844.1822415195761096
    Two-Electron Energy =                1634.5836007631498887
    Total Energy =                       -886.3734698901541833
  Basis Set: (AUG-CC-PVTZ AUX)
    Blend: AUG-CC-PVTZ-RI
    Molecular point group: c1

    Geometry (in Angstrom), charge = 0, multiplicity = 1:

       Center              X                  Y                   Z               Mass
    ------------   -----------------  -----------------  -----------------  -----------------
         O           -1.249455836145    -0.654102916957     1.032909515553    15.994914619570
         O           -1.246329836145     2.481416083043    -0.685768484447    15.994914619570
         O           -3.217884836145     1.519664083043     0.745281515553    15.994914619570
         O           -2.358383836145    -3.068271916957     0.095334515553    15.994914619570
         O            1.359175163855     2.245599083043    -0.076147484447    15.994914619570
         N            0.842049163855     0.043788083043     0.256337515553    14.003074004430
         N            3.055871163855     0.719068083043    -0.293332484447    14.003074004430
         N            4.715108163855    -0.838089916957    -0.571903484447    14.003074004430
         C           -1.290838836145     1.076995083043    -0.591682484447    12.000000000000
         C           -2.716525836145     0.653772083043    -0.256998484447    12.000000000000
         C           -0.526762836145     0.480085083043     0.600488515553    12.000000000000
         C           -2.530610836145    -0.718320916957     0.361450515553    12.000000000000
         C           -2.529698836145    -1.851827916957    -0.638895484447    12.000000000000
         C            1.218420163855    -1.262842916957     0.311668515553    12.000000000000
         C            1.760016963855     1.088946083043    -0.062101984447    12.000000000000
         C            2.509746163855    -1.610574916957     0.047389515553    12.000000000000
         C            3.432294763855    -0.545966416957    -0.263428584447    12.000000000000
         H           -0.938960836145     0.589969083043    -1.514496484447     1.007825032230
         H           -3.363936836145     0.641230083043    -1.146070484447     1.007825032230
         H           -0.441644836145     1.220445083043     1.404392515553     1.007825032230
         H           -3.283311836145    -0.910168916957     1.131177515553     1.007825032230
         H           -1.714662836145    -1.701739916957    -1.369069484447     1.007825032230
         H           -3.486915836145    -1.835438916957    -1.183740484447     1.007825032230
         H           -0.298879836145     2.711744083043    -0.524605484447     1.007825032230
         H           -2.848910836145     2.398308083043     0.509057515553     1.007825032230
         H            0.432956163855    -1.964871916957     0.569462515553     1.007825032230
         H           -2.435228836145    -3.799866916957    -0.542838484447     1.007825032230
         H            2.827757163855    -2.646832916957     0.074316515553     1.007825032230
         H            5.123825163855    -1.672295916957    -0.162019484447     1.007825032230
         H            5.318459163855    -0.021488916957    -0.567899484447     1.007825032230

  Basis Set: AUG-CC-PVTZ
    Blend: AUG-CC-PVTZ
  Basis Set: (AUG-CC-PVTZ AUX)
    Blend: AUG-CC-PVTZ-JKFIT
	 Reference Energy          =    -886.3734698901542970 [Eh]
	 Singles Energy            =      -0.0000000000000000 [Eh]
	 Same-Spin Energy          =      -0.9007969226145676 [Eh]
	 Opposite-Spin Energy      =      -2.7142067161395240 [Eh]
	 Correlation Energy        =      -3.6150036387540916 [Eh]
	 Total Energy              =    -889.9884735289083437 [Eh]

	 ================> DF-SCS-MP2 Energies <==================
	-----------------------------------------------------------
	 SCS Same-Spin Scale       =       0.3333333333333333 [-]
	 SCS Opposite-Spin Scale   =       1.2000000000000000 [-]
	 SCS Same-Spin Energy      =      -0.3002656408715225 [Eh]
	 SCS Opposite-Spin Energy  =      -3.2570480593674289 [Eh]
	 SCS Correlation Energy    =      -3.5573137002389514 [Eh]
	 SCS Total Energy          =    -889.9307835903932755 [Eh]
	-----------------------------------------------------------

  Dipole Moment: [D]
     X:     1.9129      Y:    -5.7533      Z:    -1.8846     Total:     6.3491

*** Psi4 exiting successfully. Buy a developer a beer!
