                               Psi4 1.3.2 release

  ==> Input File <==

--------------------------------------------------------------------------
#psi4
#
memory 32 gb

molecule  {
0 1
  O       -1.2538452    -0.6548168     1.0435617
  O       -1.2449750     2.4828510    -0.6861630
  O       -3.2165300     1.5210990     0.7448870
  O       -2.3570290    -3.0668370     0.0949400
  O        1.3605300     2.2470340    -0.0765420
  N        0.8434040     0.0452230     0.2559430
  N        3.0572260     0.7205030    -0.2937270
  N        4.7164630    -0.8366550    -0.5722980
  C       -1.2894840     1.0784300    -0.5920770
  C       -2.7151710     0.6552070    -0.2573930
  C       -0.5254080     0.4815200     0.6000940
  C       -2.5292560    -0.7168860     0.3610560
  C       -2.5283440    -1.8503930    -0.6392900
  C        1.2197750    -1.2614080     0.3112740
  C        1.7555940     1.0674350    -0.0594030
  C        2.5111010    -1.6091400     0.0469950
  C        3.4119830    -0.5506530    -0.2589250
  H       -0.9376060     0.5914040    -1.5148910
  H       -3.3625820     0.6426650    -1.1464650
  H       -0.4402900     1.2218800     1.4039980
  H       -3.2750974    -0.9087925     1.1374171
  H       -1.7133080    -1.7003050    -1.3694640
  H       -3.4855610    -1.8340040    -1.1841350
  H       -0.2975250     2.7131790    -0.5250000
  H       -2.8475560     2.3997430     0.5086630
  H        0.4343110    -1.9634370     0.5690680
  H       -2.4338740    -3.7984320    -0.5432330
  H        2.8291120    -2.6453980     0.0739220
  H        5.1251800    -1.6708610    -0.1624140
  H        5.3198140    -0.0200540    -0.5682940
units angstrom
no_reorient  #important for SAPT in psi4, default
symmetry c1  #important for SAPT in psi4, default
}

set PROPERTIES_ORIGIN ["COM"]
properties('MP2/aug-cc-pvtz', properties = ['dipole'])
--------------------------------------------------------------------------

    Molecular point group: c1
  Charge       = 0
  Multiplicity = 1
  Basis Set: AUG-CC-PVTZ
    Blend: AUG-CC-PVTZ
  Basis Set: (AUG-CC-PVTZ AUX)
    Blend: AUG-CC-PVTZ-JKFIT

    Orbital Energies [Eh]
    ---------------------

    Doubly Occupied:

       1A    -20.582130     2A    -20.581654     3A    -20.557726
       4A    -20.557548     5A    -20.522206     6A    -15.637331
       7A    -15.600008     8A    -15.553557     9A    -11.388526
      10A    -11.358052    11A    -11.342019    12A    -11.328754
      13A    -11.301164    14A    -11.297045    15A    -11.296342
      16A    -11.293020    17A    -11.248754    18A     -1.427496
      19A     -1.396253    20A     -1.380046    21A     -1.372322
      22A     -1.346348    23A     -1.306274    24A     -1.274053
      25A     -1.182451    26A     -1.082158    27A     -1.067305
      28A     -1.021312    29A     -0.935509    30A     -0.909596
      31A     -0.877373    32A     -0.832206    33A     -0.811512
      34A     -0.767117    35A     -0.752181    36A     -0.735866
      37A     -0.720245    38A     -0.702889    39A     -0.698372
      40A     -0.685339    41A     -0.672685    42A     -0.653949
      43A     -0.651695    44A     -0.638425    45A     -0.620603
      46A     -0.614490    47A     -0.606509    48A     -0.594051
      49A     -0.575581    50A     -0.568401    51A     -0.554039
      52A     -0.545817    53A     -0.537655    54A     -0.531866
      55A     -0.498289    56A     -0.477463    57A     -0.474599
      58A     -0.462007    59A     -0.460175    60A     -0.453072
      61A     -0.440907    62A     -0.433407    63A     -0.395406
      64A     -0.350231

  @DF-RHF Final Energy:  -886.37296853502721

   => Energetics <=

    Nuclear Repulsion Energy =           1323.3561430827669483
    One-Electron Energy =               -3844.3754647157115869
    Two-Electron Energy =                1634.6463530979171992
    Total Energy =                       -886.3729685350272121
  Basis Set: (AUG-CC-PVTZ AUX)
    Blend: AUG-CC-PVTZ-RI
    Molecular point group: c1

    Geometry (in Angstrom), charge = 0, multiplicity = 1:

       Center              X                  Y                   Z               Mass
    ------------   -----------------  -----------------  -----------------  -----------------
         O           -1.253495707927    -0.654675157278     1.042807334966    15.994914619570
         O           -1.244625507927     2.482992642722    -0.686917365034    15.994914619570
         O           -3.216180507927     1.521240642722     0.744132634966    15.994914619570
         O           -2.356679507927    -3.066695357278     0.094185634966    15.994914619570
         O            1.360879492073     2.247175642722    -0.077296365034    15.994914619570
         N            0.843753492073     0.045364642722     0.255188634966    14.003074004430
         N            3.057575492073     0.720644642722    -0.294481365034    14.003074004430
         N            4.716812492073    -0.836513357278    -0.573052365034    14.003074004430
         C           -1.289134507927     1.078571642722    -0.592831365034    12.000000000000
         C           -2.714821507927     0.655348642722    -0.258147365034    12.000000000000
         C           -0.525058507927     0.481661642722     0.599339634966    12.000000000000
         C           -2.528906507927    -0.716744357278     0.360301634966    12.000000000000
         C           -2.527994507927    -1.850251357278    -0.640044365034    12.000000000000
         C            1.220124492073    -1.261266357278     0.310519634966    12.000000000000
         C            1.755943492073     1.067576642722    -0.060157365034    12.000000000000
         C            2.511450492073    -1.608998357278     0.046240634966    12.000000000000
         C            3.412332492073    -0.550511357278    -0.259679365034    12.000000000000
         H           -0.937256507927     0.591545642722    -1.515645365034     1.007825032230
         H           -3.362232507927     0.642806642722    -1.147219365034     1.007825032230
         H           -0.439940507927     1.222021642722     1.403243634966     1.007825032230
         H           -3.274747907927    -0.908650857278     1.136662734966     1.007825032230
         H           -1.712958507927    -1.700163357278    -1.370218365034     1.007825032230
         H           -3.485211507927    -1.833862357278    -1.184889365034     1.007825032230
         H           -0.297175507927     2.713320642722    -0.525754365034     1.007825032230
         H           -2.847206507927     2.399884642722     0.507908634966     1.007825032230
         H            0.434660492073    -1.963295357278     0.568313634966     1.007825032230
         H           -2.433524507927    -3.798290357278    -0.543987365034     1.007825032230
         H            2.829461492073    -2.645256357278     0.073167634966     1.007825032230
         H            5.125529492073    -1.670719357278    -0.163168365034     1.007825032230
         H            5.320163492073    -0.019912357278    -0.569048365034     1.007825032230

  Basis Set: AUG-CC-PVTZ
    Blend: AUG-CC-PVTZ
  Basis Set: (AUG-CC-PVTZ AUX)
    Blend: AUG-CC-PVTZ-JKFIT
	 Reference Energy          =    -886.3729685350272121 [Eh]
	 Singles Energy            =      -0.0000000000000000 [Eh]
	 Same-Spin Energy          =      -0.9012877314386881 [Eh]
	 Opposite-Spin Energy      =      -2.7152030725529457 [Eh]
	 Correlation Energy        =      -3.6164908039916339 [Eh]
	 Total Energy              =    -889.9894593390188220 [Eh]

	 ================> DF-SCS-MP2 Energies <==================
	-----------------------------------------------------------
	 SCS Same-Spin Scale       =       0.3333333333333333 [-]
	 SCS Opposite-Spin Scale   =       1.2000000000000000 [-]
	 SCS Same-Spin Energy      =      -0.3004292438128960 [Eh]
	 SCS Opposite-Spin Energy  =      -3.2582436870635347 [Eh]
	 SCS Correlation Energy    =      -3.5586729308764307 [Eh]
	 SCS Total Energy          =    -889.9316414659036809 [Eh]
	-----------------------------------------------------------

  Dipole Moment: [D]
     X:     1.7402      Y:    -5.9371      Z:    -1.8410     Total:     6.4550

*** Psi4 exiting successfully. Buy a developer a beer!
