                               Psi4 1.3.2 release

  ==> Input File <==

--------------------------------------------------------------------------
#psi4
#
memory 32 gb

molecule  {
0 1
  O       -1.2481010    -0.6526680     1.0325150
  O       -1.2493699     2.4837032    -0.6747179
  O       -3.2165300     1.5210990     0.7448870
  O       -2.3570290    -3.0668370     0.0949400
  O        1.3605300     2.2470340    -0.0765420
  N        0.8434040     0.0452230     0.2559430
  N        3.0572260     0.7205030    -0.2937270
  N        4.7164630    -0.8366550    -0.5722980
  C       -1.2894840     1.0784300    -0.5920770
  C       -2.7151710     0.6552070    -0.2573930
  C       -0.5254080     0.4815200     0.6000940
  C       -2.5292560    -0.7168860     0.3610560
  C       -2.5283440    -1.8503930    -0.6392900
  C        1.2197750    -1.2614080     0.3112740
  C        1.7555940     1.0674350    -0.0594030
  C        2.5111010    -1.6091400     0.0469950
  C        3.4119830    -0.5506530    -0.2589250
  H       -0.9391891     0.5828042    -1.5109059
  H       -3.3625820     0.6426650    -1.1464650
  H       -0.4402900     1.2218800     1.4039980
  H       -3.2819570    -0.9087340     1.1307830
  H       -1.7133080    -1.7003050    -1.3694640
  H       -3.4855610    -1.8340040    -1.1841350
  H       -0.2975250     2.7131790    -0.5250000
  H       -2.8475560     2.3997430     0.5086630
  H        0.4343110    -1.9634370     0.5690680
  H       -2.4338740    -3.7984320    -0.5432330
  H        2.8291120    -2.6453980     0.0739220
  H        5.1251800    -1.6708610    -0.1624140
  H        5.3198140    -0.0200540    -0.5682940
units angstrom
no_reorient  #important for SAPT in psi4, default
symmetry c1  #important for SAPT in psi4, default
}

set PROPERTIES_ORIGIN ["COM"]
properties('MP2/aug-cc-pvtz', properties = ['dipole'])
--------------------------------------------------------------------------

    Molecular point group: c1
  Charge       = 0
  Multiplicity = 1
  Basis Set: AUG-CC-PVTZ
    Blend: AUG-CC-PVTZ
  Basis Set: (AUG-CC-PVTZ AUX)
    Blend: AUG-CC-PVTZ-JKFIT

    Orbital Energies [Eh]
    ---------------------

    Doubly Occupied:

       1A    -20.582220     2A    -20.581421     3A    -20.557847
       4A    -20.557296     5A    -20.522109     6A    -15.636917
       7A    -15.599889     8A    -15.553399     9A    -11.388333
      10A    -11.357900    11A    -11.341246    12A    -11.328539
      13A    -11.301162    14A    -11.296778    15A    -11.296729
      16A    -11.292723    17A    -11.248587    18A     -1.429284
      19A     -1.396407    20A     -1.380147    21A     -1.372777
      22A     -1.345848    23A     -1.306113    24A     -1.273814
      25A     -1.182289    26A     -1.081975    27A     -1.067671
      28A     -1.021339    29A     -0.935389    30A     -0.909490
      31A     -0.877261    32A     -0.832138    33A     -0.811750
      34A     -0.766974    35A     -0.752214    36A     -0.736563
      37A     -0.720224    38A     -0.702866    39A     -0.698161
      40A     -0.685634    41A     -0.672805    42A     -0.654588
      43A     -0.651354    44A     -0.638431    45A     -0.620449
      46A     -0.614488    47A     -0.606755    48A     -0.593945
      49A     -0.575618    50A     -0.569500    51A     -0.554111
      52A     -0.545588    53A     -0.537503    54A     -0.531742
      55A     -0.497964    56A     -0.477350    57A     -0.474674
      58A     -0.462049    59A     -0.459996    60A     -0.453059
      61A     -0.440499    62A     -0.433166    63A     -0.395223
      64A     -0.350054

  @DF-RHF Final Energy:  -886.37313983620697

   => Energetics <=

    Nuclear Repulsion Energy =           1323.8050652265603730
    One-Electron Energy =               -3845.2757411570378281
    Two-Electron Energy =                1635.0975360942702537
    Total Energy =                       -886.3731398362069740
  Basis Set: (AUG-CC-PVTZ AUX)
    Blend: AUG-CC-PVTZ-RI
    Molecular point group: c1

    Geometry (in Angstrom), charge = 0, multiplicity = 1:

       Center              X                  Y                   Z               Mass
    ------------   -----------------  -----------------  -----------------  -----------------
         O           -1.247805288069    -0.652688409722     1.031745403103    15.994914619570
         O           -1.249074188069     2.483682790278    -0.675487496897    15.994914619570
         O           -3.216234288069     1.521078590278     0.744117403103    15.994914619570
         O           -2.356733288069    -3.066857409722     0.094170403103    15.994914619570
         O            1.360825711931     2.247013590278    -0.077311596897    15.994914619570
         N            0.843699711931     0.045202590278     0.255173403103    14.003074004430
         N            3.057521711931     0.720482590278    -0.294496596897    14.003074004430
         N            4.716758711931    -0.836675409722    -0.573067596897    14.003074004430
         C           -1.289188288069     1.078409590278    -0.592846596897    12.000000000000
         C           -2.714875288069     0.655186590278    -0.258162596897    12.000000000000
         C           -0.525112288069     0.481499590278     0.599324403103    12.000000000000
         C           -2.528960288069    -0.716906409722     0.360286403103    12.000000000000
         C           -2.528048288069    -1.850413409722    -0.640059596897    12.000000000000
         C            1.220070711931    -1.261428409722     0.310504403103    12.000000000000
         C            1.755889711931     1.067414590278    -0.060172596897    12.000000000000
         C            2.511396711931    -1.609160409722     0.046225403103    12.000000000000
         C            3.412278711931    -0.550673409722    -0.259694596897    12.000000000000
         H           -0.938893388069     0.582783790278    -1.511675496897     1.007825032230
         H           -3.362286288069     0.642644590278    -1.147234596897     1.007825032230
         H           -0.439994288069     1.221859590278     1.403228403103     1.007825032230
         H           -3.281661288069    -0.908754409722     1.130013403103     1.007825032230
         H           -1.713012288069    -1.700325409722    -1.370233596897     1.007825032230
         H           -3.485265288069    -1.834024409722    -1.184904596897     1.007825032230
         H           -0.297229288069     2.713158590278    -0.525769596897     1.007825032230
         H           -2.847260288069     2.399722590278     0.507893403103     1.007825032230
         H            0.434606711931    -1.963457409722     0.568298403103     1.007825032230
         H           -2.433578288069    -3.798452409722    -0.544002596897     1.007825032230
         H            2.829407711931    -2.645418409722     0.073152403103     1.007825032230
         H            5.125475711931    -1.670881409722    -0.163183596897     1.007825032230
         H            5.320109711931    -0.020074409722    -0.569063596897     1.007825032230

  Basis Set: AUG-CC-PVTZ
    Blend: AUG-CC-PVTZ
  Basis Set: (AUG-CC-PVTZ AUX)
    Blend: AUG-CC-PVTZ-JKFIT
	 Reference Energy          =    -886.3731398362069740 [Eh]
	 Singles Energy            =      -0.0000000000000000 [Eh]
	 Same-Spin Energy          =      -0.9013377537917480 [Eh]
	 Opposite-Spin Energy      =      -2.7150669543198109 [Eh]
	 Correlation Energy        =      -3.6164047081115589 [Eh]
	 Total Energy              =    -889.9895445443185054 [Eh]

	 ================> DF-SCS-MP2 Energies <==================
	-----------------------------------------------------------
	 SCS Same-Spin Scale       =       0.3333333333333333 [-]
	 SCS Opposite-Spin Scale   =       1.2000000000000000 [-]
	 SCS Same-Spin Energy      =      -0.3004459179305826 [Eh]
	 SCS Opposite-Spin Energy  =      -3.2580803451837732 [Eh]
	 SCS Correlation Energy    =      -3.5585262631143557 [Eh]
	 SCS Total Energy          =    -889.9316660993213191 [Eh]
	-----------------------------------------------------------

  Dipole Moment: [D]
     X:     1.7239      Y:    -5.9472      Z:    -1.8454     Total:     6.4612

*** Psi4 exiting successfully. Buy a developer a beer!
