                               Psi4 1.3.2 release

  ==> Input File <==

--------------------------------------------------------------------------
#psi4
#
memory 32 gb

molecule  {
0 1
  O       -1.2481010    -0.6526680     1.0325150
  O       -1.2449750     2.4828510    -0.6861630
  O       -3.2165300     1.5210990     0.7448870
  O       -2.3570290    -3.0668370     0.0949400
  O        1.3605300     2.2470340    -0.0765420
  N        0.8434040     0.0452230     0.2559430
  N        3.0572260     0.7205030    -0.2937270
  N        4.7164630    -0.8366550    -0.5722980
  C       -1.2881119     1.0668412    -0.5986834
  C       -2.7151710     0.6552070    -0.2573930
  C       -0.5254080     0.4815200     0.6000940
  C       -2.5292560    -0.7168860     0.3610560
  C       -2.5283440    -1.8503930    -0.6392900
  C        1.2197750    -1.2614080     0.3112740
  C        1.7555940     1.0674350    -0.0594030
  C        2.5111010    -1.6091400     0.0469950
  C        3.4119830    -0.5506530    -0.2589250
  H       -0.9376060     0.5914040    -1.5148910
  H       -3.3625820     0.6426650    -1.1464650
  H       -0.4354985     1.2155162     1.4092945
  H       -3.2819570    -0.9087340     1.1307830
  H       -1.7133080    -1.7003050    -1.3694640
  H       -3.4855610    -1.8340040    -1.1841350
  H       -0.2975250     2.7131790    -0.5250000
  H       -2.8475560     2.3997430     0.5086630
  H        0.4343110    -1.9634370     0.5690680
  H       -2.4338740    -3.7984320    -0.5432330
  H        2.8291120    -2.6453980     0.0739220
  H        5.1251800    -1.6708610    -0.1624140
  H        5.3198140    -0.0200540    -0.5682940
units angstrom
no_reorient  #important for SAPT in psi4, default
symmetry c1  #important for SAPT in psi4, default
}

set PROPERTIES_ORIGIN ["COM"]
properties('MP2/aug-cc-pvtz', properties = ['dipole'])
--------------------------------------------------------------------------

    Molecular point group: c1
  Charge       = 0
  Multiplicity = 1
  Basis Set: AUG-CC-PVTZ
    Blend: AUG-CC-PVTZ
  Basis Set: (AUG-CC-PVTZ AUX)
    Blend: AUG-CC-PVTZ-JKFIT

    Orbital Energies [Eh]
    ---------------------

    Doubly Occupied:

       1A    -20.582373     2A    -20.581490     3A    -20.558027
       4A    -20.556177     5A    -20.521799     6A    -15.636759
       7A    -15.599843     8A    -15.553313     9A    -11.388152
      10A    -11.357838    11A    -11.341856    12A    -11.328517
      13A    -11.301370    14A    -11.296923    15A    -11.296429
      16A    -11.293248    17A    -11.248562    18A     -1.429244
      19A     -1.396306    20A     -1.378582    21A     -1.372234
      22A     -1.344104    23A     -1.305987    24A     -1.273810
      25A     -1.182233    26A     -1.082029    27A     -1.068333
      28A     -1.021668    29A     -0.935566    30A     -0.909516
      31A     -0.877315    32A     -0.832824    33A     -0.811904
      34A     -0.767020    35A     -0.752160    36A     -0.735574
      37A     -0.720396    38A     -0.702664    39A     -0.698675
      40A     -0.685580    41A     -0.672693    42A     -0.654679
      43A     -0.651352    44A     -0.638517    45A     -0.620384
      46A     -0.613777    47A     -0.606770    48A     -0.593240
      49A     -0.575579    50A     -0.569710    51A     -0.553210
      52A     -0.545752    53A     -0.536478    54A     -0.531593
      55A     -0.497930    56A     -0.477513    57A     -0.475049
      58A     -0.462127    59A     -0.459927    60A     -0.454222
      61A     -0.441243    62A     -0.433164    63A     -0.395263
      64A     -0.350002

  @DF-RHF Final Energy:  -886.37310480009569

   => Energetics <=

    Nuclear Repulsion Energy =           1323.6524274383143620
    One-Electron Energy =               -3844.9779125007207767
    Two-Electron Energy =                1634.9523802623104984
    Total Energy =                       -886.3731048000956889
  Basis Set: (AUG-CC-PVTZ AUX)
    Blend: AUG-CC-PVTZ-RI
    Molecular point group: c1

    Geometry (in Angstrom), charge = 0, multiplicity = 1:

       Center              X                  Y                   Z               Mass
    ------------   -----------------  -----------------  -----------------  -----------------
         O           -1.248188633533    -0.652069520661     1.032819175555    15.994914619570
         O           -1.245062633533     2.483449479339    -0.685858824445    15.994914619570
         O           -3.216617633533     1.521697479339     0.745191175555    15.994914619570
         O           -2.357116633533    -3.066238520661     0.095244175555    15.994914619570
         O            1.360442366467     2.247632479339    -0.076237824445    15.994914619570
         N            0.843316366467     0.045821479339     0.256247175555    14.003074004430
         N            3.057138366467     0.721101479339    -0.293422824445    14.003074004430
         N            4.716375366467    -0.836056520661    -0.571993824445    14.003074004430
         C           -1.288199533533     1.067439679339    -0.598379224445    12.000000000000
         C           -2.715258633533     0.655805479339    -0.257088824445    12.000000000000
         C           -0.525495633533     0.482118479339     0.600398175555    12.000000000000
         C           -2.529343633533    -0.716287520661     0.361360175555    12.000000000000
         C           -2.528431633533    -1.849794520661    -0.638985824445    12.000000000000
         C            1.219687366467    -1.260809520661     0.311578175555    12.000000000000
         C            1.755506366467     1.068033479339    -0.059098824445    12.000000000000
         C            2.511013366467    -1.608541520661     0.047299175555    12.000000000000
         C            3.411895366467    -0.550054520661    -0.258620824445    12.000000000000
         H           -0.937693633533     0.592002479339    -1.514586824445     1.007825032230
         H           -3.362669633533     0.643263479339    -1.146160824445     1.007825032230
         H           -0.435586133533     1.216114679339     1.409598675555     1.007825032230
         H           -3.282044633533    -0.908135520661     1.131087175555     1.007825032230
         H           -1.713395633533    -1.699706520661    -1.369159824445     1.007825032230
         H           -3.485648633533    -1.833405520661    -1.183830824445     1.007825032230
         H           -0.297612633533     2.713777479339    -0.524695824445     1.007825032230
         H           -2.847643633533     2.400341479339     0.508967175555     1.007825032230
         H            0.434223366467    -1.962838520661     0.569372175555     1.007825032230
         H           -2.433961633533    -3.797833520661    -0.542928824445     1.007825032230
         H            2.829024366467    -2.644799520661     0.074226175555     1.007825032230
         H            5.125092366467    -1.670262520661    -0.162109824445     1.007825032230
         H            5.319726366467    -0.019455520661    -0.567989824445     1.007825032230

  Basis Set: AUG-CC-PVTZ
    Blend: AUG-CC-PVTZ
  Basis Set: (AUG-CC-PVTZ AUX)
    Blend: AUG-CC-PVTZ-JKFIT
	 Reference Energy          =    -886.3731048000956889 [Eh]
	 Singles Energy            =      -0.0000000000000000 [Eh]
	 Same-Spin Energy          =      -0.9012479609531835 [Eh]
	 Opposite-Spin Energy      =      -2.7151176443782208 [Eh]
	 Correlation Energy        =      -3.6163656053314042 [Eh]
	 Total Energy              =    -889.9894704054271415 [Eh]

	 ================> DF-SCS-MP2 Energies <==================
	-----------------------------------------------------------
	 SCS Same-Spin Scale       =       0.3333333333333333 [-]
	 SCS Opposite-Spin Scale   =       1.2000000000000000 [-]
	 SCS Same-Spin Energy      =      -0.3004159869843945 [Eh]
	 SCS Opposite-Spin Energy  =      -3.2581411732538648 [Eh]
	 SCS Correlation Energy    =      -3.5585571602382591 [Eh]
	 SCS Total Energy          =    -889.9316619603339404 [Eh]
	-----------------------------------------------------------

  Dipole Moment: [D]
     X:     1.7052      Y:    -5.9813      Z:    -1.8249     Total:     6.4818

*** Psi4 exiting successfully. Buy a developer a beer!
