                               Psi4 1.3.2 release

  ==> Input File <==

--------------------------------------------------------------------------
#psi4
#
memory 32 gb

molecule  {
0 1
  O       -1.2481010    -0.6526680     1.0325150
  O       -1.2449750     2.4828510    -0.6861630
  O       -3.2165300     1.5210990     0.7448870
  O       -2.3570290    -3.0668370     0.0949400
  O        1.3605300     2.2470340    -0.0765420
  N        0.8434040     0.0452230     0.2559430
  N        3.0572260     0.7205030    -0.2937270
  N        4.7164630    -0.8366550    -0.5722980
  C       -1.2894840     1.0784300    -0.5920770
  C       -2.7093009     0.6647444    -0.2626201
  C       -0.5254080     0.4815200     0.6000940
  C       -2.5292560    -0.7168860     0.3610560
  C       -2.5283440    -1.8503930    -0.6392900
  C        1.2197750    -1.2614080     0.3112740
  C        1.7555940     1.0674350    -0.0594030
  C        2.5111010    -1.6091400     0.0469950
  C        3.4119830    -0.5506530    -0.2589250
  H       -0.9376060     0.5914040    -1.5148910
  H       -3.3625820     0.6426650    -1.1464650
  H       -0.4402900     1.2218800     1.4039980
  H       -3.2819570    -0.9087340     1.1307830
  H       -1.7133080    -1.7003050    -1.3694640
  H       -3.4855610    -1.8340040    -1.1841350
  H       -0.2975250     2.7131790    -0.5250000
  H       -2.8436330     2.3962359     0.5019014
  H        0.4343110    -1.9634370     0.5690680
  H       -2.4338740    -3.7984320    -0.5432330
  H        2.8291120    -2.6453980     0.0739220
  H        5.1251800    -1.6708610    -0.1624140
  H        5.3198140    -0.0200540    -0.5682940
units angstrom
no_reorient  #important for SAPT in psi4, default
symmetry c1  #important for SAPT in psi4, default
}

set PROPERTIES_ORIGIN ["COM"]
properties('MP2/aug-cc-pvtz', properties = ['dipole'])
--------------------------------------------------------------------------

    Molecular point group: c1
  Charge       = 0
  Multiplicity = 1
  Basis Set: AUG-CC-PVTZ
    Blend: AUG-CC-PVTZ
  Basis Set: (AUG-CC-PVTZ AUX)
    Blend: AUG-CC-PVTZ-JKFIT

    Orbital Energies [Eh]
    ---------------------

    Doubly Occupied:

       1A    -20.582100     2A    -20.581500     3A    -20.558139
       4A    -20.557493     5A    -20.522128     6A    -15.637051
       7A    -15.599933     8A    -15.553441     9A    -11.388385
      10A    -11.357955    11A    -11.341779    12A    -11.328617
      13A    -11.300905    14A    -11.297029    15A    -11.296526
      16A    -11.292796    17A    -11.248650    18A     -1.429367
      19A     -1.396446    20A     -1.380702    21A     -1.372823
      22A     -1.346676    23A     -1.306164    24A     -1.273884
      25A     -1.182338    26A     -1.082098    27A     -1.066858
      28A     -1.022104    29A     -0.935645    30A     -0.909477
      31A     -0.876878    32A     -0.832120    33A     -0.811917
      34A     -0.767048    35A     -0.752574    36A     -0.736874
      37A     -0.720238    38A     -0.702605    39A     -0.698237
      40A     -0.685699    41A     -0.672352    42A     -0.654639
      43A     -0.651728    44A     -0.638537    45A     -0.620800
      46A     -0.614448    47A     -0.606639    48A     -0.593973
      49A     -0.576229    50A     -0.569866    51A     -0.553496
      52A     -0.545668    53A     -0.537884    54A     -0.531856
      55A     -0.498253    56A     -0.477459    57A     -0.474452
      58A     -0.462308    59A     -0.460101    60A     -0.453290
      61A     -0.440925    62A     -0.433203    63A     -0.395335
      64A     -0.350164

  @DF-RHF Final Energy:  -886.37314695484417

   => Energetics <=

    Nuclear Repulsion Energy =           1323.7701752550008223
    One-Electron Energy =               -3845.1930254161125049
    Two-Electron Energy =                1635.0497032062671678
    Total Energy =                       -886.3731469548442874
  Basis Set: (AUG-CC-PVTZ AUX)
    Blend: AUG-CC-PVTZ-RI
    Molecular point group: c1

    Geometry (in Angstrom), charge = 0, multiplicity = 1:

       Center              X                  Y                   Z               Mass
    ------------   -----------------  -----------------  -----------------  -----------------
         O           -1.248407078070    -0.653124266552     1.032801078447    15.994914619570
         O           -1.245281078070     2.482394733448    -0.685876921553    15.994914619570
         O           -3.216836078070     1.520642733448     0.745173078447    15.994914619570
         O           -2.357335078070    -3.067293266552     0.095226078447    15.994914619570
         O            1.360223921930     2.246577733448    -0.076255921553    15.994914619570
         N            0.843097921930     0.044766733448     0.256229078447    14.003074004430
         N            3.056919921930     0.720046733448    -0.293440921553    14.003074004430
         N            4.716156921930    -0.837111266552    -0.572011921553    14.003074004430
         C           -1.289790078070     1.077973733448    -0.591790921553    12.000000000000
         C           -2.709606978070     0.664288133448    -0.262334021553    12.000000000000
         C           -0.525714078070     0.481063733448     0.600380078447    12.000000000000
         C           -2.529562078070    -0.717342266552     0.361342078447    12.000000000000
         C           -2.528650078070    -1.850849266552    -0.639003921553    12.000000000000
         C            1.219468921930    -1.261864266552     0.311560078447    12.000000000000
         C            1.755287921930     1.066978733448    -0.059116921553    12.000000000000
         C            2.510794921930    -1.609596266552     0.047281078447    12.000000000000
         C            3.411676921930    -0.551109266552    -0.258638921553    12.000000000000
         H           -0.937912078070     0.590947733448    -1.514604921553     1.007825032230
         H           -3.362888078070     0.642208733448    -1.146178921553     1.007825032230
         H           -0.440596078070     1.221423733448     1.404284078447     1.007825032230
         H           -3.282263078070    -0.909190266552     1.131069078447     1.007825032230
         H           -1.713614078070    -1.700761266552    -1.369177921553     1.007825032230
         H           -3.485867078070    -1.834460266552    -1.183848921553     1.007825032230
         H           -0.297831078070     2.712722733448    -0.524713921553     1.007825032230
         H           -2.843939078070     2.395779633448     0.502187478447     1.007825032230
         H            0.434004921930    -1.963893266552     0.569354078447     1.007825032230
         H           -2.434180078070    -3.798888266552    -0.542946921553     1.007825032230
         H            2.828805921930    -2.645854266552     0.074208078447     1.007825032230
         H            5.124873921930    -1.671317266552    -0.162127921553     1.007825032230
         H            5.319507921930    -0.020510266552    -0.568007921553     1.007825032230

  Basis Set: AUG-CC-PVTZ
    Blend: AUG-CC-PVTZ
  Basis Set: (AUG-CC-PVTZ AUX)
    Blend: AUG-CC-PVTZ-JKFIT
	 Reference Energy          =    -886.3731469548441737 [Eh]
	 Singles Energy            =      -0.0000000000000000 [Eh]
	 Same-Spin Energy          =      -0.9012724589366297 [Eh]
	 Opposite-Spin Energy      =      -2.7150294237705204 [Eh]
	 Correlation Energy        =      -3.6163018827071500 [Eh]
	 Total Energy              =    -889.9894488375513220 [Eh]

	 ================> DF-SCS-MP2 Energies <==================
	-----------------------------------------------------------
	 SCS Same-Spin Scale       =       0.3333333333333333 [-]
	 SCS Opposite-Spin Scale   =       1.2000000000000000 [-]
	 SCS Same-Spin Energy      =      -0.3004241529788765 [Eh]
	 SCS Opposite-Spin Energy  =      -3.2580353085246245 [Eh]
	 SCS Correlation Energy    =      -3.5584594615035012 [Eh]
	 SCS Total Energy          =    -889.9316064163476767 [Eh]
	-----------------------------------------------------------

  Dipole Moment: [D]
     X:     1.7282      Y:    -5.9492      Z:    -1.8305     Total:     6.4599

*** Psi4 exiting successfully. Buy a developer a beer!
