                               Psi4 1.3.2 release

  ==> Input File <==

--------------------------------------------------------------------------
#psi4
#
memory 32 gb

molecule  {
0 1
  O       -1.2481010    -0.6526680     1.0325150
  O       -1.2449750     2.4828510    -0.6861630
  O       -3.2165300     1.5210990     0.7448870
  O       -2.3570290    -3.0668370     0.0949400
  O        1.3605300     2.2470340    -0.0765420
  N        0.8434040     0.0452230     0.2559430
  N        3.0572260     0.7205030    -0.2937270
  N        4.7164630    -0.8366550    -0.5722980
  C       -1.3377395     1.0802037    -0.6012705
  C       -2.7151710     0.6552070    -0.2573930
  C       -0.5254080     0.4815200     0.6000940
  C       -2.5292560    -0.7168860     0.3610560
  C       -2.5283440    -1.8503930    -0.6392900
  C        1.2197750    -1.2614080     0.3112740
  C        1.7555940     1.0674350    -0.0594030
  C        2.5111010    -1.6091400     0.0469950
  C        3.4119830    -0.5506530    -0.2589250
  H       -0.9376060     0.5914040    -1.5148910
  H       -3.3625820     0.6426650    -1.1464650
  H       -0.4402900     1.2218800     1.4039980
  H       -3.2819570    -0.9087340     1.1307830
  H       -1.7133080    -1.7003050    -1.3694640
  H       -3.4855610    -1.8340040    -1.1841350
  H       -0.3055799     2.7464884    -0.5289428
  H       -2.8475560     2.3997430     0.5086630
  H        0.4343110    -1.9634370     0.5690680
  H       -2.4338740    -3.7984320    -0.5432330
  H        2.8291120    -2.6453980     0.0739220
  H        5.1251800    -1.6708610    -0.1624140
  H        5.3198140    -0.0200540    -0.5682940
units angstrom
no_reorient  #important for SAPT in psi4, default
symmetry c1  #important for SAPT in psi4, default
}

set PROPERTIES_ORIGIN ["COM"]
properties('MP2/aug-cc-pvtz', properties = ['dipole'])
--------------------------------------------------------------------------

    Molecular point group: c1
  Charge       = 0
  Multiplicity = 1
  Basis Set: AUG-CC-PVTZ
    Blend: AUG-CC-PVTZ
  Basis Set: (AUG-CC-PVTZ AUX)
    Blend: AUG-CC-PVTZ-JKFIT

    Orbital Energies [Eh]
    ---------------------

    Doubly Occupied:

       1A    -20.582410     2A    -20.580673     3A    -20.558407
       4A    -20.556039     5A    -20.520584     6A    -15.636749
       7A    -15.599482     8A    -15.552733     9A    -11.387357
      10A    -11.357376    11A    -11.341134    12A    -11.328152
      13A    -11.301438    14A    -11.298240    15A    -11.297904
      16A    -11.292149    17A    -11.248179    18A     -1.428477
      19A     -1.395379    20A     -1.380461    21A     -1.372697
      22A     -1.345385    23A     -1.305274    24A     -1.273131
      25A     -1.181600    26A     -1.080599    27A     -1.072036
      28A     -1.020512    29A     -0.936476    30A     -0.908942
      31A     -0.876675    32A     -0.833531    33A     -0.810525
      34A     -0.766423    35A     -0.752312    36A     -0.736523
      37A     -0.719874    38A     -0.703343    39A     -0.699552
      40A     -0.685024    41A     -0.674202    42A     -0.654078
      43A     -0.651790    44A     -0.636724    45A     -0.620961
      46A     -0.614844    47A     -0.606305    48A     -0.592310
      49A     -0.577725    50A     -0.569592    51A     -0.551513
      52A     -0.545274    53A     -0.534608    54A     -0.531594
      55A     -0.498461    56A     -0.479981    57A     -0.476472
      58A     -0.462635    59A     -0.458990    60A     -0.452578
      61A     -0.437778    62A     -0.431946    63A     -0.394132
      64A     -0.349106

  @DF-RHF Final Energy:  -886.37137957376729

   => Energetics <=

    Nuclear Repulsion Energy =           1323.2941627460743348
    One-Electron Energy =               -3844.2763741415260483
    Two-Electron Energy =                1634.6108318216840871
    Total Energy =                       -886.3713795737673991
  Basis Set: (AUG-CC-PVTZ AUX)
    Blend: AUG-CC-PVTZ-RI
    Molecular point group: c1

    Geometry (in Angstrom), charge = 0, multiplicity = 1:

       Center              X                  Y                   Z               Mass
    ------------   -----------------  -----------------  -----------------  -----------------
         O           -1.245685489281    -0.652893648909     1.032985194484    15.994914619570
         O           -1.242559489281     2.482625351091    -0.685692805516    15.994914619570
         O           -3.214114489281     1.520873351091     0.745357194484    15.994914619570
         O           -2.354613489281    -3.067062648909     0.095410194484    15.994914619570
         O            1.362945510719     2.246808351091    -0.076071805516    15.994914619570
         N            0.845819510719     0.044997351091     0.256413194484    14.003074004430
         N            3.059641510719     0.720277351091    -0.293256805516    14.003074004430
         N            4.718878510719    -0.836880648909    -0.571827805516    14.003074004430
         C           -1.335323989281     1.079978051091    -0.600800305516    12.000000000000
         C           -2.712755489281     0.654981351091    -0.256922805516    12.000000000000
         C           -0.522992489281     0.481294351091     0.600564194484    12.000000000000
         C           -2.526840489281    -0.717111648909     0.361526194484    12.000000000000
         C           -2.525928489281    -1.850618648909    -0.638819805516    12.000000000000
         C            1.222190510719    -1.261633648909     0.311744194484    12.000000000000
         C            1.758009510719     1.067209351091    -0.058932805516    12.000000000000
         C            2.513516510719    -1.609365648909     0.047465194484    12.000000000000
         C            3.414398510719    -0.550878648909    -0.258454805516    12.000000000000
         H           -0.935190489281     0.591178351091    -1.514420805516     1.007825032230
         H           -3.360166489281     0.642439351091    -1.145994805516     1.007825032230
         H           -0.437874489281     1.221654351091     1.404468194484     1.007825032230
         H           -3.279541489281    -0.908959648909     1.131253194484     1.007825032230
         H           -1.710892489281    -1.700530648909    -1.368993805516     1.007825032230
         H           -3.483145489281    -1.834229648909    -1.183664805516     1.007825032230
         H           -0.303164389281     2.746262751091    -0.528472605516     1.007825032230
         H           -2.845140489281     2.399517351091     0.509133194484     1.007825032230
         H            0.436726510719    -1.963662648909     0.569538194484     1.007825032230
         H           -2.431458489281    -3.798657648909    -0.542762805516     1.007825032230
         H            2.831527510719    -2.645623648909     0.074392194484     1.007825032230
         H            5.127595510719    -1.671086648909    -0.161943805516     1.007825032230
         H            5.322229510719    -0.020279648909    -0.567823805516     1.007825032230

  Basis Set: AUG-CC-PVTZ
    Blend: AUG-CC-PVTZ
  Basis Set: (AUG-CC-PVTZ AUX)
    Blend: AUG-CC-PVTZ-JKFIT
	 Reference Energy          =    -886.3713795737672854 [Eh]
	 Singles Energy            =      -0.0000000000000000 [Eh]
	 Same-Spin Energy          =      -0.9010948829458898 [Eh]
	 Opposite-Spin Energy      =      -2.7146079420327061 [Eh]
	 Correlation Energy        =      -3.6157028249785959 [Eh]
	 Total Energy              =    -889.9870823987458834 [Eh]

	 ================> DF-SCS-MP2 Energies <==================
	-----------------------------------------------------------
	 SCS Same-Spin Scale       =       0.3333333333333333 [-]
	 SCS Opposite-Spin Scale   =       1.2000000000000000 [-]
	 SCS Same-Spin Energy      =      -0.3003649609819632 [Eh]
	 SCS Opposite-Spin Energy  =      -3.2575295304392471 [Eh]
	 SCS Correlation Energy    =      -3.5578944914212105 [Eh]
	 SCS Total Energy          =    -889.9292740651884515 [Eh]
	-----------------------------------------------------------

  Dipole Moment: [D]
     X:     1.6468      Y:    -5.9141      Z:    -1.8360     Total:     6.4078

*** Psi4 exiting successfully. Buy a developer a beer!
