                               Psi4 1.3.2 release

  ==> Input File <==

--------------------------------------------------------------------------
#psi4
#
memory 32 gb

molecule  {
0 1
  O       -1.2481010    -0.6526680     1.0325150
  O       -1.2449750     2.4828510    -0.6861630
  O       -3.2165300     1.5210990     0.7448870
  O       -2.3570290    -3.0668370     0.0949400
  O        1.3605300     2.2470340    -0.0765420
  N        0.8434040     0.0452230     0.2559430
  N        3.0572260     0.7205030    -0.2937270
  N        4.7164630    -0.8366550    -0.5722980
  C       -1.2894840     1.0784300    -0.5920770
  C       -2.7151710     0.6552070    -0.2573930
  C       -0.5254080     0.4815200     0.6000940
  C       -2.5292560    -0.7168860     0.3610560
  C       -2.5283440    -1.8503930    -0.6392900
  C        1.2225514    -1.2499732     0.3095267
  C        1.7555940     1.0674350    -0.0594030
  C        2.5111010    -1.6091400     0.0469950
  C        3.4119830    -0.5506530    -0.2589250
  H       -0.9376060     0.5914040    -1.5148910
  H       -3.3625820     0.6426650    -1.1464650
  H       -0.4402900     1.2218800     1.4039980
  H       -3.2819570    -0.9087340     1.1307830
  H       -1.7133080    -1.7003050    -1.3694640
  H       -3.4855610    -1.8340040    -1.1841350
  H       -0.2975250     2.7131790    -0.5250000
  H       -2.8475560     2.3997430     0.5086630
  H        0.4343110    -1.9634370     0.5690680
  H       -2.4338740    -3.7984320    -0.5432330
  H        2.8378945    -2.6427190     0.0716364
  H        5.1251800    -1.6708610    -0.1624140
  H        5.3198140    -0.0200540    -0.5682940
units angstrom
no_reorient  #important for SAPT in psi4, default
symmetry c1  #important for SAPT in psi4, default
}

set PROPERTIES_ORIGIN ["COM"]
properties('MP2/aug-cc-pvtz', properties = ['dipole'])
--------------------------------------------------------------------------

    Molecular point group: c1
  Charge       = 0
  Multiplicity = 1
  Basis Set: AUG-CC-PVTZ
    Blend: AUG-CC-PVTZ
  Basis Set: (AUG-CC-PVTZ AUX)
    Blend: AUG-CC-PVTZ-JKFIT

    Orbital Energies [Eh]
    ---------------------

    Doubly Occupied:

       1A    -20.582288     2A    -20.581947     3A    -20.558064
       4A    -20.557591     5A    -20.522238     6A    -15.637780
       7A    -15.599345     8A    -15.552963     9A    -11.388414
      10A    -11.357002    11A    -11.342323    12A    -11.328246
      13A    -11.301305    14A    -11.297178    15A    -11.297132
      16A    -11.293281    17A    -11.247564    18A     -1.430016
      19A     -1.396971    20A     -1.380417    21A     -1.372969
      22A     -1.346619    23A     -1.306998    24A     -1.275363
      25A     -1.182193    26A     -1.081661    27A     -1.068013
      28A     -1.021929    29A     -0.935943    30A     -0.909584
      31A     -0.877473    32A     -0.832766    33A     -0.812038
      34A     -0.767422    35A     -0.753013    36A     -0.736762
      37A     -0.719649    38A     -0.702997    39A     -0.698728
      40A     -0.684736    41A     -0.673049    42A     -0.655014
      43A     -0.651878    44A     -0.638995    45A     -0.619894
      46A     -0.614066    47A     -0.605761    48A     -0.595256
      49A     -0.575614    50A     -0.569838    51A     -0.554213
      52A     -0.545978    53A     -0.537784    54A     -0.531940
      55A     -0.499213    56A     -0.477719    57A     -0.474772
      58A     -0.462445    59A     -0.460116    60A     -0.453156
      61A     -0.440807    62A     -0.432979    63A     -0.395273
      64A     -0.349435

  @DF-RHF Final Energy:  -886.37351720134859

   => Energetics <=

    Nuclear Repulsion Energy =           1323.9516119579318456
    One-Electron Energy =               -3845.5420349788573731
    Two-Electron Energy =                1635.2169058195765956
    Total Energy =                       -886.3735172013487045
  Basis Set: (AUG-CC-PVTZ AUX)
    Blend: AUG-CC-PVTZ-RI
    Molecular point group: c1

    Geometry (in Angstrom), charge = 0, multiplicity = 1:

       Center              X                  Y                   Z               Mass
    ------------   -----------------  -----------------  -----------------  -----------------
         O           -1.248274503846    -0.653243579732     1.032610739571    15.994914619570
         O           -1.245148503846     2.482275420268    -0.686067260429    15.994914619570
         O           -3.216703503846     1.520523420268     0.744982739571    15.994914619570
         O           -2.357202503846    -3.067412579732     0.095035739571    15.994914619570
         O            1.360356496154     2.246458420268    -0.076446260429    15.994914619570
         N            0.843230496154     0.044647420268     0.256038739571    14.003074004430
         N            3.057052496154     0.719927420268    -0.293631260429    14.003074004430
         N            4.716289496154    -0.837230579732    -0.572202260429    14.003074004430
         C           -1.289657503846     1.077854420268    -0.591981260429    12.000000000000
         C           -2.715344503846     0.654631420268    -0.257297260429    12.000000000000
         C           -0.525581503846     0.480944420268     0.600189739571    12.000000000000
         C           -2.529429503846    -0.717461579732     0.361151739571    12.000000000000
         C           -2.528517503846    -1.850968579732    -0.639194260429    12.000000000000
         C            1.222377896154    -1.250548779732     0.309622439571    12.000000000000
         C            1.755420496154     1.066859420268    -0.059307260429    12.000000000000
         C            2.510927496154    -1.609715579732     0.047090739571    12.000000000000
         C            3.411809496154    -0.551228579732    -0.258829260429    12.000000000000
         H           -0.937779503846     0.590828420268    -1.514795260429     1.007825032230
         H           -3.362755503846     0.642089420268    -1.146369260429     1.007825032230
         H           -0.440463503846     1.221304420268     1.404093739571     1.007825032230
         H           -3.282130503846    -0.909309579732     1.130878739571     1.007825032230
         H           -1.713481503846    -1.700880579732    -1.369368260429     1.007825032230
         H           -3.485734503846    -1.834579579732    -1.184039260429     1.007825032230
         H           -0.297698503846     2.712603420268    -0.524904260429     1.007825032230
         H           -2.847729503846     2.399167420268     0.508758739571     1.007825032230
         H            0.434137496154    -1.964012579732     0.569163739571     1.007825032230
         H           -2.434047503846    -3.799007579732    -0.543137260429     1.007825032230
         H            2.837720996154    -2.643294579732     0.071732139571     1.007825032230
         H            5.125006496154    -1.671436579732    -0.162318260429     1.007825032230
         H            5.319640496154    -0.020629579732    -0.568198260429     1.007825032230

  Basis Set: AUG-CC-PVTZ
    Blend: AUG-CC-PVTZ
  Basis Set: (AUG-CC-PVTZ AUX)
    Blend: AUG-CC-PVTZ-JKFIT
	 Reference Energy          =    -886.3735172013485908 [Eh]
	 Singles Energy            =      -0.0000000000000000 [Eh]
	 Same-Spin Energy          =      -0.9012711546197406 [Eh]
	 Opposite-Spin Energy      =      -2.7147939561282799 [Eh]
	 Correlation Energy        =      -3.6160651107480204 [Eh]
	 Total Energy              =    -889.9895823120965588 [Eh]

	 ================> DF-SCS-MP2 Energies <==================
	-----------------------------------------------------------
	 SCS Same-Spin Scale       =       0.3333333333333333 [-]
	 SCS Opposite-Spin Scale   =       1.2000000000000000 [-]
	 SCS Same-Spin Energy      =      -0.3004237182065802 [Eh]
	 SCS Opposite-Spin Energy  =      -3.2577527473539356 [Eh]
	 SCS Correlation Energy    =      -3.5581764655605159 [Eh]
	 SCS Total Energy          =    -889.9316936669091547 [Eh]
	-----------------------------------------------------------

  Dipole Moment: [D]
     X:     1.6718      Y:    -5.9265      Z:    -1.8200     Total:     6.4211

*** Psi4 exiting successfully. Buy a developer a beer!
