                               Psi4 1.3.2 release

  ==> Input File <==

--------------------------------------------------------------------------
#psi4
#
memory 32 gb

molecule  {
0 1
  O       -1.1873549    -0.6932966     1.0211495
  O       -1.2449750     2.4828510    -0.6861630
  O       -3.2165300     1.5210990     0.7448870
  O       -2.3570290    -3.0668370     0.0949400
  O        1.3605300     2.2470340    -0.0765420
  N        0.8231597    -0.0268276     0.2754570
  N        3.0572260     0.7205030    -0.2937270
  N        4.7164630    -0.8366550    -0.5722980
  C       -1.2894840     1.0784300    -0.5920770
  C       -2.7151710     0.6552070    -0.2573930
  C       -0.5254080     0.4815200     0.6000940
  C       -2.5292560    -0.7168860     0.3610560
  C       -2.5283440    -1.8503930    -0.6392900
  C        1.2197750    -1.2614080     0.3112740
  C        1.7555940     1.0674350    -0.0594030
  C        2.5111010    -1.6091400     0.0469950
  C        3.4119830    -0.5506530    -0.2589250
  H       -0.9376060     0.5914040    -1.5148910
  H       -3.3625820     0.6426650    -1.1464650
  H       -0.4402900     1.2218800     1.4039980
  H       -3.2819570    -0.9087340     1.1307830
  H       -1.7133080    -1.7003050    -1.3694640
  H       -3.4855610    -1.8340040    -1.1841350
  H       -0.2975250     2.7131790    -0.5250000
  H       -2.8475560     2.3997430     0.5086630
  H        0.4343110    -1.9634370     0.5690680
  H       -2.4338740    -3.7984320    -0.5432330
  H        2.8291120    -2.6453980     0.0739220
  H        5.1251800    -1.6708610    -0.1624140
  H        5.3198140    -0.0200540    -0.5682940
units angstrom
no_reorient  #important for SAPT in psi4, default
symmetry c1  #important for SAPT in psi4, default
}

set PROPERTIES_ORIGIN ["COM"]
properties('MP2/aug-cc-pvtz', properties = ['dipole'])
--------------------------------------------------------------------------

    Molecular point group: c1
  Charge       = 0
  Multiplicity = 1
  Basis Set: AUG-CC-PVTZ
    Blend: AUG-CC-PVTZ
  Basis Set: (AUG-CC-PVTZ AUX)
    Blend: AUG-CC-PVTZ-JKFIT

    Orbital Energies [Eh]
    ---------------------

    Doubly Occupied:

       1A    -20.582622     2A    -20.581402     3A    -20.561243
       4A    -20.561048     5A    -20.531424     6A    -15.636109
       7A    -15.595939     8A    -15.551301     9A    -11.395297
      10A    -11.353554    11A    -11.343298    12A    -11.318456
      13A    -11.303128    14A    -11.301970    15A    -11.300869
      16A    -11.297933    17A    -11.237057    18A     -1.425547
      19A     -1.393404    20A     -1.382834    21A     -1.373248
      22A     -1.349907    23A     -1.309056    24A     -1.275594
      25A     -1.180606    26A     -1.076768    27A     -1.072625
      28A     -1.018170    29A     -0.937272    30A     -0.899788
      31A     -0.877632    32A     -0.833816    33A     -0.812108
      34A     -0.762881    35A     -0.754814    36A     -0.738959
      37A     -0.717710    38A     -0.703221    39A     -0.699169
      40A     -0.682306    41A     -0.671766    42A     -0.654220
      43A     -0.649999    44A     -0.636167    45A     -0.620053
      46A     -0.609575    47A     -0.603701    48A     -0.598403
      49A     -0.575440    50A     -0.567932    51A     -0.556704
      52A     -0.546614    53A     -0.536738    54A     -0.529881
      55A     -0.508341    56A     -0.482743    57A     -0.477273
      58A     -0.467923    59A     -0.462615    60A     -0.456483
      61A     -0.441606    62A     -0.428150    63A     -0.395022
      64A     -0.341206

  @DF-RHF Final Energy:  -886.35951235675930

   => Energetics <=

    Nuclear Repulsion Energy =           1323.2597167170765715
    One-Electron Energy =               -3844.1411705171763060
    Two-Electron Energy =                1634.5219414433404381
    Total Energy =                       -886.3595123567592964
  Basis Set: (AUG-CC-PVTZ AUX)
    Blend: AUG-CC-PVTZ-RI
    Molecular point group: c1

    Geometry (in Angstrom), charge = 0, multiplicity = 1:

       Center              X                  Y                   Z               Mass
    ------------   -----------------  -----------------  -----------------  -----------------
         O           -1.190185815226    -0.686472732692     1.020773237500    15.994914619570
         O           -1.247805915226     2.489674867308    -0.686539262500    15.994914619570
         O           -3.219360915226     1.527922867308     0.744510737500    15.994914619570
         O           -2.359859915226    -3.060013132692     0.094563737500    15.994914619570
         O            1.357699084774     2.253857867308    -0.076918262500    15.994914619570
         N            0.820328784774    -0.020003732692     0.275080737500    14.003074004430
         N            3.054395084774     0.727326867308    -0.294103262500    14.003074004430
         N            4.713632084774    -0.829831132692    -0.572674262500    14.003074004430
         C           -1.292314915226     1.085253867308    -0.592453262500    12.000000000000
         C           -2.718001915226     0.662030867308    -0.257769262500    12.000000000000
         C           -0.528238915226     0.488343867308     0.599717737500    12.000000000000
         C           -2.532086915226    -0.710062132692     0.360679737500    12.000000000000
         C           -2.531174915226    -1.843569132692    -0.639666262500    12.000000000000
         C            1.216944084774    -1.254584132692     0.310897737500    12.000000000000
         C            1.752763084774     1.074258867308    -0.059779262500    12.000000000000
         C            2.508270084774    -1.602316132692     0.046618737500    12.000000000000
         C            3.409152084774    -0.543829132692    -0.259301262500    12.000000000000
         H           -0.940436915226     0.598227867308    -1.515267262500     1.007825032230
         H           -3.365412915226     0.649488867308    -1.146841262500     1.007825032230
         H           -0.443120915226     1.228703867308     1.403621737500     1.007825032230
         H           -3.284787915226    -0.901910132692     1.130406737500     1.007825032230
         H           -1.716138915226    -1.693481132692    -1.369840262500     1.007825032230
         H           -3.488391915226    -1.827180132692    -1.184511262500     1.007825032230
         H           -0.300355915226     2.720002867308    -0.525376262500     1.007825032230
         H           -2.850386915226     2.406566867308     0.508286737500     1.007825032230
         H            0.431480084774    -1.956613132692     0.568691737500     1.007825032230
         H           -2.436704915226    -3.791608132692    -0.543609262500     1.007825032230
         H            2.826281084774    -2.638574132692     0.073545737500     1.007825032230
         H            5.122349084774    -1.664037132692    -0.162790262500     1.007825032230
         H            5.316983084774    -0.013230132692    -0.568670262500     1.007825032230

  Basis Set: AUG-CC-PVTZ
    Blend: AUG-CC-PVTZ
  Basis Set: (AUG-CC-PVTZ AUX)
    Blend: AUG-CC-PVTZ-JKFIT
	 Reference Energy          =    -886.3595123567592964 [Eh]
	 Singles Energy            =      -0.0000000000000000 [Eh]
	 Same-Spin Energy          =      -0.9025431944295675 [Eh]
	 Opposite-Spin Energy      =      -2.7173577929223991 [Eh]
	 Correlation Energy        =      -3.6199009873519667 [Eh]
	 Total Energy              =    -889.9794133441112081 [Eh]

	 ================> DF-SCS-MP2 Energies <==================
	-----------------------------------------------------------
	 SCS Same-Spin Scale       =       0.3333333333333333 [-]
	 SCS Opposite-Spin Scale   =       1.2000000000000000 [-]
	 SCS Same-Spin Energy      =      -0.3008477314765225 [Eh]
	 SCS Opposite-Spin Energy  =      -3.2608293515068789 [Eh]
	 SCS Correlation Energy    =      -3.5616770829834015 [Eh]
	 SCS Total Energy          =    -889.9211894397426477 [Eh]
	-----------------------------------------------------------

  Dipole Moment: [D]
     X:     1.2609      Y:    -5.5198      Z:    -1.8452     Total:     5.9551

*** Psi4 exiting successfully. Buy a developer a beer!
