                               Psi4 1.3.2 release

  ==> Input File <==

--------------------------------------------------------------------------
#psi4
#
memory 32 gb

molecule  {
0 1
  O       -1.2481010    -0.6526680     1.0325150
  O       -1.2449750     2.4828510    -0.6861630
  O       -3.2163346     1.5117587     0.7529778
  O       -2.3570290    -3.0668370     0.0949400
  O        1.3605300     2.2470340    -0.0765420
  N        0.8434040     0.0452230     0.2559430
  N        3.0572260     0.7205030    -0.2937270
  N        4.7164630    -0.8366550    -0.5722980
  C       -1.2894840     1.0784300    -0.5920770
  C       -2.7151710     0.6552070    -0.2573930
  C       -0.5254080     0.4815200     0.6000940
  C       -2.5336620    -0.7122053     0.3726235
  C       -2.5283440    -1.8503930    -0.6392900
  C        1.2197750    -1.2614080     0.3112740
  C        1.7555940     1.0674350    -0.0594030
  C        2.5111010    -1.6091400     0.0469950
  C        3.4119830    -0.5506530    -0.2589250
  H       -0.9376060     0.5914040    -1.5148910
  H       -3.3625820     0.6426650    -1.1464650
  H       -0.4402900     1.2218800     1.4039980
  H       -3.2819570    -0.9087340     1.1307830
  H       -1.7133080    -1.7003050    -1.3694640
  H       -3.4855610    -1.8340040    -1.1841350
  H       -0.2975250     2.7131790    -0.5250000
  H       -2.8475560     2.3997430     0.5086630
  H        0.4343110    -1.9634370     0.5690680
  H       -2.4338740    -3.7984320    -0.5432330
  H        2.8291120    -2.6453980     0.0739220
  H        5.1251800    -1.6708610    -0.1624140
  H        5.3198140    -0.0200540    -0.5682940
units angstrom
no_reorient  #important for SAPT in psi4, default
symmetry c1  #important for SAPT in psi4, default
}

set PROPERTIES_ORIGIN ["COM"]
properties('MP2/aug-cc-pvtz', properties = ['dipole'])
--------------------------------------------------------------------------

    Molecular point group: c1
  Charge       = 0
  Multiplicity = 1
  Basis Set: AUG-CC-PVTZ
    Blend: AUG-CC-PVTZ
  Basis Set: (AUG-CC-PVTZ AUX)
    Blend: AUG-CC-PVTZ-JKFIT

    Orbital Energies [Eh]
    ---------------------

    Doubly Occupied:

       1A    -20.581674     2A    -20.581517     3A    -20.558646
       4A    -20.557586     5A    -20.522061     6A    -15.637017
       7A    -15.599877     8A    -15.553387     9A    -11.388335
      10A    -11.357891    11A    -11.341672    12A    -11.328544
      13A    -11.300843    14A    -11.296768    15A    -11.296272
      16A    -11.292586    17A    -11.248571    18A     -1.429423
      19A     -1.396411    20A     -1.379413    21A     -1.372297
      22A     -1.345666    23A     -1.306114    24A     -1.273852
      25A     -1.182289    26A     -1.081974    27A     -1.065842
      28A     -1.020918    29A     -0.934330    30A     -0.909464
      31A     -0.877229    32A     -0.832590    33A     -0.812142
      34A     -0.767040    35A     -0.752446    36A     -0.736231
      37A     -0.720105    38A     -0.702101    39A     -0.697700
      40A     -0.685625    41A     -0.671810    42A     -0.654393
      43A     -0.651314    44A     -0.638558    45A     -0.620625
      46A     -0.613976    47A     -0.606303    48A     -0.593838
      49A     -0.575386    50A     -0.571443    51A     -0.553691
      52A     -0.545063    53A     -0.537905    54A     -0.531127
      55A     -0.498331    56A     -0.477353    57A     -0.474938
      58A     -0.461324    59A     -0.460077    60A     -0.452747
      61A     -0.440212    62A     -0.433103    63A     -0.395212
      64A     -0.350040

  @DF-RHF Final Energy:  -886.37255092184569

   => Energetics <=

    Nuclear Repulsion Energy =           1323.6196809872274116
    One-Electron Energy =               -3844.9180344673868603
    Two-Electron Energy =                1634.9258025583139897
    Total Energy =                       -886.3725509218456864
  Basis Set: (AUG-CC-PVTZ AUX)
    Blend: AUG-CC-PVTZ-RI
    Molecular point group: c1

    Geometry (in Angstrom), charge = 0, multiplicity = 1:

       Center              X                  Y                   Z               Mass
    ------------   -----------------  -----------------  -----------------  -----------------
         O           -1.247896387466    -0.652284466808     1.031411602989    15.994914619570
         O           -1.244770387466     2.483234533192    -0.687266397011    15.994914619570
         O           -3.216129987466     1.512142233192     0.751874402989    15.994914619570
         O           -2.356824387466    -3.066453466808     0.093836602989    15.994914619570
         O            1.360734612534     2.247417533192    -0.077645397011    15.994914619570
         N            0.843608612534     0.045606533192     0.254839602989    14.003074004430
         N            3.057430612534     0.720886533192    -0.294830397011    14.003074004430
         N            4.716667612534    -0.836271466808    -0.573401397011    14.003074004430
         C           -1.289279387466     1.078813533192    -0.593180397011    12.000000000000
         C           -2.714966387466     0.655590533192    -0.258496397011    12.000000000000
         C           -0.525203387466     0.481903533192     0.598990602989    12.000000000000
         C           -2.533457387466    -0.711821766808     0.371520102989    12.000000000000
         C           -2.528139387466    -1.850009466808    -0.640393397011    12.000000000000
         C            1.219979612534    -1.261024466808     0.310170602989    12.000000000000
         C            1.755798612534     1.067818533192    -0.060506397011    12.000000000000
         C            2.511305612534    -1.608756466808     0.045891602989    12.000000000000
         C            3.412187612534    -0.550269466808    -0.260028397011    12.000000000000
         H           -0.937401387466     0.591787533192    -1.515994397011     1.007825032230
         H           -3.362377387466     0.643048533192    -1.147568397011     1.007825032230
         H           -0.440085387466     1.222263533192     1.402894602989     1.007825032230
         H           -3.281752387466    -0.908350466808     1.129679602989     1.007825032230
         H           -1.713103387466    -1.699921466808    -1.370567397011     1.007825032230
         H           -3.485356387466    -1.833620466808    -1.185238397011     1.007825032230
         H           -0.297320387466     2.713562533192    -0.526103397011     1.007825032230
         H           -2.847351387466     2.400126533192     0.507559602989     1.007825032230
         H            0.434515612534    -1.963053466808     0.567964602989     1.007825032230
         H           -2.433669387466    -3.798048466808    -0.544336397011     1.007825032230
         H            2.829316612534    -2.645014466808     0.072818602989     1.007825032230
         H            5.125384612534    -1.670477466808    -0.163517397011     1.007825032230
         H            5.320018612534    -0.019670466808    -0.569397397011     1.007825032230

  Basis Set: AUG-CC-PVTZ
    Blend: AUG-CC-PVTZ
  Basis Set: (AUG-CC-PVTZ AUX)
    Blend: AUG-CC-PVTZ-JKFIT
	 Reference Energy          =    -886.3725509218456864 [Eh]
	 Singles Energy            =      -0.0000000000000000 [Eh]
	 Same-Spin Energy          =      -0.9013028790117880 [Eh]
	 Opposite-Spin Energy      =      -2.7152235840753525 [Eh]
	 Correlation Energy        =      -3.6165264630871405 [Eh]
	 Total Energy              =    -889.9890773849327843 [Eh]

	 ================> DF-SCS-MP2 Energies <==================
	-----------------------------------------------------------
	 SCS Same-Spin Scale       =       0.3333333333333333 [-]
	 SCS Opposite-Spin Scale   =       1.2000000000000000 [-]
	 SCS Same-Spin Energy      =      -0.3004342930039293 [Eh]
	 SCS Opposite-Spin Energy  =      -3.2582683008904230 [Eh]
	 SCS Correlation Energy    =      -3.5587025938943522 [Eh]
	 SCS Total Energy          =    -889.9312535157400816 [Eh]
	-----------------------------------------------------------

  Dipole Moment: [D]
     X:     1.7115      Y:    -5.9208      Z:    -1.8184     Total:     6.4259

*** Psi4 exiting successfully. Buy a developer a beer!
