                               Psi4 1.3.2 release

  ==> Input File <==

--------------------------------------------------------------------------
#psi4
#
memory 32 gb

molecule  {
0 1
  O       -1.2481010    -0.6526680     1.0325150
  O       -1.2449750     2.4828510    -0.6861630
  O       -3.2165300     1.5210990     0.7448870
  O       -2.3570290    -3.0668370     0.0949400
  O        1.3605300     2.2470340    -0.0765420
  N        0.8434040     0.0452230     0.2559430
  N        3.0572260     0.7205030    -0.2937270
  N        4.7164630    -0.8366550    -0.5722980
  C       -1.2894840     1.0784300    -0.5920770
  C       -2.7151710     0.6552070    -0.2573930
  C       -0.5322070     0.4895577     0.6084005
  C       -2.5292560    -0.7168860     0.3610560
  C       -2.5283440    -1.8503930    -0.6392900
  C        1.2197750    -1.2614080     0.3112740
  C        1.7555940     1.0674350    -0.0594030
  C        2.5111010    -1.6091400     0.0469950
  C        3.4119830    -0.5506530    -0.2589250
  H       -0.9436969     0.5967945    -1.5200084
  H       -3.3625820     0.6426650    -1.1464650
  H       -0.4402900     1.2218800     1.4039980
  H       -3.2819570    -0.9087340     1.1307830
  H       -1.7133080    -1.7003050    -1.3694640
  H       -3.4855610    -1.8340040    -1.1841350
  H       -0.2975250     2.7131790    -0.5250000
  H       -2.8475560     2.3997430     0.5086630
  H        0.4343110    -1.9634370     0.5690680
  H       -2.4338740    -3.7984320    -0.5432330
  H        2.8291120    -2.6453980     0.0739220
  H        5.1251800    -1.6708610    -0.1624140
  H        5.3198140    -0.0200540    -0.5682940
units angstrom
no_reorient  #important for SAPT in psi4, default
symmetry c1  #important for SAPT in psi4, default
}

set PROPERTIES_ORIGIN ["COM"]
properties('MP2/aug-cc-pvtz', properties = ['dipole'])
--------------------------------------------------------------------------

    Molecular point group: c1
  Charge       = 0
  Multiplicity = 1
  Basis Set: AUG-CC-PVTZ
    Blend: AUG-CC-PVTZ
  Basis Set: (AUG-CC-PVTZ AUX)
    Blend: AUG-CC-PVTZ-JKFIT

    Orbital Energies [Eh]
    ---------------------

    Doubly Occupied:

       1A    -20.582316     2A    -20.582007     3A    -20.558120
       4A    -20.557090     5A    -20.521554     6A    -15.636153
       7A    -15.599498     8A    -15.552860     9A    -11.387637
      10A    -11.357417    11A    -11.342167    12A    -11.328053
      13A    -11.301297    14A    -11.297088    15A    -11.296928
      16A    -11.293109    17A    -11.248070    18A     -1.429163
      19A     -1.395953    20A     -1.380267    21A     -1.372881
      22A     -1.346511    23A     -1.305383    24A     -1.272425
      25A     -1.181547    26A     -1.081170    27A     -1.067912
      28A     -1.021655    29A     -0.935219    30A     -0.908656
      31A     -0.876749    32A     -0.833241    33A     -0.811699
      34A     -0.766166    35A     -0.751638    36A     -0.736655
      37A     -0.719974    38A     -0.702816    39A     -0.698638
      40A     -0.685422    41A     -0.672530    42A     -0.655352
      43A     -0.651338    44A     -0.638399    45A     -0.620680
      46A     -0.613929    47A     -0.606967    48A     -0.593184
      49A     -0.575818    50A     -0.570510    51A     -0.553755
      52A     -0.545469    53A     -0.537469    54A     -0.532423
      55A     -0.497891    56A     -0.477585    57A     -0.474325
      58A     -0.462376    59A     -0.459888    60A     -0.453275
      61A     -0.441278    62A     -0.432618    63A     -0.395166
      64A     -0.349704

  @DF-RHF Final Energy:  -886.37338102740330

   => Energetics <=

    Nuclear Repulsion Energy =           1323.5311453117556084
    One-Electron Energy =               -3844.7389810309250606
    Two-Electron Energy =                1634.8344546917660409
    Total Energy =                       -886.3733810274034113
  Basis Set: (AUG-CC-PVTZ AUX)
    Blend: AUG-CC-PVTZ-RI
    Molecular point group: c1

    Geometry (in Angstrom), charge = 0, multiplicity = 1:

       Center              X                  Y                   Z               Mass
    ------------   -----------------  -----------------  -----------------  -----------------
         O           -1.247740146289    -0.653087122521     1.032126170844    15.994914619570
         O           -1.244614146289     2.482431877479    -0.686551829156    15.994914619570
         O           -3.216169146289     1.520679877479     0.744498170844    15.994914619570
         O           -2.356668146289    -3.067256122521     0.094551170844    15.994914619570
         O            1.360890853711     2.246614877479    -0.076930829156    15.994914619570
         N            0.843764853711     0.044803877479     0.255554170844    14.003074004430
         N            3.057586853711     0.720083877479    -0.294115829156    14.003074004430
         N            4.716823853711    -0.837074122521    -0.572686829156    14.003074004430
         C           -1.289123146289     1.078010877479    -0.592465829156    12.000000000000
         C           -2.714810146289     0.654787877479    -0.257781829156    12.000000000000
         C           -0.531846146289     0.489138577479     0.608011670844    12.000000000000
         C           -2.528895146289    -0.717305122521     0.360667170844    12.000000000000
         C           -2.527983146289    -1.850812122521    -0.639678829156    12.000000000000
         C            1.220135853711    -1.261827122521     0.310885170844    12.000000000000
         C            1.755954853711     1.067015877479    -0.059791829156    12.000000000000
         C            2.511461853711    -1.609559122521     0.046606170844    12.000000000000
         C            3.412343853711    -0.551072122521    -0.259313829156    12.000000000000
         H           -0.943336046289     0.596375377479    -1.520397229156     1.007825032230
         H           -3.362221146289     0.642245877479    -1.146853829156     1.007825032230
         H           -0.439929146289     1.221460877479     1.403609170844     1.007825032230
         H           -3.281596146289    -0.909153122521     1.130394170844     1.007825032230
         H           -1.712947146289    -1.700724122521    -1.369852829156     1.007825032230
         H           -3.485200146289    -1.834423122521    -1.184523829156     1.007825032230
         H           -0.297164146289     2.712759877479    -0.525388829156     1.007825032230
         H           -2.847195146289     2.399323877479     0.508274170844     1.007825032230
         H            0.434671853711    -1.963856122521     0.568679170844     1.007825032230
         H           -2.433513146289    -3.798851122521    -0.543621829156     1.007825032230
         H            2.829472853711    -2.645817122521     0.073533170844     1.007825032230
         H            5.125540853711    -1.671280122521    -0.162802829156     1.007825032230
         H            5.320174853711    -0.020473122521    -0.568682829156     1.007825032230

  Basis Set: AUG-CC-PVTZ
    Blend: AUG-CC-PVTZ
  Basis Set: (AUG-CC-PVTZ AUX)
    Blend: AUG-CC-PVTZ-JKFIT
	 Reference Energy          =    -886.3733810274032976 [Eh]
	 Singles Energy            =      -0.0000000000000000 [Eh]
	 Same-Spin Energy          =      -0.9011671470546412 [Eh]
	 Opposite-Spin Energy      =      -2.7148857028090800 [Eh]
	 Correlation Energy        =      -3.6160528498637214 [Eh]
	 Total Energy              =    -889.9894338772670608 [Eh]

	 ================> DF-SCS-MP2 Energies <==================
	-----------------------------------------------------------
	 SCS Same-Spin Scale       =       0.3333333333333333 [-]
	 SCS Opposite-Spin Scale   =       1.2000000000000000 [-]
	 SCS Same-Spin Energy      =      -0.3003890490182137 [Eh]
	 SCS Opposite-Spin Energy  =      -3.2578628433708960 [Eh]
	 SCS Correlation Energy    =      -3.5582518923891095 [Eh]
	 SCS Total Energy          =    -889.9316329197923778 [Eh]
	-----------------------------------------------------------

  Dipole Moment: [D]
     X:     1.6644      Y:    -5.9364      Z:    -1.8084     Total:     6.4251

*** Psi4 exiting successfully. Buy a developer a beer!
