                               Psi4 1.4a3.dev225

  ==> Input File <==

--------------------------------------------------------------------------
#psi4
#
memory 32 gb

molecule  {
0 1
  O       -1.3191770     0.6538360    -1.0992360
  O       -1.5735610    -2.4640850     0.5135810
  O       -3.5606630    -1.0699430    -0.4600060
  O       -1.4399290     3.1254620     0.1265180
  O        1.1065530    -2.3833650     0.0076020
  N        0.7686360    -0.1579440    -0.3706350
  N        2.9363770    -0.9938720     0.1460080
  N        4.7058880     0.4431110     0.3611260
  C       -1.3768610    -1.0680440     0.5552780
  C       -2.7379840    -0.3746360     0.4578480
  C       -0.6377490    -0.5042940    -0.6790150
  C       -2.3707440     0.9655450    -0.1585060
  C       -1.8992030     1.9895750     0.8571380
  C        1.2309690     1.1190800    -0.4442230
  C        1.6104480    -1.2470590    -0.0585760
  C        2.5474650     1.3753690    -0.1998620
  C        3.3802090     0.2523040     0.0808410
  H       -0.8441360    -0.7686950     1.4698480
  H       -3.2257400    -0.2778790     1.4400230
  H       -0.6227070    -1.2428120    -1.4883720
  H       -3.1941750     1.3785730    -0.7472070
  H       -1.0952130     1.5703990     1.4802000
  H       -2.7410530     2.2466610     1.5166010
  H       -0.6710550    -2.8260740     0.3542250
  H       -3.3115415    -1.9913104    -0.3649118
  H        0.4929290     1.8778260    -0.6840360
  H       -1.2098800     3.8154810     0.7720340
  H        2.9334840     2.3875570    -0.2389120
  H        5.1589650     1.2712730    -0.0008400
  H        5.2635310    -0.4031270     0.3606700
units angstrom
no_reorient  #important for SAPT in psi4, default
symmetry c1  #important for SAPT in psi4, default
}

set PROPERTIES_ORIGIN ["COM"]
properties('MP2/aug-cc-pvtz', properties = ['dipole'])
--------------------------------------------------------------------------

    Molecular point group: c1
  Charge       = 0
  Multiplicity = 1
  Basis Set: AUG-CC-PVTZ
    Blend: AUG-CC-PVTZ
  Basis Set: (AUG-CC-PVTZ AUX)
    Blend: AUG-CC-PVTZ-JKFIT

    Orbital Energies [Eh]
    ---------------------

    Doubly Occupied:

       1A    -20.586811     2A    -20.581514     3A    -20.558937
       4A    -20.555403     5A    -20.519661     6A    -15.632960
       7A    -15.599652     8A    -15.551731     9A    -11.385923
      10A    -11.358046    11A    -11.339612    12A    -11.325116
      13A    -11.303661    14A    -11.298103    15A    -11.297023
      16A    -11.293837    17A    -11.246549    18A     -1.429522
      19A     -1.394144    20A     -1.383915    21A     -1.376334
      22A     -1.348990    23A     -1.303632    24A     -1.271333
      25A     -1.181176    26A     -1.079338    27A     -1.068796
      28A     -1.017357    29A     -0.936948    30A     -0.906687
      31A     -0.877060    32A     -0.830582    33A     -0.812848
      34A     -0.766502    35A     -0.750394    36A     -0.735101
      37A     -0.722121    38A     -0.708335    39A     -0.704741
      40A     -0.685087    41A     -0.676468    42A     -0.653455
      43A     -0.649341    44A     -0.633588    45A     -0.620378
      46A     -0.615177    47A     -0.608156    48A     -0.593106
      49A     -0.577382    50A     -0.565349    51A     -0.555994
      52A     -0.548604    53A     -0.537315    54A     -0.531204
      55A     -0.495803    56A     -0.480835    57A     -0.474022
      58A     -0.463652    59A     -0.458052    60A     -0.453231
      61A     -0.442313    62A     -0.430263    63A     -0.392241
      64A     -0.348211

  @DF-RHF Final Energy:  -886.37515311216941

   => Energetics <=

    Nuclear Repulsion Energy =           1334.6871116499542040
    One-Electron Energy =               -3867.0652824499848066
    Two-Electron Energy =                1646.0030176878613020
    Total Energy =                       -886.3751531121693006
  Basis Set: (AUG-CC-PVTZ AUX)
    Blend: AUG-CC-PVTZ-RI
    Molecular point group: c1

    Geometry (in Angstrom), charge = 0, multiplicity = 1:

       Center              X                  Y                   Z               Mass
    ------------   -----------------  -----------------  -----------------  -----------------
         O           -1.331899118561     0.682367816049    -1.083447568466    15.994914619570
         O           -1.586283118561    -2.435553183951     0.529369431534    15.994914619570
         O           -3.573385118561    -1.041411183951    -0.444217568466    15.994914619570
         O           -1.452651118561     3.153993816049     0.142306431534    15.994914619570
         O            1.093830881439    -2.354833183951     0.023390431534    15.994914619570
         N            0.755913881439    -0.129412183951    -0.354846568466    14.003074004430
         N            2.923654881439    -0.965340183951     0.161796431534    14.003074004430
         N            4.693165881439     0.471642816049     0.376914431534    14.003074004430
         C           -1.389583118561    -1.039512183951     0.571066431534    12.000000000000
         C           -2.750706118561    -0.346104183951     0.473636431534    12.000000000000
         C           -0.650471118561    -0.475762183951    -0.663226568466    12.000000000000
         C           -2.383466118561     0.994076816049    -0.142717568466    12.000000000000
         C           -1.911925118561     2.018106816049     0.872926431534    12.000000000000
         C            1.218246881439     1.147611816049    -0.428434568466    12.000000000000
         C            1.597725881439    -1.218527183951    -0.042787568466    12.000000000000
         C            2.534742881439     1.403900816049    -0.184073568466    12.000000000000
         C            3.367486881439     0.280835816049     0.096629431534    12.000000000000
         H           -0.856858118561    -0.740163183951     1.485636431534     1.007825032230
         H           -3.238462118561    -0.249347183951     1.455811431534     1.007825032230
         H           -0.635429118561    -1.214280183951    -1.472583568466     1.007825032230
         H           -3.206897118561     1.407104816049    -0.731418568466     1.007825032230
         H           -1.107935118561     1.598930816049     1.495988431534     1.007825032230
         H           -2.753775118561     2.275192816049     1.532389431534     1.007825032230
         H           -0.683777118561    -2.797542183951     0.370013431534     1.007825032230
         H           -3.324263618561    -1.962778583951    -0.349123368466     1.007825032230
         H            0.480206881439     1.906357816049    -0.668247568466     1.007825032230
         H           -1.222602118561     3.844012816049     0.787822431534     1.007825032230
         H            2.920761881439     2.416088816049    -0.223123568466     1.007825032230
         H            5.146242881439     1.299804816049     0.014948431534     1.007825032230
         H            5.250808881439    -0.374595183951     0.376458431534     1.007825032230

  Basis Set: AUG-CC-PVTZ
    Blend: AUG-CC-PVTZ
  Basis Set: (AUG-CC-PVTZ AUX)
    Blend: AUG-CC-PVTZ-JKFIT
	 Reference Energy          =    -886.3751531121694143 [Eh]
	 Singles Energy            =      -0.0000000000000000 [Eh]
	 Same-Spin Energy          =      -0.9015145548309363 [Eh]
	 Opposite-Spin Energy      =      -2.7152726916409260 [Eh]
	 Correlation Energy        =      -3.6167872464718624 [Eh]
	 Total Energy              =    -889.9919403586412727 [Eh]

	 ================> DF-SCS-MP2 Energies <==================
	-----------------------------------------------------------
	 SCS Same-Spin Scale       =       0.3333333333333333 [-]
	 SCS Opposite-Spin Scale   =       1.2000000000000000 [-]
	 SCS Same-Spin Energy      =      -0.3005048516103121 [Eh]
	 SCS Opposite-Spin Energy  =      -3.2583272299691113 [Eh]
	 SCS Correlation Energy    =      -3.5588320815794234 [Eh]
	 SCS Total Energy          =    -889.9339851937488675 [Eh]
	-----------------------------------------------------------

  Dipole Moment: [D]
     X:     2.7255      Y:     5.8248      Z:     1.9461     Total:     6.7189

*** Psi4 exiting successfully. Buy a developer a beer!
