                               Psi4 1.3.2 release

  ==> Input File <==

--------------------------------------------------------------------------
#psi4
#
memory 32 gb

molecule  {
0 1
  O       -1.2481010    -0.6526680     1.0325150
  O       -1.2449750     2.4828510    -0.6861630
  O       -3.2165300     1.5210990     0.7448870
  O       -2.3570290    -3.0668370     0.0949400
  O        1.3605300     2.2470340    -0.0765420
  N        0.8434040     0.0452230     0.2559430
  N        3.0572260     0.7205030    -0.2937270
  N        4.7164630    -0.8366550    -0.5722980
  C       -1.2894840     1.0784300    -0.5920770
  C       -2.7151710     0.6552070    -0.2573930
  C       -0.5254080     0.4815200     0.6000940
  C       -2.5292560    -0.7168860     0.3610560
  C       -2.5283440    -1.8503930    -0.6392900
  C        1.2051354    -1.3305642     0.3210990
  C        1.7555940     1.0674350    -0.0594030
  C        2.5111010    -1.6091400     0.0469950
  C        3.4659673    -0.6014363    -0.2665871
  H       -0.9376060     0.5914040    -1.5148910
  H       -3.3625820     0.6426650    -1.1464650
  H       -0.4402900     1.2218800     1.4039980
  H       -3.2819570    -0.9087340     1.1307830
  H       -1.7133080    -1.7003050    -1.3694640
  H       -3.4855610    -1.8340040    -1.1841350
  H       -0.2975250     2.7131790    -0.5250000
  H       -2.8475560     2.3997430     0.5086630
  H        0.4343110    -1.9634370     0.5690680
  H       -2.4338740    -3.7984320    -0.5432330
  H        2.8291120    -2.6453980     0.0739220
  H        5.1251800    -1.6708610    -0.1624140
  H        5.3198140    -0.0200540    -0.5682940
units angstrom
no_reorient  #important for SAPT in psi4, default
symmetry c1  #important for SAPT in psi4, default
}

set PROPERTIES_ORIGIN ["COM"]
properties('MP2/aug-cc-pvtz', properties = ['dipole'])
--------------------------------------------------------------------------

    Molecular point group: c1
  Charge       = 0
  Multiplicity = 1
  Basis Set: AUG-CC-PVTZ
    Blend: AUG-CC-PVTZ
  Basis Set: (AUG-CC-PVTZ AUX)
    Blend: AUG-CC-PVTZ-JKFIT

    Orbital Energies [Eh]
    ---------------------

    Doubly Occupied:

       1A    -20.581068     2A    -20.577798     3A    -20.554524
       4A    -20.552578     5A    -20.513154     6A    -15.628394
       7A    -15.616292     8A    -15.548900     9A    -11.379982
      10A    -11.365896    11A    -11.334543    12A    -11.332728
      13A    -11.299317    14A    -11.294036    15A    -11.291519
      16A    -11.289385    17A    -11.255222    18A     -1.423364
      19A     -1.386696    20A     -1.376536    21A     -1.370243
      22A     -1.342181    23A     -1.313514    24A     -1.266418
      25A     -1.171663    26A     -1.081761    27A     -1.064410
      28A     -1.016499    29A     -0.933795    30A     -0.909527
      31A     -0.871342    32A     -0.828815    33A     -0.809329
      34A     -0.771173    35A     -0.750353    36A     -0.733744
      37A     -0.730216    38A     -0.702275    39A     -0.695575
      40A     -0.690766    41A     -0.671971    42A     -0.650529
      43A     -0.646036    44A     -0.636468    45A     -0.629673
      46A     -0.611270    47A     -0.606469    48A     -0.581218
      49A     -0.574411    50A     -0.570060    51A     -0.553962
      52A     -0.544920    53A     -0.535609    54A     -0.530421
      55A     -0.488858    56A     -0.475166    57A     -0.470188
      58A     -0.458266    59A     -0.450640    60A     -0.448824
      61A     -0.437157    62A     -0.424591    63A     -0.384262
      64A     -0.351416

  @DF-RHF Final Energy:  -886.35512779298006

   => Energetics <=

    Nuclear Repulsion Energy =           1321.2307173777589924
    One-Electron Energy =               -3840.3958572833580547
    Two-Electron Energy =                1632.8100121126190061
    Total Energy =                       -886.3551277929800563
  Basis Set: (AUG-CC-PVTZ AUX)
    Blend: AUG-CC-PVTZ-RI
    Molecular point group: c1

    Geometry (in Angstrom), charge = 0, multiplicity = 1:

       Center              X                  Y                   Z               Mass
    ------------   -----------------  -----------------  -----------------  -----------------
         O           -1.250043298531    -0.646747135353     1.032408235181    15.994914619570
         O           -1.246917298531     2.488771864647    -0.686269764819    15.994914619570
         O           -3.218472298531     1.527019864647     0.744780235181    15.994914619570
         O           -2.358971298531    -3.060916135353     0.094833235181    15.994914619570
         O            1.358587701469     2.252954864647    -0.076648764819    15.994914619570
         N            0.841461701469     0.051143864647     0.255836235181    14.003074004430
         N            3.055283701469     0.726423864647    -0.293833764819    14.003074004430
         N            4.714520701469    -0.830734135353    -0.572404764819    14.003074004430
         C           -1.291426298531     1.084350864647    -0.592183764819    12.000000000000
         C           -2.717113298531     0.661127864647    -0.257499764819    12.000000000000
         C           -0.527350298531     0.487440864647     0.599987235181    12.000000000000
         C           -2.531198298531    -0.710965135353     0.360949235181    12.000000000000
         C           -2.530286298531    -1.844472135353    -0.639396764819    12.000000000000
         C            1.203193101469    -1.324643335353     0.320992235181    12.000000000000
         C            1.753651701469     1.073355864647    -0.059509764819    12.000000000000
         C            2.509158701469    -1.603219135353     0.046888235181    12.000000000000
         C            3.464025001469    -0.595515435353    -0.266693864819    12.000000000000
         H           -0.939548298531     0.597324864647    -1.514997764819     1.007825032230
         H           -3.364524298531     0.648585864647    -1.146571764819     1.007825032230
         H           -0.442232298531     1.227800864647     1.403891235181     1.007825032230
         H           -3.283899298531    -0.902813135353     1.130676235181     1.007825032230
         H           -1.715250298531    -1.694384135353    -1.369570764819     1.007825032230
         H           -3.487503298531    -1.828083135353    -1.184241764819     1.007825032230
         H           -0.299467298531     2.719099864647    -0.525106764819     1.007825032230
         H           -2.849498298531     2.405663864647     0.508556235181     1.007825032230
         H            0.432368701469    -1.957516135353     0.568961235181     1.007825032230
         H           -2.435816298531    -3.792511135353    -0.543339764819     1.007825032230
         H            2.827169701469    -2.639477135353     0.073815235181     1.007825032230
         H            5.123237701469    -1.664940135353    -0.162520764819     1.007825032230
         H            5.317871701469    -0.014133135353    -0.568400764819     1.007825032230

  Basis Set: AUG-CC-PVTZ
    Blend: AUG-CC-PVTZ
  Basis Set: (AUG-CC-PVTZ AUX)
    Blend: AUG-CC-PVTZ-JKFIT
	 Reference Energy          =    -886.3551277929800563 [Eh]
	 Singles Energy            =      -0.0000000000000000 [Eh]
	 Same-Spin Energy          =      -0.9020368316812981 [Eh]
	 Opposite-Spin Energy      =      -2.7172479400395471 [Eh]
	 Correlation Energy        =      -3.6192847717208450 [Eh]
	 Total Energy              =    -889.9744125647008559 [Eh]

	 ================> DF-SCS-MP2 Energies <==================
	-----------------------------------------------------------
	 SCS Same-Spin Scale       =       0.3333333333333333 [-]
	 SCS Opposite-Spin Scale   =       1.2000000000000000 [-]
	 SCS Same-Spin Energy      =      -0.3006789438937660 [Eh]
	 SCS Opposite-Spin Energy  =      -3.2606975280474564 [Eh]
	 SCS Correlation Energy    =      -3.5613764719412222 [Eh]
	 SCS Total Energy          =    -889.9165042649212864 [Eh]
	-----------------------------------------------------------

  Dipole Moment: [D]
     X:     2.5470      Y:    -6.4040      Z:    -1.9464     Total:     7.1615

*** Psi4 exiting successfully. Buy a developer a beer!
