                               Psi4 1.3.2 release

  ==> Input File <==

--------------------------------------------------------------------------
#psi4
#
memory 32 gb

molecule  {
0 1
  O       -1.2481010    -0.6526680     1.0325150
  O       -1.2449750     2.4828510    -0.6861630
  O       -3.2165300     1.5210990     0.7448870
  O       -2.3570290    -3.0668370     0.0949400
  O        1.3605300     2.2470340    -0.0765420
  N        0.8615164     0.0287768     0.2540701
  N        3.0516191     0.6976408    -0.2898085
  N        4.7164630    -0.8366550    -0.5722980
  C       -1.2894840     1.0784300    -0.5920770
  C       -2.7151710     0.6552070    -0.2573930
  C       -0.5254080     0.4815200     0.6000940
  C       -2.5292560    -0.7168860     0.3610560
  C       -2.5283440    -1.8503930    -0.6392900
  C        1.2197750    -1.2614080     0.3112740
  C        1.7555940     1.0674350    -0.0594030
  C        2.5111010    -1.6091400     0.0469950
  C        3.4119830    -0.5506530    -0.2589250
  H       -0.9376060     0.5914040    -1.5148910
  H       -3.3625820     0.6426650    -1.1464650
  H       -0.4402900     1.2218800     1.4039980
  H       -3.2819570    -0.9087340     1.1307830
  H       -1.7133080    -1.7003050    -1.3694640
  H       -3.4855610    -1.8340040    -1.1841350
  H       -0.2975250     2.7131790    -0.5250000
  H       -2.8475560     2.3997430     0.5086630
  H        0.4343110    -1.9634370     0.5690680
  H       -2.4338740    -3.7984320    -0.5432330
  H        2.8291120    -2.6453980     0.0739220
  H        5.1251800    -1.6708610    -0.1624140
  H        5.3198140    -0.0200540    -0.5682940
units angstrom
no_reorient  #important for SAPT in psi4, default
symmetry c1  #important for SAPT in psi4, default
}

set PROPERTIES_ORIGIN ["COM"]
properties('MP2/aug-cc-pvtz', properties = ['dipole'])
--------------------------------------------------------------------------

    Molecular point group: c1
  Charge       = 0
  Multiplicity = 1
  Basis Set: AUG-CC-PVTZ
    Blend: AUG-CC-PVTZ
  Basis Set: (AUG-CC-PVTZ AUX)
    Blend: AUG-CC-PVTZ-JKFIT

    Orbital Energies [Eh]
    ---------------------

    Doubly Occupied:

       1A    -20.582420     2A    -20.582350     3A    -20.558688
       4A    -20.558608     5A    -20.525773     6A    -15.637000
       7A    -15.596646     8A    -15.550091     9A    -11.390780
      10A    -11.353129    11A    -11.344040    12A    -11.324731
      13A    -11.301528    14A    -11.298202    15A    -11.297523
      16A    -11.293977    17A    -11.244751    18A     -1.429781
      19A     -1.398286    20A     -1.381050    21A     -1.373206
      22A     -1.347445    23A     -1.310586    24A     -1.275320
      25A     -1.183391    26A     -1.079775    27A     -1.068449
      28A     -1.022097    29A     -0.935047    30A     -0.911093
      31A     -0.879773    32A     -0.832218    33A     -0.812282
      34A     -0.766432    35A     -0.753749    36A     -0.736946
      37A     -0.719892    38A     -0.702908    39A     -0.699100
      40A     -0.685198    41A     -0.672413    42A     -0.656087
      43A     -0.651804    44A     -0.639311    45A     -0.621242
      46A     -0.615549    47A     -0.606937    48A     -0.594693
      49A     -0.576054    50A     -0.570267    51A     -0.554341
      52A     -0.545859    53A     -0.538318    54A     -0.532279
      55A     -0.500880    56A     -0.478183    57A     -0.475403
      58A     -0.464306    59A     -0.461120    60A     -0.453842
      61A     -0.440809    62A     -0.429947    63A     -0.396881
      64A     -0.347956

  @DF-RHF Final Energy:  -886.37286522904265

   => Energetics <=

    Nuclear Repulsion Energy =           1324.1603553339466544
    One-Electron Energy =               -3845.9289474789184169
    Two-Electron Energy =                1635.3957269159293446
    Total Energy =                       -886.3728652290426453
  Basis Set: (AUG-CC-PVTZ AUX)
    Blend: AUG-CC-PVTZ-RI
    Molecular point group: c1

    Geometry (in Angstrom), charge = 0, multiplicity = 1:

       Center              X                  Y                   Z               Mass
    ------------   -----------------  -----------------  -----------------  -----------------
         O           -1.248821420085    -0.650403608038     1.032397169577    15.994914619570
         O           -1.245695420085     2.485115391962    -0.686280830423    15.994914619570
         O           -3.217250420085     1.523363391962     0.744769169577    15.994914619570
         O           -2.357749420085    -3.064572608038     0.094822169577    15.994914619570
         O            1.359809579915     2.249298391962    -0.076659830423    15.994914619570
         N            0.860795979915     0.031041191962     0.253952269577    14.003074004430
         N            3.050898679915     0.699905191962    -0.289926330423    14.003074004430
         N            4.715742579915    -0.834390608038    -0.572415830423    14.003074004430
         C           -1.290204420085     1.080694391962    -0.592194830423    12.000000000000
         C           -2.715891420085     0.657471391962    -0.257510830423    12.000000000000
         C           -0.526128420085     0.483784391962     0.599976169577    12.000000000000
         C           -2.529976420085    -0.714621608038     0.360938169577    12.000000000000
         C           -2.529064420085    -1.848128608038    -0.639407830423    12.000000000000
         C            1.219054579915    -1.259143608038     0.311156169577    12.000000000000
         C            1.754873579915     1.069699391962    -0.059520830423    12.000000000000
         C            2.510380579915    -1.606875608038     0.046877169577    12.000000000000
         C            3.411262579915    -0.548388608038    -0.259042830423    12.000000000000
         H           -0.938326420085     0.593668391962    -1.515008830423     1.007825032230
         H           -3.363302420085     0.644929391962    -1.146582830423     1.007825032230
         H           -0.441010420085     1.224144391962     1.403880169577     1.007825032230
         H           -3.282677420085    -0.906469608038     1.130665169577     1.007825032230
         H           -1.714028420085    -1.698040608038    -1.369581830423     1.007825032230
         H           -3.486281420085    -1.831739608038    -1.184252830423     1.007825032230
         H           -0.298245420085     2.715443391962    -0.525117830423     1.007825032230
         H           -2.848276420085     2.402007391962     0.508545169577     1.007825032230
         H            0.433590579915    -1.961172608038     0.568950169577     1.007825032230
         H           -2.434594420085    -3.796167608038    -0.543350830423     1.007825032230
         H            2.828391579915    -2.643133608038     0.073804169577     1.007825032230
         H            5.124459579915    -1.668596608038    -0.162531830423     1.007825032230
         H            5.319093579915    -0.017789608038    -0.568411830423     1.007825032230

  Basis Set: AUG-CC-PVTZ
    Blend: AUG-CC-PVTZ
  Basis Set: (AUG-CC-PVTZ AUX)
    Blend: AUG-CC-PVTZ-JKFIT
	 Reference Energy          =    -886.3728652290426453 [Eh]
	 Singles Energy            =      -0.0000000000000000 [Eh]
	 Same-Spin Energy          =      -0.9013412593184256 [Eh]
	 Opposite-Spin Energy      =      -2.7146417905380211 [Eh]
	 Correlation Energy        =      -3.6159830498564469 [Eh]
	 Total Energy              =    -889.9888482788991269 [Eh]

	 ================> DF-SCS-MP2 Energies <==================
	-----------------------------------------------------------
	 SCS Same-Spin Scale       =       0.3333333333333333 [-]
	 SCS Opposite-Spin Scale   =       1.2000000000000000 [-]
	 SCS Same-Spin Energy      =      -0.3004470864394752 [Eh]
	 SCS Opposite-Spin Energy  =      -3.2575701486456254 [Eh]
	 SCS Correlation Energy    =      -3.5580172350851007 [Eh]
	 SCS Total Energy          =    -889.9308824641277624 [Eh]
	-----------------------------------------------------------

  Dipole Moment: [D]
     X:     1.5477      Y:    -5.8016      Z:    -1.8105     Total:     6.2716

*** Psi4 exiting successfully. Buy a developer a beer!
