                               Psi4 1.3.2 release

  ==> Input File <==

--------------------------------------------------------------------------
#psi4
#
memory 32 gb

molecule  {
0 1
  O       -1.2481010    -0.6526680     1.0325150
  O       -1.2588350     2.4817175    -0.7064294
  O       -3.2165300     1.5210990     0.7448870
  O       -2.3570290    -3.0668370     0.0949400
  O        1.3605300     2.2470340    -0.0765420
  N        0.8434040     0.0452230     0.2559430
  N        3.0572260     0.7205030    -0.2937270
  N        4.7164630    -0.8366550    -0.5722980
  C       -1.2894840     1.0784300    -0.5920770
  C       -2.7151710     0.6552070    -0.2573930
  C       -0.5326940     0.4569573     0.5921636
  C       -2.5292560    -0.7168860     0.3610560
  C       -2.5283440    -1.8503930    -0.6392900
  C        1.2197750    -1.2614080     0.3112740
  C        1.7555940     1.0674350    -0.0594030
  C        2.5111010    -1.6091400     0.0469950
  C        3.4119830    -0.5506530    -0.2589250
  H       -0.9376060     0.5914040    -1.5148910
  H       -3.3625820     0.6426650    -1.1464650
  H       -0.4402900     1.2218800     1.4039980
  H       -3.2819570    -0.9087340     1.1307830
  H       -1.7133080    -1.7003050    -1.3694640
  H       -3.4855610    -1.8340040    -1.1841350
  H       -0.2975250     2.7131790    -0.5250000
  H       -2.8475560     2.3997430     0.5086630
  H        0.4343110    -1.9634370     0.5690680
  H       -2.4338740    -3.7984320    -0.5432330
  H        2.8291120    -2.6453980     0.0739220
  H        5.1251800    -1.6708610    -0.1624140
  H        5.3198140    -0.0200540    -0.5682940
units angstrom
no_reorient  #important for SAPT in psi4, default
symmetry c1  #important for SAPT in psi4, default
}

set PROPERTIES_ORIGIN ["COM"]
properties('MP2/aug-cc-pvtz', properties = ['dipole'])
--------------------------------------------------------------------------

    Molecular point group: c1
  Charge       = 0
  Multiplicity = 1
  Basis Set: AUG-CC-PVTZ
    Blend: AUG-CC-PVTZ
  Basis Set: (AUG-CC-PVTZ AUX)
    Blend: AUG-CC-PVTZ-JKFIT

    Orbital Energies [Eh]
    ---------------------

    Doubly Occupied:

       1A    -20.584095     2A    -20.582828     3A    -20.558814
       4A    -20.557526     5A    -20.522409     6A    -15.636962
       7A    -15.599926     8A    -15.553697     9A    -11.388825
      10A    -11.357978    11A    -11.342226    12A    -11.328432
      13A    -11.301863    14A    -11.298052    15A    -11.295741
      16A    -11.292549    17A    -11.248598    18A     -1.434957
      19A     -1.397463    20A     -1.379595    21A     -1.374061
      22A     -1.344571    23A     -1.306456    24A     -1.274375
      25A     -1.182494    26A     -1.081724    27A     -1.069241
      28A     -1.021144    29A     -0.934926    30A     -0.910260
      31A     -0.877440    32A     -0.830076    33A     -0.813898
      34A     -0.767615    35A     -0.753160    36A     -0.733536
      37A     -0.720742    38A     -0.702857    39A     -0.699145
      40A     -0.686340    41A     -0.672906    42A     -0.654126
      43A     -0.651868    44A     -0.638861    45A     -0.620964
      46A     -0.615390    47A     -0.607000    48A     -0.593398
      49A     -0.576455    50A     -0.569743    51A     -0.554969
      52A     -0.545864    53A     -0.538116    54A     -0.530837
      55A     -0.498104    56A     -0.478276    57A     -0.474365
      58A     -0.462651    59A     -0.460165    60A     -0.452392
      61A     -0.439399    62A     -0.433153    63A     -0.394732
      64A     -0.349664

  @DF-RHF Final Energy:  -886.37123751876402

   => Energetics <=

    Nuclear Repulsion Energy =           1323.6892248337724141
    One-Electron Energy =               -3845.0009413188531653
    Two-Electron Energy =                1634.9404789663169595
    Total Energy =                       -886.3712375187640191
  Basis Set: (AUG-CC-PVTZ AUX)
    Blend: AUG-CC-PVTZ-RI
    Molecular point group: c1

    Geometry (in Angstrom), charge = 0, multiplicity = 1:

       Center              X                  Y                   Z               Mass
    ------------   -----------------  -----------------  -----------------  -----------------
         O           -1.246829376472    -0.651380859986     1.034240014123    15.994914619570
         O           -1.257563376472     2.483004640014    -0.704704385877    15.994914619570
         O           -3.215258376472     1.522386140014     0.746612014123    15.994914619570
         O           -2.355757376472    -3.065549859986     0.096665014123    15.994914619570
         O            1.361801623528     2.248321140014    -0.074816985877    15.994914619570
         N            0.844675623528     0.046510140014     0.257668014123    14.003074004430
         N            3.058497623528     0.721790140014    -0.292001985877    14.003074004430
         N            4.717734623528    -0.835367859986    -0.570572985877    14.003074004430
         C           -1.288212376472     1.079717140014    -0.590351985877    12.000000000000
         C           -2.713899376472     0.656494140014    -0.255667985877    12.000000000000
         C           -0.531422376472     0.458244440014     0.593888614123    12.000000000000
         C           -2.527984376472    -0.715598859986     0.362781014123    12.000000000000
         C           -2.527072376472    -1.849105859986    -0.637564985877    12.000000000000
         C            1.221046623528    -1.260120859986     0.312999014123    12.000000000000
         C            1.756865623528     1.068722140014    -0.057677985877    12.000000000000
         C            2.512372623528    -1.607852859986     0.048720014123    12.000000000000
         C            3.413254623528    -0.549365859986    -0.257199985877    12.000000000000
         H           -0.936334376472     0.592691140014    -1.513165985877     1.007825032230
         H           -3.361310376472     0.643952140014    -1.144739985877     1.007825032230
         H           -0.439018376472     1.223167140014     1.405723014123     1.007825032230
         H           -3.280685376472    -0.907446859986     1.132508014123     1.007825032230
         H           -1.712036376472    -1.699017859986    -1.367738985877     1.007825032230
         H           -3.484289376472    -1.832716859986    -1.182409985877     1.007825032230
         H           -0.296253376472     2.714466140014    -0.523274985877     1.007825032230
         H           -2.846284376472     2.401030140014     0.510388014123     1.007825032230
         H            0.435582623528    -1.962149859986     0.570793014123     1.007825032230
         H           -2.432602376472    -3.797144859986    -0.541507985877     1.007825032230
         H            2.830383623528    -2.644110859986     0.075647014123     1.007825032230
         H            5.126451623528    -1.669573859986    -0.160688985877     1.007825032230
         H            5.321085623528    -0.018766859986    -0.566568985877     1.007825032230

  Basis Set: AUG-CC-PVTZ
    Blend: AUG-CC-PVTZ
  Basis Set: (AUG-CC-PVTZ AUX)
    Blend: AUG-CC-PVTZ-JKFIT
	 Reference Energy          =    -886.3712375187640191 [Eh]
	 Singles Energy            =      -0.0000000000000000 [Eh]
	 Same-Spin Energy          =      -0.9017002111418957 [Eh]
	 Opposite-Spin Energy      =      -2.7154886140512575 [Eh]
	 Correlation Energy        =      -3.6171888251931534 [Eh]
	 Total Energy              =    -889.9884263439571441 [Eh]

	 ================> DF-SCS-MP2 Energies <==================
	-----------------------------------------------------------
	 SCS Same-Spin Scale       =       0.3333333333333333 [-]
	 SCS Opposite-Spin Scale   =       1.2000000000000000 [-]
	 SCS Same-Spin Energy      =      -0.3005667370472985 [Eh]
	 SCS Opposite-Spin Energy  =      -3.2585863368615091 [Eh]
	 SCS Correlation Energy    =      -3.5591530739088078 [Eh]
	 SCS Total Energy          =    -889.9303905926727793 [Eh]
	-----------------------------------------------------------

  Dipole Moment: [D]
     X:     1.6992      Y:    -6.0153      Z:    -1.7952     Total:     6.5034

*** Psi4 exiting successfully. Buy a developer a beer!
