                               Psi4 1.4a3.dev225

  ==> Input File <==

--------------------------------------------------------------------------
#psi4
#
memory 32 gb

molecule  {
0 1
  O       -1.3191770     0.6538360    -1.0992360
  O       -1.5735610    -2.4640850     0.5135810
  O       -3.5606630    -1.0699430    -0.4600060
  O       -1.4399290     3.1254620     0.1265180
  O        1.1065530    -2.3833650     0.0076020
  N        0.7686360    -0.1579440    -0.3706350
  N        2.9363770    -0.9938720     0.1460080
  N        4.7058880     0.4431110     0.3611260
  C       -1.3768610    -1.0680440     0.5552780
  C       -2.7379840    -0.3746360     0.4578480
  C       -0.6377490    -0.5042940    -0.6790150
  C       -2.3707440     0.9655450    -0.1585060
  C       -1.8992030     1.9895750     0.8571380
  C        1.2309690     1.1190800    -0.4442230
  C        1.6104480    -1.2470590    -0.0585760
  C        2.5474650     1.3753690    -0.1998620
  C        3.3802090     0.2523040     0.0808410
  H       -0.8441360    -0.7686950     1.4698480
  H       -3.2257400    -0.2778790     1.4400230
  H       -0.6227070    -1.2428120    -1.4883720
  H       -3.1941750     1.3785730    -0.7472070
  H       -1.0952130     1.5703990     1.4802000
  H       -2.7410530     2.2466610     1.5166010
  H       -0.6710550    -2.8260740     0.3542250
  H       -3.3063470    -2.0105220    -0.3629290
  H        0.4929290     1.8778260    -0.6840360
  H       -1.2098800     3.8154810     0.7720340
  H        2.9334840     2.3875570    -0.2389120
  H        5.1679278     1.2876558    -0.0080005
  H        5.2635310    -0.4031270     0.3606700
units angstrom
no_reorient  #important for SAPT in psi4, default
symmetry c1  #important for SAPT in psi4, default
}

set PROPERTIES_ORIGIN ["COM"]
properties('MP2/aug-cc-pvtz', properties = ['dipole'])
--------------------------------------------------------------------------

    Molecular point group: c1
  Charge       = 0
  Multiplicity = 1
  Basis Set: AUG-CC-PVTZ
    Blend: AUG-CC-PVTZ
  Basis Set: (AUG-CC-PVTZ AUX)
    Blend: AUG-CC-PVTZ-JKFIT

    Orbital Energies [Eh]
    ---------------------

    Doubly Occupied:

       1A    -20.586692     2A    -20.581355     3A    -20.559300
       4A    -20.556390     5A    -20.519643     6A    -15.632857
       7A    -15.601499     8A    -15.551690     9A    -11.385898
      10A    -11.357989    11A    -11.339520    12A    -11.324990
      13A    -11.303519    14A    -11.297890    15A    -11.296919
      16A    -11.293458    17A    -11.246438    18A     -1.429172
      19A     -1.394018    20A     -1.382981    21A     -1.375464
      22A     -1.346489    23A     -1.303138    24A     -1.270534
      25A     -1.179642    26A     -1.079181    27A     -1.068009
      28A     -1.017075    29A     -0.936225    30A     -0.906546
      31A     -0.875776    32A     -0.829770    33A     -0.812309
      34A     -0.765762    35A     -0.749960    36A     -0.735087
      37A     -0.721028    38A     -0.707837    39A     -0.703258
      40A     -0.682494    41A     -0.675027    42A     -0.652903
      43A     -0.648870    44A     -0.633325    45A     -0.620179
      46A     -0.614813    47A     -0.607688    48A     -0.592994
      49A     -0.577010    50A     -0.564896    51A     -0.555732
      52A     -0.548171    53A     -0.536576    54A     -0.530905
      55A     -0.495588    56A     -0.480758    57A     -0.473659
      58A     -0.463336    59A     -0.457884    60A     -0.452950
      61A     -0.441969    62A     -0.430168    63A     -0.391995
      64A     -0.348125

  @DF-RHF Final Energy:  -886.37316129338512

   => Energetics <=

    Nuclear Repulsion Energy =           1334.4614571108602377
    One-Electron Energy =               -3866.6625896391888091
    Two-Electron Energy =                1645.8279712349431065
    Total Energy =                       -886.3731612933852375
  Basis Set: (AUG-CC-PVTZ AUX)
    Blend: AUG-CC-PVTZ-RI
    Molecular point group: c1

    Geometry (in Angstrom), charge = 0, multiplicity = 1:

       Center              X                  Y                   Z               Mass
    ------------   -----------------  -----------------  -----------------  -----------------
         O           -1.331957814288     0.682379544166    -1.083426101882    15.994914619570
         O           -1.586341814288    -2.435541455834     0.529390898118    15.994914619570
         O           -3.573443814288    -1.041399455834    -0.444196101882    15.994914619570
         O           -1.452709814288     3.154005544166     0.142327898118    15.994914619570
         O            1.093772185712    -2.354821455834     0.023411898118    15.994914619570
         N            0.755855185712    -0.129400455834    -0.354825101882    14.003074004430
         N            2.923596185712    -0.965328455834     0.161817898118    14.003074004430
         N            4.693107185712     0.471654544166     0.376935898118    14.003074004430
         C           -1.389641814288    -1.039500455834     0.571087898118    12.000000000000
         C           -2.750764814288    -0.346092455834     0.473657898118    12.000000000000
         C           -0.650529814288    -0.475750455834    -0.663205101882    12.000000000000
         C           -2.383524814288     0.994088544166    -0.142696101882    12.000000000000
         C           -1.911983814288     2.018118544166     0.872947898118    12.000000000000
         C            1.218188185712     1.147623544166    -0.428413101882    12.000000000000
         C            1.597667185712    -1.218515455834    -0.042766101882    12.000000000000
         C            2.534684185712     1.403912544166    -0.184052101882    12.000000000000
         C            3.367428185712     0.280847544166     0.096650898118    12.000000000000
         H           -0.856916814288    -0.740151455834     1.485657898118     1.007825032230
         H           -3.238520814288    -0.249335455834     1.455832898118     1.007825032230
         H           -0.635487814288    -1.214268455834    -1.472562101882     1.007825032230
         H           -3.206955814288     1.407116544166    -0.731397101882     1.007825032230
         H           -1.107993814288     1.598942544166     1.496009898118     1.007825032230
         H           -2.753833814288     2.275204544166     1.532410898118     1.007825032230
         H           -0.683835814288    -2.797530455834     0.370034898118     1.007825032230
         H           -3.319127814288    -1.981978455834    -0.347119101882     1.007825032230
         H            0.480148185712     1.906369544166    -0.668226101882     1.007825032230
         H           -1.222660814288     3.844024544166     0.787843898118     1.007825032230
         H            2.920703185712     2.416100544166    -0.223102101882     1.007825032230
         H            5.155146985712     1.316199344166     0.007809398118     1.007825032230
         H            5.250750185712    -0.374583455834     0.376479898118     1.007825032230

  Basis Set: AUG-CC-PVTZ
    Blend: AUG-CC-PVTZ
  Basis Set: (AUG-CC-PVTZ AUX)
    Blend: AUG-CC-PVTZ-JKFIT
	 Reference Energy          =    -886.3731612933851238 [Eh]
	 Singles Energy            =      -0.0000000000000000 [Eh]
	 Same-Spin Energy          =      -0.9019339072712252 [Eh]
	 Opposite-Spin Energy      =      -2.7162494700640796 [Eh]
	 Correlation Energy        =      -3.6181833773353049 [Eh]
	 Total Energy              =    -889.9913446707204230 [Eh]

	 ================> DF-SCS-MP2 Energies <==================
	-----------------------------------------------------------
	 SCS Same-Spin Scale       =       0.3333333333333333 [-]
	 SCS Opposite-Spin Scale   =       1.2000000000000000 [-]
	 SCS Same-Spin Energy      =      -0.3006446357570751 [Eh]
	 SCS Opposite-Spin Energy  =      -3.2594993640768952 [Eh]
	 SCS Correlation Energy    =      -3.5601439998339703 [Eh]
	 SCS Total Energy          =    -889.9333052932190640 [Eh]
	-----------------------------------------------------------

  Dipole Moment: [D]
     X:     2.7498      Y:     5.8140      Z:     1.9430     Total:     6.7185

*** Psi4 exiting successfully. Buy a developer a beer!
