                               Psi4 1.3.2 release

  ==> Input File <==

--------------------------------------------------------------------------
#psi4
#
memory 32 gb

molecule  {
0 1
  O       -1.2481010    -0.6526680     1.0325150
  O       -1.2449750     2.4828510    -0.6861630
  O       -3.2165300     1.5210990     0.7448870
  O       -2.3570290    -3.0668370     0.0949400
  O        1.3605300     2.2470340    -0.0765420
  N        0.8434040     0.0452230     0.2559430
  N        3.0572260     0.7205030    -0.2937270
  N        4.7164630    -0.8366550    -0.5722980
  C       -1.2894840     1.0784300    -0.5920770
  C       -2.7151710     0.6552070    -0.2573930
  C       -0.5254080     0.4815200     0.6000940
  C       -2.5292560    -0.7168860     0.3610560
  C       -2.5283440    -1.8503930    -0.6392900
  C        1.2750878    -1.4534350     0.3194056
  C        1.7555940     1.0674350    -0.0594030
  C        2.5111010    -1.6091400     0.0469950
  C        3.4119830    -0.5506530    -0.2589250
  H       -0.9376060     0.5914040    -1.5148910
  H       -3.3625820     0.6426650    -1.1464650
  H       -0.4402900     1.2218800     1.4039980
  H       -3.2819570    -0.9087340     1.1307830
  H       -1.7133080    -1.7003050    -1.3694640
  H       -3.4855610    -1.8340040    -1.1841350
  H       -0.2975250     2.7131790    -0.5250000
  H       -2.8475560     2.3997430     0.5086630
  H        0.4343110    -1.9634370     0.5690680
  H       -2.4338740    -3.7984320    -0.5432330
  H        2.8291120    -2.6453980     0.0739220
  H        5.1251800    -1.6708610    -0.1624140
  H        5.3198140    -0.0200540    -0.5682940
units angstrom
no_reorient  #important for SAPT in psi4, default
symmetry c1  #important for SAPT in psi4, default
}

set PROPERTIES_ORIGIN ["COM"]
properties('MP2/aug-cc-pvtz', properties = ['dipole'])
--------------------------------------------------------------------------

    Molecular point group: c1
  Charge       = 0
  Multiplicity = 1
  Basis Set: AUG-CC-PVTZ
    Blend: AUG-CC-PVTZ
  Basis Set: (AUG-CC-PVTZ AUX)
    Blend: AUG-CC-PVTZ-JKFIT

    Orbital Energies [Eh]
    ---------------------

    Doubly Occupied:

       1A    -20.579950     2A    -20.574184     3A    -20.552217
       4A    -20.550476     5A    -20.516410     6A    -15.613537
       7A    -15.611268     8A    -15.559448     9A    -11.381888
      10A    -11.371527    11A    -11.328968    12A    -11.327408
      13A    -11.297603    14A    -11.291398    15A    -11.287454
      16A    -11.286524    17A    -11.260881    18A     -1.418190
      19A     -1.387349    20A     -1.374835    21A     -1.367772
      22A     -1.340128    23A     -1.306136    24A     -1.239321
      25A     -1.180597    26A     -1.109008    27A     -1.061547
      28A     -1.011885    29A     -0.930768    30A     -0.906413
      31A     -0.871504    32A     -0.824918    33A     -0.807353
      34A     -0.769438    35A     -0.742155    36A     -0.726419
      37A     -0.724018    38A     -0.699709    39A     -0.693478
      40A     -0.690239    41A     -0.666647    42A     -0.655992
      43A     -0.648576    44A     -0.644772    45A     -0.629029
      46A     -0.612123    47A     -0.604165    48A     -0.572623
      49A     -0.568298    50A     -0.564040    51A     -0.549382
      52A     -0.539312    53A     -0.532701    54A     -0.524827
      55A     -0.485129    56A     -0.473450    57A     -0.468559
      58A     -0.458859    59A     -0.453600    60A     -0.446224
      61A     -0.441427    62A     -0.429850    63A     -0.393113
      64A     -0.367327

  @DF-RHF Final Energy:  -886.33308432263539

   => Energetics <=

    Nuclear Repulsion Energy =           1319.8519650019009077
    One-Electron Energy =               -3837.7614087453412139
    Two-Electron Energy =                1631.5763594208051472
    Total Energy =                       -886.3330843226353863
  Basis Set: (AUG-CC-PVTZ AUX)
    Blend: AUG-CC-PVTZ-RI
    Molecular point group: c1

    Geometry (in Angstrom), charge = 0, multiplicity = 1:

       Center              X                  Y                   Z               Mass
    ------------   -----------------  -----------------  -----------------  -----------------
         O           -1.250831569258    -0.643188511219     1.032113588261    15.994914619570
         O           -1.247705569258     2.492330488781    -0.686564411739    15.994914619570
         O           -3.219260569258     1.530578488781     0.744485588261    15.994914619570
         O           -2.359759569258    -3.057357511219     0.094538588261    15.994914619570
         O            1.357799430742     2.256513488781    -0.076943411739    15.994914619570
         N            0.840673430742     0.054702488781     0.255541588261    14.003074004430
         N            3.054495430742     0.729982488781    -0.294128411739    14.003074004430
         N            4.713732430742    -0.827175511219    -0.572699411739    14.003074004430
         C           -1.292214569258     1.087909488781    -0.592478411739    12.000000000000
         C           -2.717901569258     0.664686488781    -0.257794411739    12.000000000000
         C           -0.528138569258     0.490999488781     0.599692588261    12.000000000000
         C           -2.531986569258    -0.707406511219     0.360654588261    12.000000000000
         C           -2.531074569258    -1.840913511219    -0.639691411739    12.000000000000
         C            1.272357230742    -1.443955511219     0.319004188261    12.000000000000
         C            1.752863430742     1.076914488781    -0.059804411739    12.000000000000
         C            2.508370430742    -1.599660511219     0.046593588261    12.000000000000
         C            3.409252430742    -0.541173511219    -0.259326411739    12.000000000000
         H           -0.940336569258     0.600883488781    -1.515292411739     1.007825032230
         H           -3.365312569258     0.652144488781    -1.146866411739     1.007825032230
         H           -0.443020569258     1.231359488781     1.403596588261     1.007825032230
         H           -3.284687569258    -0.899254511219     1.130381588261     1.007825032230
         H           -1.716038569258    -1.690825511219    -1.369865411739     1.007825032230
         H           -3.488291569258    -1.824524511219    -1.184536411739     1.007825032230
         H           -0.300255569258     2.722658488781    -0.525401411739     1.007825032230
         H           -2.850286569258     2.409222488781     0.508261588261     1.007825032230
         H            0.431580430742    -1.953957511219     0.568666588261     1.007825032230
         H           -2.436604569258    -3.788952511219    -0.543634411739     1.007825032230
         H            2.826381430742    -2.635918511219     0.073520588261     1.007825032230
         H            5.122449430742    -1.661381511219    -0.162815411739     1.007825032230
         H            5.317083430742    -0.010574511219    -0.568695411739     1.007825032230

  Basis Set: AUG-CC-PVTZ
    Blend: AUG-CC-PVTZ
  Basis Set: (AUG-CC-PVTZ AUX)
    Blend: AUG-CC-PVTZ-JKFIT
	 Reference Energy          =    -886.3330843226353863 [Eh]
	 Singles Energy            =      -0.0000000000000000 [Eh]
	 Same-Spin Energy          =      -0.9005695391949342 [Eh]
	 Opposite-Spin Energy      =      -2.7178551081998390 [Eh]
	 Correlation Energy        =      -3.6184246473947734 [Eh]
	 Total Energy              =    -889.9515089700302042 [Eh]

	 ================> DF-SCS-MP2 Energies <==================
	-----------------------------------------------------------
	 SCS Same-Spin Scale       =       0.3333333333333333 [-]
	 SCS Opposite-Spin Scale   =       1.2000000000000000 [-]
	 SCS Same-Spin Energy      =      -0.3001898463983114 [Eh]
	 SCS Opposite-Spin Energy  =      -3.2614261298398066 [Eh]
	 SCS Correlation Energy    =      -3.5616159762381181 [Eh]
	 SCS Total Energy          =    -889.8947002988735449 [Eh]
	-----------------------------------------------------------

  Dipole Moment: [D]
     X:     2.5535      Y:    -6.4377      Z:    -1.9028     Total:     7.1823

*** Psi4 exiting successfully. Buy a developer a beer!
